<event>
 9    1  0.1321469E-005  0.1177077E+03  0.7546771E-02  0.1247227E+00
         21   -1    0    0  501  502  0.00000000000E+00  0.00000000000E+00  0.51726353620E+02  0.51726353620E+02  0.00000000000E+00 0. -1.
          1   -1    0    0  502    0 -0.00000000000E+00 -0.00000000000E+00 -0.11005375439E+04  0.11005375439E+04  0.00000000000E+00 0. -1.
         23    2    1    2    0    0  0.48272242973E+02  0.34738397236E+01 -0.40655189427E+03  0.41941170873E+03  0.90991547314E+02 0.  0.
         23    2    1    2    0    0 -0.84324081245E+02 -0.85194420995E+02 -0.62356502236E+03  0.64159724747E+03  0.91896957498E+02 0.  0.
        -11    1    4    4    0    0 -0.47473199569E+02  0.10206175122E+02 -0.21700420874E+03  0.22237063048E+03  0.00000000000E+00 0.  1.
         11    1    4    4    0    0 -0.36850881675E+02 -0.95400596117E+02 -0.40656081362E+03  0.41922661699E+03  0.00000000000E+00 0. -1.
        -11    1    3    3    0    0 -0.17261835407E+02 -0.12120684620E+02 -0.28784728479E+02  0.35685326828E+02  0.00000000000E+00 0. -1.
         11    1    3    3    0    0  0.65534078380E+02  0.15594524344E+02 -0.37776716579E+03  0.38372638190E+03  0.00000000000E+00 0.  1.
          1    1    1    2  501    0  0.36051838271E+02  0.81720581271E+02 -0.18694273632E+02  0.91254941306E+02  0.00000000000E+00 0. -1.
<scales pt_clust_5="13000.00000" pt_clust_6="13000.00000" pt_clust_7="13000.00000" pt_clust_8="13000.00000" pt_clust_9="89.31959"></scales>
<clustering>
<clus scale="   89.320">  1  9  2 -1</clus>
<clus scale="   90.992">  7  8 -1 -1</clus>
<clus scale="   91.897">  5  6 -1 -1</clus>
<clus scale="  117.002">  2  7  1 -1</clus>
<clus scale="   89.320">  1  5  2 -1</clus>
</clustering>
</event>
<event>
 9    1  0.1321469E-005  0.1113200E+03  0.7546771E-02  0.1258220E+00
         -2   -1    0    0    0  501 -0.00000000000E+00  0.00000000000E+00  0.10117172321E+03  0.10117172321E+03  0.00000000000E+00 0.  1.
         21   -1    0    0  501  502  0.00000000000E+00 -0.00000000000E+00 -0.22178760690E+03  0.22178760690E+03  0.00000000000E+00 0.  1.
         23    2    1    2    0    0 -0.18167906245E+02 -0.48720213818E+02  0.24310559024E+01  0.10538929419E+03  0.91636571548E+02 0.  0.
         23    2    1    2    0    0  0.37436106211E+02  0.71887343000E+02 -0.39411423027E+02  0.12867189738E+03  0.91836511135E+02 0.  0.
        -11    1    3    3    0    0 -0.22962054785E+02  0.13596624392E+02  0.27250464514E+02  0.38140686557E+02  0.00000000000E+00 0.  1.
         11    1    3    3    0    0  0.47941485397E+01 -0.62316838210E+02 -0.24819408612E+02  0.67248607632E+02  0.00000000000E+00 0. -1.
        -13    1    4    4    0    0 -0.54785611746E+01  0.76102744862E+02 -0.11138604950E+02  0.77108436168E+02  0.00000000000E+00 0.  1.
         13    1    4    4    0    0  0.42914667386E+02 -0.42154018621E+01 -0.28272818078E+02  0.51563461208E+02  0.00000000000E+00 0. -1.
         -2    1    1    2    0  502 -0.19268199966E+02 -0.23167129182E+02 -0.83635516572E+02  0.88898138544E+02  0.00000000000E+00 0.  1.
<scales pt_clust_5="13000.00000" pt_clust_6="13000.00000" pt_clust_7="13000.00000" pt_clust_8="13000.00000" pt_clust_9="30.13270"></scales>
<clustering>
<clus scale="   30.133">  2  9  1 -1</clus>
<clus scale="   91.637">  5  6 -1 -1</clus>
<clus scale="   91.837">  7  8 -1 -1</clus>
<clus scale="  111.155">  1  5  2 -1</clus>
<clus scale="   30.133">  2  5  1 -1</clus>
</clustering>
</event>
<event>
 9    1  0.1321469E-005  0.1030152E+03  0.7546771E-02  0.1276654E+00
         21   -1    0    0  501  502  0.00000000000E+00  0.00000000000E+00  0.50197541418E+03  0.50197541418E+03  0.00000000000E+00 0.  1.
          3   -1    0    0  502    0 -0.00000000000E+00 -0.00000000000E+00 -0.46277348076E+02  0.46277348076E+02  0.00000000000E+00 0. -1.
         23    2    1    2    0    0  0.74848574579E+01  0.40061280492E+02  0.43790215909E+02  0.10835821297E+03  0.90349266864E+02 0.  0.
         23    2    1    2    0    0 -0.30841896600E+02 -0.23288151071E+02  0.19084511686E+03  0.21696940217E+03  0.95709468086E+02 0.  0.
        -11    1    3    3    0    0 -0.13002092569E+02 -0.19115112542E+02  0.39274393011E+02  0.45573236500E+02  0.00000000000E+00 0.  1.
         11    1    3    3    0    0  0.20486950027E+02  0.59176393034E+02  0.45158228982E+01  0.62784976471E+02  0.00000000000E+00 0. -1.
        -13    1    4    4    0    0 -0.59515881305E+02 -0.22609015664E+02  0.16994898878E+03  0.18148268926E+03  0.00000000000E+00 0.  1.
         13    1    4    4    0    0  0.28673984705E+02 -0.67913540737E+00  0.20896128087E+02  0.35486712905E+02  0.00000000000E+00 0. -1.
          3    1    1    2  501    0  0.23357039142E+02 -0.16773129421E+02  0.22106273333E+03  0.22292514711E+03  0.00000000000E+00 0. -1.
<scales pt_clust_5="13000.00000" pt_clust_6="13000.00000" pt_clust_7="13000.00000" pt_clust_8="13000.00000" pt_clust_9="28.75568"></scales>
<clustering>
<clus scale="   28.756">  1  9  2 -1</clus>
<clus scale="   90.349">  5  6 -1 -1</clus>
<clus scale="   95.709">  7  8 -1 -1</clus>
<clus scale="   98.055">  2  5  1 -1</clus>
<clus scale="   28.756">  1  5  2 -1</clus>
</clustering>
</event>
<event>
 9    1  0.1321469E-005  0.9595202E+02  0.7546771E-02  0.1290716E+00
          2   -1    0    0  502    0 -0.00000000000E+00  0.00000000000E+00  0.44445032730E+03  0.44445032730E+03  0.00000000000E+00 0. -1.
         21   -1    0    0  501  502  0.00000000000E+00 -0.00000000000E+00 -0.44991479213E+02  0.44991479213E+02  0.00000000000E+00 0. -1.
         23    2    1    2    0    0 -0.18530481118E+02  0.23266963746E+02  0.22364491530E+03  0.24407565007E+03  0.93118980269E+02 0.  0.
         23    2    1    2    0    0 -0.11592126994E+02 -0.22316402763E+02  0.19021873430E+03  0.21196296210E+03  0.90070701018E+02 0.  0.
        -11    1    4    4    0    0 -0.38697092941E+02 -0.42500714271E+02  0.96302881834E+02  0.11215177558E+03  0.00000000000E+00 0. -1.
         11    1    4    4    0    0  0.27104965947E+02  0.20184311508E+02  0.93915852471E+02  0.99811186524E+02  0.00000000000E+00 0.  1.
        -13    1    3    3    0    0 -0.89256741322E+01 -0.35907873603E+02  0.10097333181E+03  0.10753909420E+03  0.00000000000E+00 0.  1.
         13    1    3    3    0    0 -0.96048069858E+01  0.59174837349E+02  0.12267158349E+03  0.13653655587E+03  0.00000000000E+00 0. -1.
          2    1    1    2  501    0  0.30122608112E+02 -0.95056098322E+00 -0.14404801514E+02  0.33403194343E+02  0.00000000000E+00 0. -1.
<scales pt_clust_5="13000.00000" pt_clust_6="13000.00000" pt_clust_7="13000.00000" pt_clust_8="13000.00000" pt_clust_9="30.13760"></scales>
<clustering>
<clus scale="   30.138">  2  9  1 -1</clus>
<clus scale="   90.071">  5  6 -1 -1</clus>
<clus scale="   92.997">  2  5  1 -1</clus>
<clus scale="   93.119">  7  8 -1 -1</clus>
<clus scale="   30.138">  2  5  1 -1</clus>
</clustering>
</event>
<event>
 9    1  0.1321469E-005  0.9966454E+02  0.7546771E-02  0.1281907E+00
         -1   -1    0    0    0  501 -0.00000000000E+00  0.00000000000E+00  0.40122063875E+03  0.40122063875E+03  0.00000000000E+00 0.  1.
         21   -1    0    0  501  502  0.00000000000E+00 -0.00000000000E+00 -0.80247021115E+02  0.80247021115E+02  0.00000000000E+00 0.  1.
         23    2    1    2    0    0 -0.27714342534E+02 -0.10926411798E+02  0.30980886790E+03  0.32567295053E+03  0.95884643300E+02 0.  0.
         23    2    1    2    0    0  0.23178882546E+02 -0.21657192852E+02  0.44610706123E+02  0.10888102597E+03  0.94120497855E+02 0.  0.
        -11    1    3    3    0    0 -0.61884498680E+02  0.61209298059E+01  0.18787452063E+03  0.19789894507E+03  0.00000000000E+00 0.  1.
         11    1    3    3    0    0  0.34170156146E+02 -0.17047341604E+02  0.12193434727E+03  0.12777400546E+03  0.00000000000E+00 0. -1.
        -11    1    4    4    0    0  0.18092598813E+01 -0.37937047355E+02  0.64913189466E+02  0.75207813091E+02  0.00000000000E+00 0.  1.
         11    1    4    4    0    0  0.21369622665E+02  0.16279854503E+02 -0.20302483342E+02  0.33673212876E+02  0.00000000000E+00 0. -1.
         -1    1    1    2    0  502  0.45354599876E+01  0.32583604650E+02 -0.33445956382E+02  0.46913683373E+02  0.00000000000E+00 0.  1.
<scales pt_clust_5="13000.00000" pt_clust_6="13000.00000" pt_clust_7="13000.00000" pt_clust_8="13000.00000" pt_clust_9="32.89775"></scales>
<clustering>
<clus scale="   32.898">  2  9  1 -1</clus>
<clus scale="   94.120">  7  8 -1 -1</clus>
<clus scale="   95.885">  5  6 -1 -1</clus>
<clus scale="   97.968">  2  7  1 -1</clus>
<clus scale="   32.898">  2  5  1 -1</clus>
</clustering>
</event>
<event>
 9    1  0.1321469E-005  0.9866535E+02  0.7546771E-02  0.1283271E+00
         21   -1    0    0  501  502  0.00000000000E+00  0.00000000000E+00  0.65585526043E+02  0.65585526043E+02  0.00000000000E+00 0. -1.
         -2   -1    0    0    0  501 -0.00000000000E+00 -0.00000000000E+00 -0.20590249306E+03  0.20590249306E+03  0.00000000000E+00 0.  1.
         23    2    1    2    0    0  0.24538624041E+02 -0.39576030101E+02 -0.86228068605E+02  0.13392770755E+03  0.91284964835E+02 0.  0.
         23    2    1    2    0    0 -0.25249415803E+02  0.10944757322E+02 -0.28748162405E+02  0.99318869281E+02  0.90997034251E+02 0.  0.
        -11    1    3    3    0    0  0.89197352566E+00 -0.64565656697E+02 -0.71955679952E+02  0.96680605702E+02  0.00000000000E+00 0.  1.
         11    1    3    3    0    0  0.23646650516E+02  0.24989626595E+02 -0.14272388653E+02  0.37247101845E+02  0.00000000000E+00 0. -1.
        -11    1    4    4    0    0 -0.29885581066E+02 -0.30853843912E+02 -0.36725125626E+02  0.56514091093E+02  0.00000000000E+00 0.  1.
         11    1    4    4    0    0  0.46361652624E+01  0.41798601234E+02  0.79769632216E+01  0.42804778188E+02  0.00000000000E+00 0. -1.
         -2    1    1    2    0  502  0.71079176207E+00  0.28631272780E+02 -0.25340736005E+02  0.38241442274E+02  0.00000000000E+00 0.  1.
<scales pt_clust_5="13000.00000" pt_clust_6="13000.00000" pt_clust_7="13000.00000" pt_clust_8="13000.00000" pt_clust_9="28.64011"></scales>
<clustering>
<clus scale="   28.640">  1  9  2 -1</clus>
<clus scale="   90.997">  7  8 -1 -1</clus>
<clus scale="   91.285">  5  6 -1 -1</clus>
<clus scale="   98.399">  1  7  2 -1</clus>
<clus scale="   28.640">  1  5  2 -1</clus>
</clustering>
</event>
<event>
 9    1  0.1321469E-005  0.9339590E+02  0.7546771E-02  0.1296328E+00
         -2   -1    0    0    0  501 -0.00000000000E+00  0.00000000000E+00  0.24941213150E+03  0.24941213150E+03  0.00000000000E+00 0.  1.
         21   -1    0    0  501  502  0.00000000000E+00 -0.00000000000E+00 -0.91446453314E+02  0.91446453314E+02  0.00000000000E+00 0.  1.
         23    2    1    2    0    0  0.14689348114E+02  0.26911449856E+01  0.17048402596E+03  0.19252564272E+03  0.88194675493E+02 0.  0.
         23    2    1    2    0    0 -0.54782442487E+02 -0.97875407067E+01 -0.32345286811E+01  0.10657166403E+03  0.90830311244E+02 0.  0.
        -11    1    4    4    0    0 -0.45274199281E+01 -0.24309778720E+02 -0.36859496448E+02  0.44385643523E+02  0.00000000000E+00 0. -1.
         11    1    4    4    0    0 -0.50255022559E+02  0.14522238013E+02  0.33624967766E+02  0.62186020508E+02  0.00000000000E+00 0.  1.
        -13    1    3    3    0    0  0.49828007527E+02 -0.96916666409E+01  0.80948817792E+02  0.95548259211E+02  0.00000000000E+00 0.  1.
         13    1    3    3    0    0 -0.35138659413E+02  0.12382811627E+02  0.89535208172E+02  0.96977383505E+02  0.00000000000E+00 0. -1.
         -2    1    1    2    0  502  0.40093094374E+02  0.70963957210E+01 -0.92838190967E+01  0.41761278066E+02  0.00000000000E+00 0.  1.
<scales pt_clust_5="13000.00000" pt_clust_6="13000.00000" pt_clust_7="13000.00000" pt_clust_8="13000.00000" pt_clust_9="40.71627"></scales>
<clustering>
<clus scale="   40.716">  2  9  1 -1</clus>
<clus scale="   88.195">  7  8 -1 -1</clus>
<clus scale="   90.830">  5  6 -1 -1</clus>
<clus scale="   90.835">  1  7  2 -1</clus>
<clus scale="   40.716">  2  5  1 -1</clus>
</clustering>
</event>
<event>
 9    1  0.1321469E-005  0.9436686E+02  0.7546771E-02  0.1293643E+00
         -1   -1    0    0    0  501 -0.00000000000E+00  0.00000000000E+00  0.44377263626E+02  0.44377263626E+02  0.00000000000E+00 0.  1.
         21   -1    0    0  501  502  0.00000000000E+00 -0.00000000000E+00 -0.29411561516E+03  0.29411561516E+03  0.00000000000E+00 0. -1.
         23    2    1    2    0    0 -0.23012320124E+02  0.10727968195E+01 -0.66094504871E+02  0.11561077627E+03  0.92014402378E+02 0.  0.
         23    2    1    2    0    0  0.92812647603E+01 -0.27548547199E+02 -0.15417038609E+03  0.18095130098E+03  0.90165409389E+02 0.  0.
        -11    1    3    3    0    0  0.50554157763E+00  0.23544697765E+02  0.15214057054E+02  0.28037045086E+02  0.00000000000E+00 0.  1.
         11    1    3    3    0    0 -0.23517861701E+02 -0.22471900945E+02 -0.81308561925E+02  0.87573731183E+02  0.00000000000E+00 0. -1.
        -11    1    4    4    0    0 -0.37356304707E+02 -0.65051835542E+01 -0.97430374849E+02  0.10454897827E+03  0.00000000000E+00 0.  1.
         11    1    4    4    0    0  0.46637569468E+02 -0.21043363645E+02 -0.56740011243E+02  0.76402322708E+02  0.00000000000E+00 0. -1.
         -1    1    1    2    0  502  0.13731055364E+02  0.26475750380E+02 -0.29473460576E+02  0.41930801541E+02  0.00000000000E+00 0.  1.
<scales pt_clust_5="13000.00000" pt_clust_6="13000.00000" pt_clust_7="13000.00000" pt_clust_8="13000.00000" pt_clust_9="29.82462"></scales>
<clustering>
<clus scale="   29.825">  2  9  1 -1</clus>
<clus scale="   90.165">  7  8 -1 -1</clus>
<clus scale="   92.014">  5  6 -1 -1</clus>
<clus scale="   92.565">  2  7  1 -1</clus>
<clus scale="   29.825">  2  5  1 -1</clus>
</clustering>
</event>
<event>
 9    1  0.1321469E-005  0.1041327E+03  0.7546771E-02  0.1276584E+00
          2   -1    0    0  502    0 -0.00000000000E+00  0.00000000000E+00  0.63324873695E+03  0.63324873695E+03  0.00000000000E+00 0. -1.
         21   -1    0    0  501  502  0.00000000000E+00 -0.00000000000E+00 -0.21882214589E+02  0.21882214589E+02  0.00000000000E+00 0.  1.
         23    2    1    2    0    0  0.34901691583E+02 -0.73058561616E+01  0.34280231511E+03  0.35720799132E+03  0.93875546350E+02 0.  0.
         23    2    1    2    0    0 -0.56948567917E+02  0.13443227419E+02  0.24313917208E+03  0.26371529303E+03  0.83697305944E+02 0.  0.
        -11    1    4    4    0    0 -0.49152199716E+02 -0.28669944264E+02  0.16602951207E+03  0.17550983824E+03  0.00000000000E+00 0. -1.
         11    1    4    4    0    0 -0.77963682010E+01  0.42113171683E+02  0.77109660018E+02  0.88205454788E+02  0.00000000000E+00 0.  1.
        -13    1    3    3    0    0  0.55644018124E+02 -0.25145676459E+02  0.30180554631E+03  0.30792068716E+03  0.00000000000E+00 0. -1.
         13    1    3    3    0    0 -0.20742326542E+02  0.17839820297E+02  0.40996768808E+02  0.49287304159E+02  0.00000000000E+00 0.  1.
          2    1    1    2  501    0  0.22046876334E+02 -0.61373712573E+01  0.25425035157E+02  0.34207667193E+02  0.00000000000E+00 0. -1.
<scales pt_clust_5="13000.00000" pt_clust_6="13000.00000" pt_clust_7="13000.00000" pt_clust_8="13000.00000" pt_clust_9="22.88519"></scales>
<clustering>
<clus scale="   22.885">  2  9  1 -1</clus>
<clus scale="   83.697">  5  6 -1 -1</clus>
<clus scale="   93.876">  7  8 -1 -1</clus>
<clus scale="   95.059">  2  5  1 -1</clus>
<clus scale="   22.885">  2  5  1 -1</clus>
</clustering>
</event>
<event>
 9    1  0.1321469E-005  0.2005212E+03  0.7546771E-02  0.1171559E+00
          1   -1    0    0  502    0 -0.00000000000E+00  0.00000000000E+00  0.74140459678E+03  0.74140459678E+03  0.00000000000E+00 0. -1.
         21   -1    0    0  501  502  0.00000000000E+00 -0.00000000000E+00 -0.14740918749E+03  0.14740918749E+03  0.00000000000E+00 0. -1.
         23    2    1    2    0    0 -0.11011010006E+02 -0.78203355402E+02  0.36435515129E+03  0.38344396922E+03  0.89652630325E+02 0.  0.
         23    2    1    2    0    0  0.17546465111E+03 -0.22870983538E+01  0.25257268227E+03  0.32084445284E+03  0.91406391908E+02 0.  0.
        -11    1    4    4    0    0  0.13911352213E+03 -0.13541692789E+02  0.12430117436E+03  0.18704740423E+03  0.00000000000E+00 0. -1.
         11    1    4    4    0    0  0.36351128975E+02  0.11254594435E+02  0.12827150791E+03  0.13379704861E+03  0.00000000000E+00 0.  1.
        -13    1    3    3    0    0  0.35936245653E+02 -0.12453603523E+02  0.13603050836E+03  0.14124731926E+03  0.00000000000E+00 0. -1.
         13    1    3    3    0    0 -0.46947255658E+02 -0.65749751879E+02  0.22832464293E+03  0.24219664997E+03  0.00000000000E+00 0.  1.
          1    1    1    2  501    0 -0.16445364110E+03  0.80490453756E+02 -0.22932424274E+02  0.18452536221E+03  0.00000000000E+00 0. -1.
<scales pt_clust_5="13000.00000" pt_clust_6="13000.00000" pt_clust_7="13000.00000" pt_clust_8="13000.00000" pt_clust_9="178.47585"></scales>
<clustering>
<clus scale="   89.653">  7  8 -1 -1</clus>
<clus scale="   91.406">  5  6 -1 -1</clus>
<clus scale="  119.476">  1  7  2 -1</clus>
<clus scale="  178.476">  2  9  1 -1</clus>
<clus scale="  178.476">  2  5  1 -1</clus>
</clustering>
</event>
<event>
 9    1  0.1321469E-005  0.9506847E+02  0.7546771E-02  0.1291330E+00
         21   -1    0    0  501  502  0.00000000000E+00  0.00000000000E+00  0.32631339938E+03  0.32631339938E+03  0.00000000000E+00 0.  1.
         -1   -1    0    0    0  501 -0.00000000000E+00 -0.00000000000E+00 -0.61565756353E+02  0.61565756353E+02  0.00000000000E+00 0.  1.
         23    2    1    2    0    0  0.19647851735E+01  0.44890390566E+02  0.46413862646E+02  0.11125167254E+03  0.90574170992E+02 0.  0.
         23    2    1    2    0    0  0.33389726455E+02  0.45998426624E+01  0.81288689985E+02  0.12669222557E+03  0.91142945503E+02 0.  0.
        -11    1    3    3    0    0 -0.17474276066E+02  0.35045006637E+02  0.69332814177E+02  0.79627519966E+02  0.00000000000E+00 0. -1.
         11    1    3    3    0    0  0.19439061239E+02  0.98453839297E+01 -0.22918951532E+02  0.31624152572E+02  0.00000000000E+00 0.  1.
        -13    1    4    4    0    0 -0.31645334781E+02  0.28439729061E+01  0.31773476009E+02  0.44934053600E+02  0.00000000000E+00 0.  1.
         13    1    4    4    0    0  0.65035061236E+02  0.17558697563E+01  0.49515213976E+02  0.81758171969E+02  0.00000000000E+00 0. -1.
         -1    1    1    2    0  502 -0.35354511629E+02 -0.49490233229E+02  0.13704509040E+03  0.14993525763E+03  0.00000000000E+00 0.  1.
<scales pt_clust_5="13000.00000" pt_clust_6="13000.00000" pt_clust_7="13000.00000" pt_clust_8="13000.00000" pt_clust_9="60.82125"></scales>
<clustering>
<clus scale="   60.821">  1  9  2 -1</clus>
<clus scale="   90.574">  5  6 -1 -1</clus>
<clus scale="   91.143">  7  8 -1 -1</clus>
<clus scale="   94.523">  2  5  1 -1</clus>
<clus scale="   60.821">  1  5  2 -1</clus>
</clustering>
</event>
<event>
 9    1  0.1321469E-005  0.9853136E+02  0.7546771E-02  0.1283631E+00
          1   -1    0    0  502    0 -0.00000000000E+00  0.00000000000E+00  0.22436064693E+03  0.22436064693E+03  0.00000000000E+00 0. -1.
         21   -1    0    0  501  502  0.00000000000E+00 -0.00000000000E+00 -0.78472379476E+02  0.78472379476E+02  0.00000000000E+00 0. -1.
         23    2    1    2    0    0 -0.30099005613E+02  0.23615248505E+02  0.88237816859E+02  0.13193160053E+03  0.90312816323E+02 0.  0.
         23    2    1    2    0    0  0.48810831620E+02  0.20224523570E+02  0.63750681086E+02  0.12284655245E+03  0.90750192688E+02 0.  0.
        -13    1    3    3    0    0 -0.32193097611E+02  0.53340185646E+02  0.79249270706E+02  0.10080683432E+03  0.00000000000E+00 0.  1.
         13    1    3    3    0    0  0.20940919979E+01 -0.29724937140E+02  0.89885461532E+01  0.31124766204E+02  0.00000000000E+00 0. -1.
        -13    1    4    4    0    0  0.25396653387E+02  0.49157504572E+02  0.81347633682E+01  0.55925169951E+02  0.00000000000E+00 0. -1.
         13    1    4    4    0    0  0.23414178233E+02 -0.28932981002E+02  0.55615917718E+02  0.66921382499E+02  0.00000000000E+00 0.  1.
          1    1    1    2  501    0 -0.18711826007E+02 -0.43839772075E+02 -0.61002304948E+01  0.48054873428E+02  0.00000000000E+00 0. -1.
<scales pt_clust_5="13000.00000" pt_clust_6="13000.00000" pt_clust_7="13000.00000" pt_clust_8="13000.00000" pt_clust_9="47.66611"></scales>
<clustering>
<clus scale="   47.666">  2  9  1 -1</clus>
<clus scale="   90.313">  5  6 -1 -1</clus>
<clus scale="   90.750">  7  8 -1 -1</clus>
<clus scale="   98.129">  1  5  2 -1</clus>
<clus scale="   47.666">  2  5  1 -1</clus>
</clustering>
</event>
<event>
 9    1  0.1321469E-005  0.1550327E+03  0.7546771E-02  0.1212293E+00
         21   -1    0    0  501  502  0.00000000000E+00  0.00000000000E+00  0.69064012721E+02  0.69064012721E+02  0.00000000000E+00 0. -1.
          1   -1    0    0  502    0 -0.00000000000E+00 -0.00000000000E+00 -0.56542848384E+03  0.56542848384E+03  0.00000000000E+00 0. -1.
         23    2    1    2    0    0  0.45834159888E+02 -0.25990072097E+02 -0.14373271940E+03  0.17823072453E+03  0.91273448935E+02 0.  0.
         23    2    1    2    0    0 -0.10281125244E+03  0.11908842142E+03 -0.19936289582E+03  0.26809951782E+03  0.85904490435E+02 0.  0.
        -11    1    3    3    0    0  0.52806145555E+02  0.21390348886E+02 -0.69173707459E+02  0.89616057922E+02  0.00000000000E+00 0.  1.
         11    1    3    3    0    0 -0.69719856672E+01 -0.47380420983E+02 -0.74559011942E+02  0.88614666610E+02  0.00000000000E+00 0. -1.
        -11    1    4    4    0    0 -0.31013771196E+02  0.17904114657E+02 -0.31465904616E+01  0.35948746251E+02  0.00000000000E+00 0.  1.
         11    1    4    4    0    0 -0.71797481244E+02  0.10118430677E+03 -0.19621630536E+03  0.23215077157E+03  0.00000000000E+00 0. -1.
          1    1    1    2  501    0  0.56977092553E+02 -0.93098349327E+02 -0.15326885590E+03  0.18816225421E+03  0.00000000000E+00 0. -1.
<scales pt_clust_5="13000.00000" pt_clust_6="13000.00000" pt_clust_7="13000.00000" pt_clust_8="13000.00000" pt_clust_9="129.05646"></scales>
<clustering>
<clus scale="   85.904">  7  8 -1 -1</clus>
<clus scale="   91.273">  5  6 -1 -1</clus>
<clus scale="  105.390">  2  5  1 -1</clus>
<clus scale="  129.056">  1  9  2 -1</clus>
<clus scale="  129.056">  1  5  2 -1</clus>
</clustering>
</event>
<event>
 9    1  0.1321469E-005  0.9466198E+02  0.7546771E-02  0.1292230E+00
          2   -1    0    0  502    0 -0.00000000000E+00  0.00000000000E+00  0.46913684347E+03  0.46913684347E+03  0.00000000000E+00 0. -1.
         21   -1    0    0  501  502  0.00000000000E+00 -0.00000000000E+00 -0.24761230263E+02  0.24761230263E+02  0.00000000000E+00 0.  1.
         23    2    1    2    0    0 -0.29443865584E+02  0.52669591980E+01  0.24064179561E+03  0.25933705808E+03  0.91937771473E+02 0.  0.
         23    2    1    2    0    0  0.87071174008E+01 -0.13210877175E+02  0.14933748821E+03  0.17580661829E+03  0.91410833494E+02 0.  0.
        -11    1    3    3    0    0 -0.48637737569E+02 -0.21982953337E+02  0.86574733520E+02  0.10170577288E+03  0.00000000000E+00 0.  1.
         11    1    3    3    0    0  0.19193871985E+02  0.27249912535E+02  0.15406706209E+03  0.15763128520E+03  0.00000000000E+00 0. -1.
        -13    1    4    4    0    0  0.45406555306E+02 -0.11646552806E+02  0.44167170533E+02  0.64406027745E+02  0.00000000000E+00 0. -1.
         13    1    4    4    0    0 -0.36699437905E+02 -0.15643243688E+01  0.10517031767E+03  0.11140059054E+03  0.00000000000E+00 0.  1.
          2    1    1    2  501    0  0.20736748183E+02  0.79439179767E+01  0.54396329395E+02  0.58754397365E+02  0.00000000000E+00 0. -1.
<scales pt_clust_5="13000.00000" pt_clust_6="13000.00000" pt_clust_7="13000.00000" pt_clust_8="13000.00000" pt_clust_9="22.20628"></scales>
<clustering>
<clus scale="   22.206">  2  9  1 -1</clus>
<clus scale="   91.411">  7  8 -1 -1</clus>
<clus scale="   91.938">  5  6 -1 -1</clus>
<clus scale="   94.150">  2  7  1 -1</clus>
<clus scale="   22.206">  2  5  1 -1</clus>
</clustering>
</event>
<event>
 9    1  0.1321469E-005  0.1440267E+03  0.7546771E-02  0.1208094E+00
         21   -1    0    0  501  502  0.00000000000E+00  0.00000000000E+00  0.43736396246E+02  0.43736396246E+02  0.00000000000E+00 0. -1.
          2   -1    0    0  502    0 -0.00000000000E+00 -0.00000000000E+00 -0.97985534207E+03  0.97985534207E+03  0.00000000000E+00 0. -1.
         23    2    1    2    0    0 -0.26576276974E+02  0.11727669703E+03 -0.60919206485E+03  0.62764444810E+03  0.91446482676E+02 0.  0.
         23    2    1    2    0    0  0.59209635327E+02 -0.83825237742E+02 -0.32068712333E+03  0.34879995963E+03  0.91042459176E+02 0.  0.
        -11    1    4    4    0    0  0.29586537598E+02  0.11916029932E+02 -0.42689993515E+02  0.53289684956E+02  0.00000000000E+00 0.  1.
         11    1    4    4    0    0  0.29623097729E+02 -0.95741267674E+02 -0.27799712981E+03  0.29551027468E+03  0.00000000000E+00 0. -1.
        -13    1    3    3    0    0 -0.55160340021E+02  0.63243364737E+02 -0.26198092365E+03  0.27509342168E+03  0.00000000000E+00 0.  1.
         13    1    3    3    0    0  0.28584063047E+02  0.54033332288E+02 -0.34721114120E+03  0.35255102642E+03  0.00000000000E+00 0. -1.
          2    1    1    2  501    0 -0.32633358353E+02 -0.33451459283E+02 -0.62397576475E+01  0.47147330583E+02  0.00000000000E+00 0. -1.
<scales pt_clust_5="13000.00000" pt_clust_6="13000.00000" pt_clust_7="13000.00000" pt_clust_8="13000.00000" pt_clust_9="46.73260"></scales>
<clustering>
<clus scale="   46.733">  1  9  2 -1</clus>
<clus scale="   91.042">  5  6 -1 -1</clus>
<clus scale="   91.446">  7  8 -1 -1</clus>
<clus scale="  143.770">  1  5  2 -1</clus>
<clus scale="   46.733">  1  5  2 -1</clus>
</clustering>
</event>
<event>
 9    1  0.1321469E-005  0.9108178E+02  0.7546771E-02  0.1300409E+00
          4   -1    0    0  502    0 -0.00000000000E+00  0.00000000000E+00  0.37450147862E+02  0.37450147862E+02  0.00000000000E+00 0. -1.
         21   -1    0    0  501  502  0.00000000000E+00 -0.00000000000E+00 -0.39981825201E+03  0.39981825201E+03  0.00000000000E+00 0.  1.
         23    2    1    2    0    0 -0.37696353141E+01  0.17856095928E+02 -0.83991483754E+02  0.12482527915E+03  0.90519228119E+02 0.  0.
         23    2    1    2    0    0  0.16858035371E+02  0.15056310370E+02 -0.12980166187E+03  0.15970461541E+03  0.90256340059E+02 0.  0.
        -11    1    4    4    0    0  0.85703288048E-01  0.30766828576E+02 -0.13299075598E+03  0.13650328297E+03  0.00000000000E+00 0.  1.
         11    1    4    4    0    0  0.16772332083E+02 -0.15710518206E+02  0.31890941097E+01  0.23201332441E+02  0.00000000000E+00 0. -1.
        -13    1    3    3    0    0 -0.40770570286E+02  0.29701392422E+02 -0.31316875585E+02  0.59373047838E+02  0.00000000000E+00 0. -1.
         13    1    3    3    0    0  0.37000934971E+02 -0.11845296494E+02 -0.52674608168E+02  0.65452231310E+02  0.00000000000E+00 0.  1.
          4    1    1    2  501    0 -0.13088400057E+02 -0.32912406297E+02 -0.14857495853E+03  0.15273850531E+03  0.00000000000E+00 0. -1.
<scales pt_clust_5="13000.00000" pt_clust_6="13000.00000" pt_clust_7="13000.00000" pt_clust_8="13000.00000" pt_clust_9="35.41938"></scales>
<clustering>
<clus scale="   35.419">  2  9  1 -1</clus>
<clus scale="   90.256">  5  6 -1 -1</clus>
<clus scale="   90.519">  7  8 -1 -1</clus>
<clus scale="   90.821">  2  5  1 -1</clus>
<clus scale="   35.419">  2  5  1 -1</clus>
</clustering>
</event>
<event>
 9    1  0.1321469E-005  0.1017208E+03  0.7546771E-02  0.1280820E+00
          1   -1    0    0  502    0 -0.00000000000E+00  0.00000000000E+00  0.29382027552E+03  0.29382027552E+03  0.00000000000E+00 0. -1.
         21   -1    0    0  501  502  0.00000000000E+00 -0.00000000000E+00 -0.54724244250E+02  0.54724244250E+02  0.00000000000E+00 0.  1.
         23    2    1    2    0    0  0.12938181006E+02 -0.30644193929E+02  0.13533542995E+03  0.16610388150E+03  0.90378967141E+02 0.  0.
         23    2    1    2    0    0  0.12110305668E+02  0.20306667613E+02  0.11497225979E+03  0.15311501090E+03  0.98318695010E+02 0.  0.
        -11    1    4    4    0    0  0.54586936267E+02  0.16834943173E+02  0.53148288202E+02  0.78024928461E+02  0.00000000000E+00 0. -1.
         11    1    4    4    0    0 -0.42476630599E+02  0.34717244400E+01  0.61823971584E+02  0.75090082434E+02  0.00000000000E+00 0.  1.
        -13    1    3    3    0    0 -0.28441568455E+02 -0.36622446163E+02  0.37246761948E+02  0.59476446218E+02  0.00000000000E+00 0.  1.
         13    1    3    3    0    0  0.41379749461E+02  0.59782522336E+01  0.98088668001E+02  0.10662743529E+03  0.00000000000E+00 0. -1.
          1    1    1    2  501    0 -0.25048486675E+02  0.10337526316E+02 -0.11211658467E+02  0.29325627370E+02  0.00000000000E+00 0. -1.
<scales pt_clust_5="13000.00000" pt_clust_6="13000.00000" pt_clust_7="13000.00000" pt_clust_8="13000.00000" pt_clust_9="27.09781"></scales>
<clustering>
<clus scale="   27.098">  2  9  1 -1</clus>
<clus scale="   90.379">  7  8 -1 -1</clus>
<clus scale="   94.069">  1  7  2 -1</clus>
<clus scale="   98.319">  5  6 -1 -1</clus>
<clus scale="   27.098">  2  5  1 -1</clus>
</clustering>
</event>
<event>
 9    1  0.1321469E-005  0.1880783E+03  0.7546771E-02  0.1161184E+00
          1   -1    0    0  502    0 -0.00000000000E+00  0.00000000000E+00  0.66718494177E+03  0.66718494177E+03  0.00000000000E+00 0. -1.
         21   -1    0    0  501  502  0.00000000000E+00 -0.00000000000E+00 -0.11936562136E+03  0.11936562136E+03  0.00000000000E+00 0.  1.
         23    2    1    2    0    0 -0.14831591475E+03 -0.73941779292E+02  0.53388073365E+03  0.56738193195E+03  0.97101089851E+02 0.  0.
         23    2    1    2    0    0  0.12492014598E+03  0.71099435723E+02  0.49976263050E+02  0.17610873075E+03  0.88636818239E+02 0.  0.
        -11    1    4    4    0    0  0.32922765836E+02  0.35666252357E+02  0.59817904673E+02  0.77033575712E+02  0.00000000000E+00 0. -1.
         11    1    4    4    0    0  0.91997380143E+02  0.35433183366E+02 -0.98416416235E+01  0.99075155041E+02  0.00000000000E+00 0.  1.
        -11    1    3    3    0    0 -0.39773569806E+02 -0.72954220999E+02  0.25063283587E+03  0.26404748367E+03  0.00000000000E+00 0.  1.
         11    1    3    3    0    0 -0.10854234495E+03 -0.98755829335E+00  0.28324789778E+03  0.30333444828E+03  0.00000000000E+00 0. -1.
          1    1    1    2  501    0  0.23395768774E+02  0.28423435699E+01 -0.36037676281E+02  0.43059900432E+02  0.00000000000E+00 0. -1.
<scales pt_clust_5="13000.00000" pt_clust_6="13000.00000" pt_clust_7="13000.00000" pt_clust_8="13000.00000" pt_clust_9="23.56779"></scales>
<clustering>
<clus scale="   23.568">  2  9  1 -1</clus>
<clus scale="   88.637">  5  6 -1 -1</clus>
<clus scale="   97.101">  7  8 -1 -1</clus>
<clus scale="  183.851">  2  5  1 -1</clus>
<clus scale="   23.568">  2  5  1 -1</clus>
</clustering>
</event>
<event>
 9    1  0.1321469E-005  0.1371618E+03  0.7546771E-02  0.1217500E+00
          1   -1    0    0  502    0 -0.00000000000E+00  0.00000000000E+00  0.26944785042E+03  0.26944785042E+03  0.00000000000E+00 0. -1.
         21   -1    0    0  501  502  0.00000000000E+00 -0.00000000000E+00 -0.11769153661E+03  0.11769153661E+03  0.00000000000E+00 0.  1.
         23    2    1    2    0    0  0.21059215615E+02  0.10494158992E+03  0.17215641953E+03  0.22276971552E+03  0.92370371384E+02 0.  0.
         23    2    1    2    0    0  0.40261492760E+01 -0.85092080738E+02 -0.34526242319E+02  0.12940073842E+03  0.91080281134E+02 0.  0.
        -11    1    4    4    0    0  0.45159050901E+02 -0.33383165301E+02 -0.31260440567E+01  0.56245424304E+02  0.00000000000E+00 0.  1.
         11    1    4    4    0    0 -0.41132901625E+02 -0.51708915437E+02 -0.31400198262E+02  0.73155314111E+02  0.00000000000E+00 0. -1.
        -13    1    3    3    0    0  0.28002412753E+02  0.20842243642E+02  0.46600189052E+01  0.35217183536E+02  0.00000000000E+00 0.  1.
         13    1    3    3    0    0 -0.69431971375E+01  0.84099346278E+02  0.16749640062E+03  0.18755253198E+03  0.00000000000E+00 0. -1.
          1    1    1    2  501    0 -0.25085364891E+02 -0.19849509182E+02  0.14126136602E+02  0.34968933095E+02  0.00000000000E+00 0. -1.
<scales pt_clust_5="13000.00000" pt_clust_6="13000.00000" pt_clust_7="13000.00000" pt_clust_8="13000.00000" pt_clust_9="31.98874"></scales>
<clustering>
<clus scale="   31.989">  2  9  1 -1</clus>
<clus scale="   91.080">  5  6 -1 -1</clus>
<clus scale="   92.370">  7  8 -1 -1</clus>
<clus scale="  136.296">  2  5  1 -1</clus>
<clus scale="   31.989">  2  5  1 -1</clus>
</clustering>
</event>
<event>
 9    1  0.1321469E-005  0.1109397E+03  0.7546771E-02  0.1264818E+00
         21   -1    0    0  501  502  0.00000000000E+00  0.00000000000E+00  0.87897405966E+02  0.87897405966E+02  0.00000000000E+00 0.  1.
          1   -1    0    0  502    0 -0.00000000000E+00 -0.00000000000E+00 -0.60535626953E+03  0.60535626953E+03  0.00000000000E+00 0. -1.
         23    2    1    2    0    0  0.31078208066E+02 -0.18541928775E+02 -0.53349608289E+03  0.54474292239E+03  0.10400539839E+03 0.  0.
         23    2    1    2    0    0 -0.42919081946E+02  0.48839167308E+02 -0.12121675394E+01  0.11169132476E+03  0.90808429223E+02 0.  0.
        -13    1    4    4    0    0 -0.67611259248E+02  0.41041646300E+02  0.15871140997E+02  0.80669648720E+02  0.00000000000E+00 0.  1.
         13    1    4    4    0    0  0.24692177302E+02  0.77975210085E+01 -0.17083308536E+02  0.31021676040E+02  0.00000000000E+00 0. -1.
        -13    1    3    3    0    0 -0.33665554840E+02 -0.27286122562E+02 -0.17092412277E+03  0.17633195346E+03  0.00000000000E+00 0.  1.
         13    1    3    3    0    0  0.64743762906E+02  0.87441937869E+01 -0.36257196012E+03  0.36841096893E+03  0.00000000000E+00 0. -1.
          1    1    1    2  501    0  0.11840873880E+02 -0.30297238534E+02  0.17249386862E+02  0.36819428351E+02  0.00000000000E+00 0. -1.
<scales pt_clust_5="13000.00000" pt_clust_6="13000.00000" pt_clust_7="13000.00000" pt_clust_8="13000.00000" pt_clust_9="32.52889"></scales>
<clustering>
<clus scale="   32.529">  1  9  2 -1</clus>
<clus scale="   90.808">  5  6 -1 -1</clus>
<clus scale="   98.675">  1  5  2 -1</clus>
<clus scale="  104.005">  7  8 -1 -1</clus>
<clus scale="   32.529">  1  5  2 -1</clus>
</clustering>
</event>
<event>
 9    1  0.1321469E-005  0.1029788E+03  0.7546771E-02  0.1275172E+00
          2   -1    0    0  502    0 -0.00000000000E+00  0.00000000000E+00  0.13428982218E+03  0.13428982218E+03  0.00000000000E+00 0. -1.
         21   -1    0    0  501  502  0.00000000000E+00 -0.00000000000E+00 -0.23183749569E+03  0.23183749569E+03  0.00000000000E+00 0. -1.
         23    2    1    2    0    0  0.77976893757E+01  0.37762363496E+02  0.59765710716E+02  0.11416084062E+03  0.89297017298E+02 0.  0.
         23    2    1    2    0    0 -0.69213065062E+01 -0.70434892994E+02 -0.28636860225E+02  0.11920386933E+03  0.91545147689E+02 0.  0.
        -11    1    4    4    0    0  0.18176815024E+02 -0.64849782776E+02  0.14587010867E+02  0.68910607431E+02  0.00000000000E+00 0. -1.
         11    1    4    4    0    0 -0.25098121530E+02 -0.55851102181E+01 -0.43223871092E+02  0.50293261901E+02  0.00000000000E+00 0.  1.
        -13    1    3    3    0    0 -0.20207682619E+02  0.54758951626E+02  0.56506466203E+02  0.81239608214E+02  0.00000000000E+00 0. -1.
         13    1    3    3    0    0  0.28005371995E+02 -0.16996588130E+02  0.32592445127E+01  0.32921232410E+02  0.00000000000E+00 0.  1.
          2    1    1    2  501    0 -0.87638286947E+00  0.32672529498E+02 -0.12867652400E+03  0.13276260791E+03  0.00000000000E+00 0. -1.
<scales pt_clust_5="13000.00000" pt_clust_6="13000.00000" pt_clust_7="13000.00000" pt_clust_8="13000.00000" pt_clust_9="32.68428"></scales>
<clustering>
<clus scale="   32.684">  2  9  1 -1</clus>
<clus scale="   89.297">  7  8 -1 -1</clus>
<clus scale="   91.545">  5  6 -1 -1</clus>
<clus scale="  100.985">  1  7  2 -1</clus>
<clus scale="   32.684">  2  5  1 -1</clus>
</clustering>
</event>
<event>
 9    1  0.1321469E-005  0.1705027E+03  0.7546771E-02  0.1178572E+00
          1   -1    0    0  502    0 -0.00000000000E+00  0.00000000000E+00  0.81554667423E+03  0.81554667423E+03  0.00000000000E+00 0. -1.
         21   -1    0    0  501  502  0.00000000000E+00 -0.00000000000E+00 -0.10393962449E+03  0.10393962449E+03  0.00000000000E+00 0. -1.
         23    2    1    2    0    0  0.42305859554E+02  0.13692479373E+03  0.60742914455E+03  0.63061130525E+03  0.90345269794E+02 0.  0.
         23    2    1    2    0    0  0.13141423350E+02 -0.13246485301E+03  0.14472339880E+03  0.22004019628E+03  0.98758247909E+02 0.  0.
        -11    1    3    3    0    0 -0.23494773712E+02  0.30582744717E+02  0.22425841590E+03  0.22755031481E+03  0.00000000000E+00 0.  1.
         11    1    3    3    0    0  0.65800633266E+02  0.10634204901E+03  0.38317072864E+03  0.40306099044E+03  0.00000000000E+00 0. -1.
        -11    1    4    4    0    0  0.14888620058E+02 -0.22132408785E+02  0.95603589060E+02  0.99255028926E+02  0.00000000000E+00 0. -1.
         11    1    4    4    0    0 -0.17471967084E+01 -0.11033244423E+03  0.49119809740E+02  0.12078516736E+03  0.00000000000E+00 0.  1.
          1    1    1    2  501    0 -0.55447282904E+02 -0.44599407157E+01 -0.40545493606E+02  0.68834797191E+02  0.00000000000E+00 0. -1.
<scales pt_clust_5="13000.00000" pt_clust_6="13000.00000" pt_clust_7="13000.00000" pt_clust_8="13000.00000" pt_clust_9="55.62636"></scales>
<clustering>
<clus scale="   55.626">  2  9  1 -1</clus>
<clus scale="   90.345">  5  6 -1 -1</clus>
<clus scale="   98.758">  7  8 -1 -1</clus>
<clus scale="  165.772">  1  5  2 -1</clus>
<clus scale="   55.626">  2  5  1 -1</clus>
</clustering>
</event>
<event>
 9    1  0.1321469E-005  0.2792342E+03  0.7546771E-02  0.1096112E+00
          1   -1    0    0  502    0 -0.00000000000E+00  0.00000000000E+00  0.19441872511E+04  0.19441872511E+04  0.00000000000E+00 0. -1.
         21   -1    0    0  501  502  0.00000000000E+00 -0.00000000000E+00 -0.74554515928E+02  0.74554515928E+02  0.00000000000E+00 0. -1.
         23    2    1    2    0    0  0.26223837991E+03  0.10841847953E+02  0.88220162091E+03  0.92472007739E+03  0.89112333757E+02 0.  0.
         23    2    1    2    0    0 -0.25341326539E+03 -0.10892235093E+03  0.94194933276E+03  0.98554929610E+03  0.89199259786E+02 0.  0.
        -11    1    3    3    0    0  0.34219694675E+02 -0.26960494502E+02  0.19073817322E+03  0.19564995909E+03  0.00000000000E+00 0.  1.
         11    1    3    3    0    0  0.22801868523E+03  0.37802342455E+02  0.69146344768E+03  0.72907011830E+03  0.00000000000E+00 0. -1.
        -13    1    4    4    0    0 -0.11407459450E+03 -0.24410627979E+02  0.27005882438E+03  0.29417794018E+03  0.00000000000E+00 0.  1.
         13    1    4    4    0    0 -0.13933867089E+03 -0.84511722950E+02  0.67189050838E+03  0.69137135591E+03  0.00000000000E+00 0. -1.
          1    1    1    2  501    0 -0.88251145183E+01  0.98080502976E+02  0.45481781492E+02  0.10847239353E+03  0.00000000000E+00 0. -1.
<scales pt_clust_5="13000.00000" pt_clust_6="13000.00000" pt_clust_7="13000.00000" pt_clust_8="13000.00000" pt_clust_9="98.47674"></scales>
<clustering>
<clus scale="   89.112">  5  6 -1 -1</clus>
<clus scale="   89.199">  7  8 -1 -1</clus>
<clus scale="   98.477">  2  9  1 -1</clus>
<clus scale="  279.206">  1  5  2 -1</clus>
<clus scale="   98.477">  2  5  1 -1</clus>
</clustering>
</event>
<event>
 9    1  0.1321469E-005  0.9169114E+02  0.7546771E-02  0.1299622E+00
         21   -1    0    0  501  502  0.00000000000E+00  0.00000000000E+00  0.32698777802E+03  0.32698777802E+03  0.00000000000E+00 0.  1.
          1   -1    0    0  502    0 -0.00000000000E+00 -0.00000000000E+00 -0.62265202403E+02  0.62265202403E+02  0.00000000000E+00 0. -1.
         23    2    1    2    0    0  0.23103002824E+02 -0.17538817932E+02  0.29340330454E+02  0.98344779365E+02  0.89271953957E+02 0.  0.
         23    2    1    2    0    0 -0.68977798607E+00 -0.23321958487E+02  0.64236099312E+02  0.11353018963E+03  0.90655600832E+02 0.  0.
        -11    1    4    4    0    0  0.28780452298E+02  0.14623569456E+02 -0.12533607517E+01  0.32306874365E+02  0.00000000000E+00 0.  1.
         11    1    4    4    0    0 -0.29470230284E+02 -0.37945527943E+02  0.65489460064E+02  0.81223315269E+02  0.00000000000E+00 0. -1.
        -11    1    3    3    0    0  0.32486307077E+02 -0.47392069156E+02  0.33913024896E+02  0.66719274756E+02  0.00000000000E+00 0.  1.
         11    1    3    3    0    0 -0.93833042535E+01  0.29853251223E+02 -0.45726944416E+01  0.31625504609E+02  0.00000000000E+00 0. -1.
          1    1    1    2  501    0 -0.22413224838E+02  0.40860776420E+02  0.17114614586E+03  0.17737801143E+03  0.00000000000E+00 0. -1.
<scales pt_clust_5="13000.00000" pt_clust_6="13000.00000" pt_clust_7="13000.00000" pt_clust_8="13000.00000" pt_clust_9="46.60425"></scales>
<clustering>
<clus scale="   46.604">  1  9  2 -1</clus>
<clus scale="   89.272">  7  8 -1 -1</clus>
<clus scale="   90.323">  2  7  1 -1</clus>
<clus scale="   90.656">  5  6 -1 -1</clus>
<clus scale="   46.604">  1  5  2 -1</clus>
</clustering>
</event>
<event>
 9    1  0.1321469E-005  0.1282284E+03  0.7546771E-02  0.1237532E+00
          2   -1    0    0  502    0 -0.00000000000E+00  0.00000000000E+00  0.21377925684E+03  0.21377925684E+03  0.00000000000E+00 0. -1.
         21   -1    0    0  501  502  0.00000000000E+00 -0.00000000000E+00 -0.13895966375E+03  0.13895966375E+03  0.00000000000E+00 0.  1.
         23    2    1    2    0    0 -0.25850052714E+02  0.53698826109E+02 -0.59373038261E+01  0.11027061971E+03  0.92588167943E+02 0.  0.
         23    2    1    2    0    0 -0.72562512813E+02 -0.28152724568E+00  0.56549363247E+02  0.12790632832E+03  0.88863945547E+02 0.  0.
        -13    1    3    3    0    0 -0.63605699854E+01  0.43621836169E+02  0.39896321009E+02  0.59456184466E+02  0.00000000000E+00 0. -1.
         13    1    3    3    0    0 -0.19489482729E+02  0.10076989940E+02 -0.45833624835E+02  0.50814435240E+02  0.00000000000E+00 0.  1.
        -13    1    4    4    0    0 -0.88944003006E+02  0.12938541183E+02  0.31624078483E+02  0.95281288082E+02  0.00000000000E+00 0.  1.
         13    1    4    4    0    0  0.16381490193E+02 -0.13220068429E+02  0.24925284763E+02  0.32625040241E+02  0.00000000000E+00 0. -1.
          2    1    1    2  501    0  0.98412565527E+02 -0.53417298863E+02  0.24207533664E+02  0.11456197256E+03  0.00000000000E+00 0. -1.
<scales pt_clust_5="13000.00000" pt_clust_6="13000.00000" pt_clust_7="13000.00000" pt_clust_8="13000.00000" pt_clust_9="92.44308"></scales>
<clustering>
<clus scale="   88.864">  7  8 -1 -1</clus>
<clus scale="   92.588">  5  6 -1 -1</clus>
<clus scale="  110.111">  1  5  2 -1</clus>
<clus scale="   92.443">  2  9  1 -1</clus>
<clus scale="   92.443">  2  5  1 -1</clus>
</clustering>
</event>
<event>
 9    1  0.1321469E-005  0.1202503E+03  0.7546771E-02  0.1249249E+00
         -1   -1    0    0    0  501 -0.00000000000E+00  0.00000000000E+00  0.32289414268E+03  0.32289414268E+03  0.00000000000E+00 0.  1.
         21   -1    0    0  501  502  0.00000000000E+00 -0.00000000000E+00 -0.58400902503E+02  0.58400902503E+02  0.00000000000E+00 0. -1.
         23    2    1    2    0    0 -0.45177861790E+02 -0.49199790852E+02  0.17963383633E+03  0.21145990903E+03  0.89360614119E+02 0.  0.
         23    2    1    2    0    0  0.23025909950E+02  0.22476445661E+02  0.55256522179E+02  0.12421521998E+03  0.10649297861E+03 0.  0.
        -11    1    3    3    0    0 -0.30708898248E+02 -0.11370435962E+02  0.16527522298E+03  0.16848804876E+03  0.00000000000E+00 0.  1.
         11    1    3    3    0    0 -0.14468963542E+02 -0.37829354891E+02  0.14358613356E+02  0.42971860268E+02  0.00000000000E+00 0. -1.
        -13    1    4    4    0    0 -0.27736439748E+02 -0.51663496726E+01 -0.16022544066E+02  0.32445695819E+02  0.00000000000E+00 0.  1.
         13    1    4    4    0    0  0.50762349698E+02  0.27642795334E+02  0.71279066245E+02  0.91769524165E+02  0.00000000000E+00 0. -1.
         -1    1    1    2    0  502  0.22151951840E+02  0.26723345191E+02  0.29602881671E+02  0.45619916174E+02  0.00000000000E+00 0.  1.
<scales pt_clust_5="13000.00000" pt_clust_6="13000.00000" pt_clust_7="13000.00000" pt_clust_8="13000.00000" pt_clust_9="34.71089"></scales>
<clustering>
<clus scale="   34.711">  2  9  1 -1</clus>
<clus scale="   89.361">  5  6 -1 -1</clus>
<clus scale="  105.379">  1  5  2 -1</clus>
<clus scale="  106.493">  7  8 -1 -1</clus>
<clus scale="   34.711">  2  5  1 -1</clus>
</clustering>
</event>
<event>
 9    1  0.1321469E-005  0.1080421E+03  0.7546771E-02  0.1264504E+00
          1   -1    0    0  502    0 -0.00000000000E+00  0.00000000000E+00  0.78315025574E+03  0.78315025574E+03  0.00000000000E+00 0. -1.
         21   -1    0    0  501  502  0.00000000000E+00 -0.00000000000E+00 -0.28375988511E+02  0.28375988511E+02  0.00000000000E+00 0. -1.
         23    2    1    2    0    0  0.43378364618E+02  0.37900657392E+02  0.48522639420E+03  0.49718871475E+03  0.91835843171E+02 0.  0.
         23    2    1    2    0    0 -0.25637188613E+02 -0.52773534083E+02  0.27023642797E+03  0.29117665959E+03  0.91180089654E+02 0.  0.
        -13    1    4    4    0    0  0.36214201708E+01 -0.71710791115E+02  0.20505070400E+03  0.21725870168E+03  0.00000000000E+00 0.  1.
         13    1    4    4    0    0 -0.29258608784E+02  0.18937257032E+02  0.65185723978E+02  0.73917957916E+02  0.00000000000E+00 0. -1.
        -13    1    3    3    0    0  0.34114507218E+02 -0.26383689413E+02  0.21295451994E+03  0.21727753274E+03  0.00000000000E+00 0.  1.
         13    1    3    3    0    0  0.92638573998E+01  0.64284346804E+02  0.27227187426E+03  0.27991118200E+03  0.00000000000E+00 0. -1.
          1    1    1    2  501    0 -0.17741176005E+02  0.14872876691E+02 -0.68855494892E+00  0.23160869911E+02  0.00000000000E+00 0. -1.
<scales pt_clust_5="13000.00000" pt_clust_6="13000.00000" pt_clust_7="13000.00000" pt_clust_8="13000.00000" pt_clust_9="23.15063"></scales>
<clustering>
<clus scale="   23.151">  2  9  1 -1</clus>
<clus scale="   91.180">  5  6 -1 -1</clus>
<clus scale="   91.836">  7  8 -1 -1</clus>
<clus scale="  107.485">  2  5  1 -1</clus>
<clus scale="   23.151">  2  5  1 -1</clus>
</clustering>
</event>
<event>
 9    1  0.1321469E-005  0.2679483E+03  0.7546771E-02  0.1103020E+00
         -3   -1    0    0    0  501 -0.00000000000E+00  0.00000000000E+00  0.15217192704E+03  0.15217192704E+03  0.00000000000E+00 0.  1.
         21   -1    0    0  501  502  0.00000000000E+00 -0.00000000000E+00 -0.57105488015E+03  0.57105488015E+03  0.00000000000E+00 0.  1.
         23    2    1    2    0    0  0.11318226793E+02  0.25799791802E+03 -0.89456594281E+02  0.28689493116E+03  0.87265063488E+02 0.  0.
         23    2    1    2    0    0 -0.22972056433E+02 -0.23310928242E+03 -0.26920901745E+03  0.37013985135E+03  0.98297312046E+02 0.  0.
        -13    1    3    3    0    0  0.44143467027E+01  0.21854393647E+03 -0.38291777878E+02  0.22191709911E+03  0.00000000000E+00 0.  1.
         13    1    3    3    0    0  0.69038800904E+01  0.39453981548E+02 -0.51164816403E+02  0.64977832050E+02  0.00000000000E+00 0. -1.
        -13    1    4    4    0    0  0.36472860532E+02 -0.52855569792E+02 -0.69218132552E+02  0.94419969749E+02  0.00000000000E+00 0.  1.
         13    1    4    4    0    0 -0.59444916965E+02 -0.18025371263E+03 -0.19999088490E+03  0.27571988161E+03  0.00000000000E+00 0. -1.
         -3    1    1    2    0  502  0.11653829640E+02 -0.24888635598E+02 -0.60217341378E+02  0.66192024670E+02  0.00000000000E+00 0.  1.
<scales pt_clust_5="13000.00000" pt_clust_6="13000.00000" pt_clust_7="13000.00000" pt_clust_8="13000.00000" pt_clust_9="27.48192"></scales>
<clustering>
<clus scale="   27.482">  2  9  1 -1</clus>
<clus scale="   87.265">  5  6 -1 -1</clus>
<clus scale="   98.297">  7  8 -1 -1</clus>
<clus scale="  264.101">  1  5  2 -1</clus>
<clus scale="   27.482">  2  5  1 -1</clus>
</clustering>
</event>
<event>
 9    1  0.1321469E-005  0.1155474E+03  0.7546771E-02  0.1260446E+00
         21   -1    0    0  501  502  0.00000000000E+00  0.00000000000E+00  0.31902143694E+03  0.31902143694E+03  0.00000000000E+00 0.  1.
         -1   -1    0    0    0  501 -0.00000000000E+00 -0.00000000000E+00 -0.37477697988E+03  0.37477697988E+03  0.00000000000E+00 0.  1.
         23    2    1    2    0    0  0.16123930613E+02  0.46227783508E+02 -0.15951140048E+03  0.18006020767E+03  0.67681625271E+02 0.  0.
         23    2    1    2    0    0 -0.24441454914E+02 -0.11282342125E+03 -0.17336216771E+03  0.22860918556E+03  0.94240168858E+02 0.  0.
        -11    1    3    3    0    0  0.34905669619E+02  0.14938946450E+01 -0.62945059963E+02  0.71991097133E+02  0.00000000000E+00 0.  1.
         11    1    3    3    0    0 -0.18781739006E+02  0.44733888863E+02 -0.96566340514E+02  0.10806911054E+03  0.00000000000E+00 0. -1.
        -13    1    4    4    0    0 -0.41824365524E+02 -0.77795863452E+02 -0.16709953267E+03  0.18900721611E+03  0.00000000000E+00 0.  1.
         13    1    4    4    0    0  0.17382910610E+02 -0.35027557801E+02 -0.62626350409E+01  0.39601969451E+02  0.00000000000E+00 0. -1.
         -1    1    1    2    0  502  0.83175243015E+01  0.66595637745E+02  0.27711802525E+03  0.28512902359E+03  0.00000000000E+00 0.  1.
<scales pt_clust_5="13000.00000" pt_clust_6="13000.00000" pt_clust_7="13000.00000" pt_clust_8="13000.00000" pt_clust_9="67.11304"></scales>
<clustering>
<clus scale="   67.113">  1  9  2 -1</clus>
<clus scale="   67.682">  5  6 -1 -1</clus>
<clus scale="   94.240">  7  8 -1 -1</clus>
<clus scale="   95.136">  2  5  1 -1</clus>
<clus scale="   67.113">  1  5  2 -1</clus>
</clustering>
</event>
<event>
 9    1  0.1321469E-005  0.9589168E+02  0.7546771E-02  0.1290859E+00
         21   -1    0    0  501  502  0.00000000000E+00  0.00000000000E+00  0.29603230638E+02  0.29603230638E+02  0.00000000000E+00 0.  1.
          1   -1    0    0  502    0 -0.00000000000E+00 -0.00000000000E+00 -0.55295138441E+03  0.55295138441E+03  0.00000000000E+00 0. -1.
         23    2    1    2    0    0 -0.88205659274E+01 -0.29494386459E+02 -0.30212626118E+03  0.31692143379E+03  0.90615651410E+02 0.  0.
         23    2    1    2    0    0 -0.21993276637E+02  0.65051123267E+01 -0.19924359451E+03  0.22134949120E+03  0.93656642037E+02 0.  0.
        -11    1    3    3    0    0  0.12724081389E+02 -0.52769766433E+02 -0.11550486508E+03  0.12762415270E+03  0.00000000000E+00 0. -1.
         11    1    3    3    0    0 -0.21544647317E+02  0.23275379974E+02 -0.18662139611E+03  0.18929728108E+03  0.00000000000E+00 0.  1.
        -11    1    4    4    0    0 -0.57762948149E+02  0.91446719915E+01 -0.10028629673E+03  0.11609274101E+03  0.00000000000E+00 0.  1.
         11    1    4    4    0    0  0.35769671513E+02 -0.26395596648E+01 -0.98957297786E+02  0.10525675019E+03  0.00000000000E+00 0. -1.
          1    1    1    2  501    0  0.30813842564E+02  0.22989274133E+02 -0.21978298068E+02  0.44283690053E+02  0.00000000000E+00 0. -1.
<scales pt_clust_5="13000.00000" pt_clust_6="13000.00000" pt_clust_7="13000.00000" pt_clust_8="13000.00000" pt_clust_9="38.44476"></scales>
<clustering>
<clus scale="   38.445">  1  9  2 -1</clus>
<clus scale="   90.616">  5  6 -1 -1</clus>
<clus scale="   92.924">  2  5  1 -1</clus>
<clus scale="   93.657">  7  8 -1 -1</clus>
<clus scale="   38.445">  1  5  2 -1</clus>
</clustering>
</event>
<event>
 9    1  0.1321469E-005  0.1003606E+03  0.7546771E-02  0.1280801E+00
          2   -1    0    0  502    0 -0.00000000000E+00  0.00000000000E+00  0.43093487015E+03  0.43093487015E+03  0.00000000000E+00 0. -1.
         21   -1    0    0  501  502  0.00000000000E+00 -0.00000000000E+00 -0.40259043474E+02  0.40259043474E+02  0.00000000000E+00 0.  1.
         23    2    1    2    0    0  0.26505231044E+02 -0.41397951878E+01  0.16574170139E+03  0.18974473628E+03  0.88391674884E+02 0.  0.
         23    2    1    2    0    0 -0.61004828660E+02  0.40229595391E+02  0.13400304037E+03  0.17771317531E+03  0.91022790473E+02 0.  0.
        -11    1    3    3    0    0 -0.12553761292E+02 -0.18231903128E+02  0.36696905033E+01  0.22438044537E+02  0.00000000000E+00 0. -1.
         11    1    3    3    0    0  0.39058992337E+02  0.14092107940E+02  0.16207201089E+03  0.16730669174E+03  0.00000000000E+00 0.  1.
        -11    1    4    4    0    0 -0.73515030181E+02  0.23887630975E+02  0.13661508708E+03  0.15696738704E+03  0.00000000000E+00 0.  1.
         11    1    4    4    0    0  0.12510201521E+02  0.16341964416E+02 -0.26120467079E+01  0.20745788273E+02  0.00000000000E+00 0. -1.
          2    1    1    2  501    0  0.34499597616E+02 -0.36089800203E+02  0.90931084915E+02  0.10373600203E+03  0.00000000000E+00 0. -1.
<scales pt_clust_5="13000.00000" pt_clust_6="13000.00000" pt_clust_7="13000.00000" pt_clust_8="13000.00000" pt_clust_9="49.92693"></scales>
<clustering>
<clus scale="   49.927">  2  9  1 -1</clus>
<clus scale="   88.392">  5  6 -1 -1</clus>
<clus scale="   91.023">  7  8 -1 -1</clus>
<clus scale="   97.981">  1  5  2 -1</clus>
<clus scale="   49.927">  2  5  1 -1</clus>
</clustering>
</event>
<event>
 9    1  0.1321469E-005  0.1357696E+03  0.7546771E-02  0.1219948E+00
          2   -1    0    0  502    0 -0.00000000000E+00  0.00000000000E+00  0.88087792282E+03  0.88087792282E+03  0.00000000000E+00 0. -1.
         21   -1    0    0  501  502  0.00000000000E+00 -0.00000000000E+00 -0.50648249434E+02  0.50648249434E+02  0.00000000000E+00 0. -1.
         23    2    1    2    0    0  0.10597259525E+03 -0.70132519969E-01  0.68847998626E+03  0.70292409347E+03  0.94166840439E+02 0.  0.
         23    2    1    2    0    0 -0.66103514189E+02 -0.41770964478E+02  0.10990080601E+03  0.16261289595E+03  0.90831044831E+02 0.  0.
        -13    1    3    3    0    0  0.11605507776E+03 -0.21548589322E+02  0.57357209968E+03  0.58559207329E+03  0.00000000000E+00 0. -1.
         13    1    3    3    0    0 -0.10082482506E+02  0.21478456802E+02  0.11490788659E+03  0.11733202018E+03  0.00000000000E+00 0.  1.
        -13    1    4    4    0    0  0.79020115126E+01 -0.39128036372E+02  0.15951063698E+02  0.42986991630E+02  0.00000000000E+00 0. -1.
         13    1    4    4    0    0 -0.74005525702E+02 -0.26429281065E+01  0.93949742309E+02  0.11962590432E+03  0.00000000000E+00 0.  1.
          2    1    1    2  501    0 -0.39869081065E+02  0.41841096998E+02  0.31848881120E+02  0.65989182838E+02  0.00000000000E+00 0. -1.
<scales pt_clust_5="13000.00000" pt_clust_6="13000.00000" pt_clust_7="13000.00000" pt_clust_8="13000.00000" pt_clust_9="57.79465"></scales>
<clustering>
<clus scale="   57.795">  2  9  1 -1</clus>
<clus scale="   90.831">  7  8 -1 -1</clus>
<clus scale="   94.167">  5  6 -1 -1</clus>
<clus scale="  133.478">  2  7  1 -1</clus>
<clus scale="   57.795">  2  5  1 -1</clus>
</clustering>
</event>
<event>
 9    1  0.1321469E-005  0.1031791E+03  0.7546771E-02  0.1275165E+00
         21   -1    0    0  501  502  0.00000000000E+00  0.00000000000E+00  0.40436163199E+03  0.40436163199E+03  0.00000000000E+00 0. -1.
         -3   -1    0    0    0  501 -0.00000000000E+00 -0.00000000000E+00 -0.37646236468E+02  0.37646236468E+02  0.00000000000E+00 0.  1.
         23    2    1    2    0    0 -0.17343725508E+02  0.41048884764E+02  0.91958291506E+02  0.13806297676E+03  0.92839875164E+02 0.  0.
         23    2    1    2    0    0  0.21653937003E+02 -0.20523522822E+02  0.17260684261E+03  0.19966380851E+03  0.95824873260E+02 0.  0.
        -13    1    3    3    0    0 -0.52376358552E+02  0.65766453625E+01  0.37787582951E+02  0.64918692413E+02  0.00000000000E+00 0. -1.
         13    1    3    3    0    0  0.35032633044E+02  0.34472239401E+02  0.54170708555E+02  0.73144284347E+02  0.00000000000E+00 0.  1.
        -13    1    4    4    0    0  0.80864236328E+01 -0.56162260593E+02  0.13342127080E+03  0.14498560365E+03  0.00000000000E+00 0. -1.
         13    1    4    4    0    0  0.13567513370E+02  0.35638737771E+02  0.39185571805E+02  0.54678204859E+02  0.00000000000E+00 0.  1.
         -3    1    1    2    0  502 -0.43102114951E+01 -0.20525361941E+02  0.10215026141E+03  0.10428108319E+03  0.00000000000E+00 0.  1.
<scales pt_clust_5="13000.00000" pt_clust_6="13000.00000" pt_clust_7="13000.00000" pt_clust_8="13000.00000" pt_clust_9="20.97304"></scales>
<clustering>
<clus scale="   20.973">  1  9  2 -1</clus>
<clus scale="   92.840">  5  6 -1 -1</clus>
<clus scale="   95.825">  7  8 -1 -1</clus>
<clus scale="  100.413">  2  5  1 -1</clus>
<clus scale="   20.973">  1  5  2 -1</clus>
</clustering>
</event>
<event>
 9    1  0.1321469E-005  0.1185782E+03  0.7546771E-02  0.1246067E+00
          1   -1    0    0  502    0 -0.00000000000E+00  0.00000000000E+00  0.17519434888E+03  0.17519434888E+03  0.00000000000E+00 0. -1.
         21   -1    0    0  501  502  0.00000000000E+00 -0.00000000000E+00 -0.10855778060E+03  0.10855778060E+03  0.00000000000E+00 0. -1.
         23    2    1    2    0    0  0.48443698857E+02  0.69619955271E+02  0.67267611533E+02  0.14319225049E+03  0.93730245432E+02 0.  0.
         23    2    1    2    0    0 -0.42180890135E+02 -0.37575179720E+02  0.68721925462E+00  0.10788223787E+03  0.91907471695E+02 0.  0.
        -11    1    3    3    0    0  0.28120259673E+02 -0.14684604909E+02 -0.25985727377E+01  0.31829847717E+02  0.00000000000E+00 0.  1.
         11    1    3    3    0    0  0.20323439184E+02  0.84304560179E+02  0.69866184270E+02  0.11136240277E+03  0.00000000000E+00 0. -1.
        -13    1    4    4    0    0  0.15551164107E+02  0.20138026778E+02 -0.54462938897E+01  0.26020010468E+02  0.00000000000E+00 0. -1.
         13    1    4    4    0    0 -0.57732054242E+02 -0.57713206498E+02  0.61335131443E+01  0.81862227400E+02  0.00000000000E+00 0.  1.
          1    1    1    2  501    0 -0.62628087219E+01 -0.32044775550E+02 -0.13182625163E+01  0.32677641121E+02  0.00000000000E+00 0. -1.
<scales pt_clust_5="13000.00000" pt_clust_6="13000.00000" pt_clust_7="13000.00000" pt_clust_8="13000.00000" pt_clust_9="32.65104"></scales>
<clustering>
<clus scale="   32.651">  2  9  1 -1</clus>
<clus scale="   91.907">  7  8 -1 -1</clus>
<clus scale="   93.730">  5  6 -1 -1</clus>
<clus scale="  117.143">  2  7  1 -1</clus>
<clus scale="   32.651">  2  5  1 -1</clus>
</clustering>
</event>
<event>
 9    1  0.1321469E-005  0.9545571E+02  0.7546771E-02  0.1291182E+00
         21   -1    0    0  501  502  0.00000000000E+00  0.00000000000E+00  0.77325922722E+02  0.77325922722E+02  0.00000000000E+00 0.  1.
         -1   -1    0    0    0  501 -0.00000000000E+00 -0.00000000000E+00 -0.32308885080E+03  0.32308885080E+03  0.00000000000E+00 0.  1.
         23    2    1    2    0    0 -0.19101101913E+02  0.22783111437E+02 -0.25513440244E+03  0.27207316521E+03  0.89701291267E+02 0.  0.
         23    2    1    2    0    0  0.21839000702E+02  0.31760806669E+01 -0.11500716717E+02  0.94919697758E+02  0.91599416469E+02 0.  0.
        -11    1    4    4    0    0  0.24123918635E+02  0.40347779254E+02 -0.27415555949E+02  0.54419844257E+02  0.00000000000E+00 0.  1.
         11    1    4    4    0    0 -0.22849179335E+01 -0.37171698587E+02  0.15914839232E+02  0.40499853501E+02  0.00000000000E+00 0. -1.
        -13    1    3    3    0    0 -0.27690624507E+02  0.53787900243E+02 -0.13964416956E+03  0.15218542306E+03  0.00000000000E+00 0.  1.
         13    1    3    3    0    0  0.85895225934E+01 -0.31004788806E+02 -0.11549023288E+03  0.11988774215E+03  0.00000000000E+00 0. -1.
         -1    1    1    2    0  502 -0.27378987883E+01 -0.25959192104E+02  0.20872191084E+02  0.33421910554E+02  0.00000000000E+00 0.  1.
<scales pt_clust_5="13000.00000" pt_clust_6="13000.00000" pt_clust_7="13000.00000" pt_clust_8="13000.00000" pt_clust_9="26.10317"></scales>
<clustering>
<clus scale="   26.103">  1  9  2 -1</clus>
<clus scale="   89.701">  7  8 -1 -1</clus>
<clus scale="   91.599">  5  6 -1 -1</clus>
<clus scale="   93.636">  2  7  1 -1</clus>
<clus scale="   26.103">  1  5  2 -1</clus>
</clustering>
</event>
<event>
 9    1  0.1321469E-005  0.9723821E+02  0.7546771E-02  0.1287294E+00
          2   -1    0    0  502    0 -0.00000000000E+00  0.00000000000E+00  0.16958189818E+03  0.16958189818E+03  0.00000000000E+00 0. -1.
         21   -1    0    0  501  502  0.00000000000E+00 -0.00000000000E+00 -0.51008707824E+03  0.51008707824E+03  0.00000000000E+00 0. -1.
         23    2    1    2    0    0  0.26365431173E+02  0.51433566991E+01  0.14252505583E+03  0.17227603704E+03  0.92973390382E+02 0.  0.
         23    2    1    2    0    0 -0.56616665719E+02 -0.30094465103E+02 -0.29419705210E+03  0.31453115909E+03  0.90922059512E+02 0.  0.
        -11    1    4    4    0    0 -0.78854843890E+02 -0.14600444895E+02 -0.17826377673E+03  0.19547182275E+03  0.00000000000E+00 0. -1.
         11    1    4    4    0    0  0.22238178171E+02 -0.15494020208E+02 -0.11593327538E+03  0.11905933634E+03  0.00000000000E+00 0.  1.
        -11    1    3    3    0    0 -0.10907367282E+02 -0.33644883462E+02  0.25885647466E+02  0.43829391839E+02  0.00000000000E+00 0.  1.
         11    1    3    3    0    0  0.37272798456E+02  0.38788240161E+02  0.11663940836E+03  0.12844664520E+03  0.00000000000E+00 0. -1.
          2    1    1    2  501    0  0.30251234546E+02  0.24951108404E+02 -0.18883318378E+03  0.19286178030E+03  0.00000000000E+00 0. -1.
<scales pt_clust_5="13000.00000" pt_clust_6="13000.00000" pt_clust_7="13000.00000" pt_clust_8="13000.00000" pt_clust_9="39.21345"></scales>
<clustering>
<clus scale="   39.213">  2  9  1 -1</clus>
<clus scale="   90.922">  5  6 -1 -1</clus>
<clus scale="   92.973">  7  8 -1 -1</clus>
<clus scale="   95.279">  2  5  1 -1</clus>
<clus scale="   39.213">  2  5  1 -1</clus>
</clustering>
</event>
<event>
 9    1  0.1321469E-005  0.1436960E+03  0.7546771E-02  0.1208700E+00
         21   -1    0    0  501  502  0.00000000000E+00  0.00000000000E+00  0.29460154322E+03  0.29460154322E+03  0.00000000000E+00 0.  1.
          2   -1    0    0  502    0 -0.00000000000E+00 -0.00000000000E+00 -0.24021322437E+03  0.24021322437E+03  0.00000000000E+00 0. -1.
         23    2    1    2    0    0  0.22729263515E+02  0.10544410392E+03 -0.11869028920E+03  0.18519996737E+03  0.92609744049E+02 0.  0.
         23    2    1    2    0    0 -0.97501262044E+02 -0.88174213003E+02 -0.21082381553E+00  0.16009348718E+03  0.91371178457E+02 0.  0.
        -11    1    3    3    0    0 -0.19652956915E+02  0.95991800515E+02 -0.73161198460E+02  0.12228338171E+03  0.00000000000E+00 0.  1.
         11    1    3    3    0    0  0.42382220430E+02  0.94523034061E+01 -0.45529090742E+02  0.62916585667E+02  0.00000000000E+00 0. -1.
        -11    1    4    4    0    0 -0.11253246325E+03 -0.62727570843E+02  0.89688019925E+01  0.12914620722E+03  0.00000000000E+00 0.  1.
         11    1    4    4    0    0  0.15031201211E+02 -0.25446642160E+02 -0.91796258081E+01  0.30947279962E+02  0.00000000000E+00 0. -1.
          2    1    1    2  501    0  0.74771998529E+02 -0.17269890918E+02  0.17328943187E+03  0.18952131304E+03  0.00000000000E+00 0. -1.
<scales pt_clust_5="13000.00000" pt_clust_6="13000.00000" pt_clust_7="13000.00000" pt_clust_8="13000.00000" pt_clust_9="76.74048"></scales>
<clustering>
<clus scale="   76.740">  1  9  2 -1</clus>
<clus scale="   91.371">  7  8 -1 -1</clus>
<clus scale="   92.610">  5  6 -1 -1</clus>
<clus scale="  142.901">  1  7  2 -1</clus>
<clus scale="   76.740">  1  5  2 -1</clus>
</clustering>
</event>
<event>
 9    1  0.1321469E-005  0.1823466E+03  0.7546771E-02  0.1191592E+00
          2   -1    0    0  502    0 -0.00000000000E+00  0.00000000000E+00  0.45699408677E+03  0.45699408677E+03  0.00000000000E+00 0. -1.
         21   -1    0    0  501  502  0.00000000000E+00 -0.00000000000E+00 -0.28989295736E+03  0.28989295736E+03  0.00000000000E+00 0.  1.
         23    2    1    2    0    0 -0.27090391349E+02  0.36102762456E+02  0.33944787603E+03  0.35426791843E+03  0.90794265953E+02 0.  0.
         23    2    1    2    0    0  0.45047096561E+02 -0.17835476336E+03 -0.74495401980E+02  0.21903064489E+03  0.92656332548E+02 0.  0.
        -13    1    4    4    0    0  0.59254598965E+02 -0.12336767384E+03 -0.16487470346E+02  0.13784965406E+03  0.00000000000E+00 0.  1.
         13    1    4    4    0    0 -0.14207502404E+02 -0.54987089522E+02 -0.58007931634E+02  0.81180990824E+02  0.00000000000E+00 0. -1.
        -13    1    3    3    0    0  0.30534924910E+02  0.20401014645E+02  0.79876814367E+02  0.87914097341E+02  0.00000000000E+00 0.  1.
         13    1    3    3    0    0 -0.57625316259E+02  0.15701747811E+02  0.25957106166E+03  0.26635382109E+03  0.00000000000E+00 0. -1.
          2    1    1    2  501    0 -0.17956705213E+02  0.14225200090E+03 -0.97851344636E+02  0.17358848081E+03  0.00000000000E+00 0. -1.
<scales pt_clust_5="13000.00000" pt_clust_6="13000.00000" pt_clust_7="13000.00000" pt_clust_8="13000.00000" pt_clust_9="157.05126"></scales>
<clustering>
<clus scale="   90.794">  7  8 -1 -1</clus>
<clus scale="   92.656">  5  6 -1 -1</clus>
<clus scale="  101.395">  1  7  2 -1</clus>
<clus scale="  157.051">  2  9  1 -1</clus>
<clus scale="  157.051">  2  5  1 -1</clus>
</clustering>
</event>
<event>
 9    1  0.1321469E-005  0.1765211E+03  0.7546771E-02  0.1171785E+00
          1   -1    0    0  502    0 -0.00000000000E+00  0.00000000000E+00  0.96862476726E+03  0.96862476726E+03  0.00000000000E+00 0. -1.
         21   -1    0    0  501  502  0.00000000000E+00 -0.00000000000E+00 -0.46267137665E+02  0.46267137665E+02  0.00000000000E+00 0. -1.
         23    2    1    2    0    0  0.10180448326E+03 -0.99014852328E+02  0.57707442790E+03  0.60122614453E+03  0.91048820679E+02 0.  0.
         23    2    1    2    0    0 -0.12960117884E+03  0.11251922001E+03  0.32187959025E+03  0.37490039878E+03  0.86526284776E+02 0.  0.
        -11    1    3    3    0    0 -0.11968078058E+02 -0.34343420578E+02  0.16096202521E+03  0.16501963213E+03  0.00000000000E+00 0.  1.
         11    1    3    3    0    0  0.11377256131E+03 -0.64671431750E+02  0.41611240269E+03  0.43620651240E+03  0.00000000000E+00 0. -1.
        -13    1    4    4    0    0 -0.57953501841E+02  0.60312766507E+02  0.24024225890E+03  0.25438667642E+03  0.00000000000E+00 0.  1.
         13    1    4    4    0    0 -0.71647676998E+02  0.52206453508E+02  0.81637331353E+02  0.12051372236E+03  0.00000000000E+00 0. -1.
          1    1    1    2  501    0  0.27796695583E+02 -0.13504367686E+02  0.23403611448E+02  0.38765361610E+02  0.00000000000E+00 0. -1.
<scales pt_clust_5="13000.00000" pt_clust_6="13000.00000" pt_clust_7="13000.00000" pt_clust_8="13000.00000" pt_clust_9="30.90347"></scales>
<clustering>
<clus scale="   30.903">  2  9  1 -1</clus>
<clus scale="   86.526">  7  8 -1 -1</clus>
<clus scale="   91.049">  5  6 -1 -1</clus>
<clus scale="  174.231">  2  7  1 -1</clus>
<clus scale="   30.903">  2  5  1 -1</clus>
</clustering>
</event>
<event>
 9    1  0.1321469E-005  0.1505144E+03  0.7546771E-02  0.1200426E+00
         21   -1    0    0  501  502  0.00000000000E+00  0.00000000000E+00  0.21160254794E+03  0.21160254794E+03  0.00000000000E+00 0.  1.
          2   -1    0    0  502    0 -0.00000000000E+00 -0.00000000000E+00 -0.16394110825E+03  0.16394110825E+03  0.00000000000E+00 0. -1.
         23    2    1    2    0    0  0.10081249226E+03 -0.79695918852E+02 -0.42028510503E+02  0.16266165293E+03  0.90431297454E+02 0.  0.
         23    2    1    2    0    0 -0.65844856607E+02  0.81028192292E+02  0.29464270948E+02  0.14322826728E+03  0.93515133530E+02 0.  0.
        -13    1    4    4    0    0 -0.33651635667E+02  0.68583970166E+02 -0.23573152848E+02  0.79949278183E+02  0.00000000000E+00 0.  1.
         13    1    4    4    0    0 -0.32193220941E+02  0.12444222127E+02  0.53037423796E+02  0.63278989102E+02  0.00000000000E+00 0. -1.
        -13    1    3    3    0    0  0.70652535102E+01 -0.19669758054E+02  0.25105701565E+02  0.32666702315E+02  0.00000000000E+00 0.  1.
         13    1    3    3    0    0  0.93747238754E+02 -0.60026160797E+02 -0.67134212068E+02  0.12999495061E+03  0.00000000000E+00 0. -1.
          2    1    1    2  501    0 -0.34967635657E+02 -0.13322734407E+01  0.60225679241E+02  0.69653735980E+02  0.00000000000E+00 0. -1.
<scales pt_clust_5="13000.00000" pt_clust_6="13000.00000" pt_clust_7="13000.00000" pt_clust_8="13000.00000" pt_clust_9="34.99301"></scales>
<clustering>
<clus scale="   34.993">  1  9  2 -1</clus>
<clus scale="   90.431">  7  8 -1 -1</clus>
<clus scale="   93.515">  5  6 -1 -1</clus>
<clus scale="  148.618">  2  7  1 -1</clus>
<clus scale="   34.993">  1  5  2 -1</clus>
</clustering>
</event>
<event>
 9    1  0.1481913E-005  0.1549604E+03  0.7546771E-02  0.1195304E+00
          1   -1    0    0  502    0 -0.00000000000E+00  0.00000000000E+00  0.48803784003E+03  0.48803784003E+03  0.00000000000E+00 0. -1.
         21   -1    0    0  501  502  0.00000000000E+00 -0.00000000000E+00 -0.40877740839E+03  0.40877740839E+03  0.00000000000E+00 0. -1.
         23    2    1    2    0    0 -0.12462848681E+03 -0.40778855966E+02  0.44330045278E+03  0.47124872628E+03  0.91459804102E+02 0.  0.
         23    2    1    2    0    0  0.52496804276E+02  0.56635450254E+02 -0.10642944083E+03  0.15757842110E+03  0.86834579732E+02 0.  0.
        -11    1    3    3    0    0 -0.55888368958E+02  0.17700873926E+02  0.26501572617E+03  0.27142248588E+03  0.00000000000E+00 0.  1.
         11    1    3    3    0    0 -0.68740117855E+02 -0.58479729891E+02  0.17828472661E+03  0.19982624040E+03  0.00000000000E+00 0. -1.
        -13    1    4    4    0    0  0.22985777603E+02 -0.79693637426E+01 -0.76903600158E+02  0.80659906074E+02  0.00000000000E+00 0.  1.
         13    1    4    4    0    0  0.29511026673E+02  0.64604813996E+02 -0.29525840668E+02  0.76918515027E+02  0.00000000000E+00 0. -1.
          1    1    1    2  501    0  0.72131682538E+02 -0.15856594288E+02 -0.25761058032E+03  0.26798810104E+03  0.00000000000E+00 0. -1.
<scales pt_clust_5="13000.00000" pt_clust_6="13000.00000" pt_clust_7="13000.00000" pt_clust_8="13000.00000" pt_clust_9="73.85399"></scales>
<clustering>
<clus scale="   73.854">  2  9  1 -1</clus>
<clus scale="   86.835">  7  8 -1 -1</clus>
<clus scale="   91.460">  5  6 -1 -1</clus>
<clus scale="  152.276">  2  7  1 -1</clus>
<clus scale="   73.854">  2  5  1 -1</clus>
</clustering>
</event>
<event>
 9    1  0.1321469E-005  0.9351017E+02  0.7546771E-02  0.1297317E+00
         -1   -1    0    0    0  501 -0.00000000000E+00  0.00000000000E+00  0.10662974070E+03  0.10662974070E+03  0.00000000000E+00 0.  1.
         21   -1    0    0  501  502  0.00000000000E+00 -0.00000000000E+00 -0.10668459987E+03  0.10668459987E+03  0.00000000000E+00 0. -1.
         23    2    1    2    0    0  0.20051693200E+02  0.18611827644E+02  0.20662496272E+02  0.97613784973E+02  0.91394976537E+02 0.  0.
         23    2    1    2    0    0 -0.14357033122E+02  0.15209653845E+01 -0.23463992911E+01  0.87857234343E+02  0.86631116240E+02 0.  0.
        -11    1    3    3    0    0 -0.14797826565E+02  0.39574411754E+02  0.34613821676E+02  0.54618919687E+02  0.00000000000E+00 0.  1.
         11    1    3    3    0    0  0.34849519765E+02 -0.20962584110E+02 -0.13951325404E+02  0.42994865286E+02  0.00000000000E+00 0. -1.
        -13    1    4    4    0    0 -0.49368616933E+02 -0.69426991995E+01 -0.10447717809E+02  0.50937375448E+02  0.00000000000E+00 0.  1.
         13    1    4    4    0    0  0.35011583811E+02  0.84636645839E+01  0.81013185181E+01  0.36919858895E+02  0.00000000000E+00 0. -1.
         -1    1    1    2    0  502 -0.56946600774E+01 -0.20132793028E+02 -0.18370956155E+02  0.27843321256E+02  0.00000000000E+00 0.  1.
<scales pt_clust_5="13000.00000" pt_clust_6="13000.00000" pt_clust_7="13000.00000" pt_clust_8="13000.00000" pt_clust_9="20.92268"></scales>
<clustering>
<clus scale="   20.923">  2  9  1 -1</clus>
<clus scale="   86.631">  7  8 -1 -1</clus>
<clus scale="   88.860">  2  7  1 -1</clus>
<clus scale="   91.395">  5  6 -1 -1</clus>
<clus scale="   20.923">  2  5  1 -1</clus>
</clustering>
</event>
<event>
 9    1  0.1321469E-005  0.1262579E+03  0.7546771E-02  0.1235653E+00
         21   -1    0    0  501  502  0.00000000000E+00  0.00000000000E+00  0.11753663825E+03  0.11753663825E+03  0.00000000000E+00 0.  1.
          2   -1    0    0  502    0 -0.00000000000E+00 -0.00000000000E+00 -0.44173340546E+03  0.44173340546E+03  0.00000000000E+00 0. -1.
         23    2    1    2    0    0  0.29912670636E+02 -0.67088349589E+02 -0.34315583498E+03  0.36273083519E+03  0.91772093815E+02 0.  0.
         23    2    1    2    0    0 -0.28140961829E+02  0.10892862561E+03  0.29454276743E+02  0.15336633438E+03  0.99981592776E+02 0.  0.
        -11    1    3    3    0    0  0.58440344208E+02 -0.65109234970E+02 -0.23178721224E+03  0.24774946633E+03  0.00000000000E+00 0. -1.
         11    1    3    3    0    0 -0.28527673572E+02 -0.19791146188E+01 -0.11136862274E+03  0.11498136886E+03  0.00000000000E+00 0.  1.
        -13    1    4    4    0    0  0.35508967664E+02  0.50417248299E+02 -0.10776066582E+01  0.61676145686E+02  0.00000000000E+00 0. -1.
         13    1    4    4    0    0 -0.63649929493E+02  0.58511377307E+02  0.30531883401E+02  0.91690188694E+02  0.00000000000E+00 0.  1.
          2    1    1    2  501    0 -0.17717088074E+01 -0.41840276017E+02 -0.10495208974E+02  0.43172874131E+02  0.00000000000E+00 0. -1.
<scales pt_clust_5="13000.00000" pt_clust_6="13000.00000" pt_clust_7="13000.00000" pt_clust_8="13000.00000" pt_clust_9="41.87777"></scales>
<clustering>
<clus scale="   41.878">  1  9  2 -1</clus>
<clus scale="   91.772">  5  6 -1 -1</clus>
<clus scale="   99.982">  7  8 -1 -1</clus>
<clus scale="  119.862">  2  5  1 -1</clus>
<clus scale="   41.878">  1  5  2 -1</clus>
</clustering>
</event>
<event>
 9    1  0.1321469E-005  0.1668050E+03  0.7546771E-02  0.1181686E+00
         21   -1    0    0  501  502  0.00000000000E+00  0.00000000000E+00  0.37014072518E+03  0.37014072518E+03  0.00000000000E+00 0.  1.
         -4   -1    0    0    0  501 -0.00000000000E+00 -0.00000000000E+00 -0.18807963637E+03  0.18807963637E+03  0.00000000000E+00 0.  1.
         23    2    1    2    0    0  0.19184243011E+02 -0.13431293722E+03 -0.98533989327E+02  0.19172795312E+03  0.92965911337E+02 0.  0.
         23    2    1    2    0    0 -0.41689016198E+02  0.14487968624E+03  0.14217062230E+03  0.22585297237E+03  0.89827510965E+02 0.  0.
        -11    1    3    3    0    0  0.37266812032E+02 -0.25560523128E+02 -0.59630928750E+02  0.74819805434E+02  0.00000000000E+00 0. -1.
         11    1    3    3    0    0 -0.18082569021E+02 -0.10875241410E+03 -0.38903060578E+02  0.11690814769E+03  0.00000000000E+00 0.  1.
        -13    1    4    4    0    0 -0.26979590720E+02  0.95435529081E+02  0.14327967079E+03  0.17425527994E+03  0.00000000000E+00 0. -1.
         13    1    4    4    0    0 -0.14709425479E+02  0.49444157161E+02 -0.11090484906E+01  0.51597692427E+02  0.00000000000E+00 0.  1.
         -4    1    1    2    0  502  0.22504773187E+02 -0.10566749019E+02  0.13842445584E+03  0.14063943606E+03  0.00000000000E+00 0.  1.
<scales pt_clust_5="13000.00000" pt_clust_6="13000.00000" pt_clust_7="13000.00000" pt_clust_8="13000.00000" pt_clust_9="24.86204"></scales>
<clustering>
<clus scale="   24.862">  1  9  2 -1</clus>
<clus scale="   89.828">  7  8 -1 -1</clus>
<clus scale="   92.966">  5  6 -1 -1</clus>
<clus scale="  165.076">  1  7  2 -1</clus>
<clus scale="   24.862">  1  5  2 -1</clus>
</clustering>
</event>
<event>
 9    1  0.1321469E-005  0.9322493E+02  0.7546771E-02  0.1307787E+00
         21   -1    0    0  501  502  0.00000000000E+00  0.00000000000E+00  0.11847592234E+03  0.11847592234E+03  0.00000000000E+00 0. -1.
         -4   -1    0    0    0  501 -0.00000000000E+00 -0.00000000000E+00 -0.96186001936E+02  0.96186001936E+02  0.00000000000E+00 0.  1.
         23    2    1    2    0    0 -0.17308871084E+01 -0.13055626464E+02 -0.35984240158E+02  0.10058153792E+03  0.92996424006E+02 0.  0.
         23    2    1    2    0    0  0.53520767996E+01 -0.69549778135E+01  0.31933140115E+02  0.80802966738E+02  0.73704664395E+02 0.  0.
        -11    1    3    3    0    0  0.36032736559E+02 -0.32379268949E+02 -0.31815180402E+02  0.57956715449E+02  0.00000000000E+00 0. -1.
         11    1    3    3    0    0 -0.37763623667E+02  0.19323642485E+02 -0.41690597553E+01  0.42624822470E+02  0.00000000000E+00 0.  1.
        -13    1    4    4    0    0 -0.17467928592E+01  0.23460007133E+02 -0.12384459116E+02  0.26585673728E+02  0.00000000000E+00 0.  1.
         13    1    4    4    0    0  0.70988696587E+01 -0.30414984947E+02  0.44317599231E+02  0.54217293010E+02  0.00000000000E+00 0. -1.
         -4    1    1    2    0  502 -0.36211896912E+01  0.20010604278E+02  0.26341020445E+02  0.33277419618E+02  0.00000000000E+00 0.  1.
<scales pt_clust_5="13000.00000" pt_clust_6="13000.00000" pt_clust_7="13000.00000" pt_clust_8="13000.00000" pt_clust_9="20.33562"></scales>
<clustering>
<clus scale="   20.336">  1  9  2 -1</clus>
<clus scale="   73.705">  7  8 -1 -1</clus>
<clus scale="   73.993">  1  7  2 -1</clus>
<clus scale="   92.996">  5  6 -1 -1</clus>
<clus scale="   20.336">  1  5  2 -1</clus>
</clustering>
</event>
<event>
 9    1  0.1321469E-005  0.1171183E+03  0.7546771E-02  0.1248971E+00
         21   -1    0    0  501  502  0.00000000000E+00  0.00000000000E+00  0.86799336674E+02  0.86799336674E+02  0.00000000000E+00 0. -1.
         -3   -1    0    0    0  501 -0.00000000000E+00 -0.00000000000E+00 -0.29508686464E+03  0.29508686464E+03  0.00000000000E+00 0.  1.
         23    2    1    2    0    0  0.56519584377E+02 -0.41122391771E+02 -0.15463979384E+03  0.19160659239E+03  0.88961260589E+02 0.  0.
         23    2    1    2    0    0 -0.73015829200E+02  0.27912935365E+02 -0.88358065760E+02  0.14964190533E+03  0.92060353953E+02 0.  0.
        -13    1    3    3    0    0  0.35689453111E+02 -0.65997084714E+02 -0.13269365339E+03  0.15243673410E+03  0.00000000000E+00 0.  1.
         13    1    3    3    0    0  0.20830131265E+02  0.24874692943E+02 -0.21946140447E+02  0.39169858284E+02  0.00000000000E+00 0. -1.
        -13    1    4    4    0    0 -0.90947657402E+02  0.38498649694E+02 -0.64415289749E+02  0.11791077970E+03  0.00000000000E+00 0. -1.
         13    1    4    4    0    0  0.17931828202E+02 -0.10585714329E+02 -0.23942776011E+02  0.31731125628E+02  0.00000000000E+00 0.  1.
         -3    1    1    2    0  502  0.16496244823E+02  0.13209456406E+02  0.34710331633E+02  0.40637703600E+02  0.00000000000E+00 0.  1.
<scales pt_clust_5="13000.00000" pt_clust_6="13000.00000" pt_clust_7="13000.00000" pt_clust_8="13000.00000" pt_clust_9="21.13329"></scales>
<clustering>
<clus scale="   21.133">  1  9  2 -1</clus>
<clus scale="   88.961">  5  6 -1 -1</clus>
<clus scale="   92.060">  7  8 -1 -1</clus>
<clus scale="  114.698">  2  5  1 -1</clus>
<clus scale="   21.133">  1  5  2 -1</clus>
</clustering>
</event>
<event>
 9    1  0.1321469E-005  0.1093819E+03  0.7546771E-02  0.1265542E+00
         21   -1    0    0  501  502  0.00000000000E+00  0.00000000000E+00  0.58337901064E+02  0.58337901064E+02  0.00000000000E+00 0. -1.
          2   -1    0    0  502    0 -0.00000000000E+00 -0.00000000000E+00 -0.60631849973E+03  0.60631849973E+03  0.00000000000E+00 0. -1.
         23    2    1    2    0    0 -0.45976832671E+02  0.69452750617E+02 -0.38400788852E+03  0.40334880254E+03  0.91052975544E+02 0.  0.
         23    2    1    2    0    0  0.43326991492E+02 -0.69239656513E+01 -0.17482792146E+03  0.19778826087E+03  0.81426190653E+02 0.  0.
        -11    1    4    4    0    0 -0.95123920391E+01 -0.27673488713E+02 -0.97917846153E+02  0.10219692840E+03  0.00000000000E+00 0.  1.
         11    1    4    4    0    0  0.52839383531E+02  0.20749523062E+02 -0.76910075311E+02  0.95591332471E+02  0.00000000000E+00 0. -1.
        -11    1    3    3    0    0 -0.58769849059E+02  0.14252831641E+02 -0.13421361577E+03  0.14720846792E+03  0.00000000000E+00 0.  1.
         11    1    3    3    0    0  0.12793016388E+02  0.55199918976E+02 -0.24979427275E+03  0.25614033463E+03  0.00000000000E+00 0. -1.
          2    1    1    2  501    0  0.26498411791E+01 -0.62528784966E+02  0.10855211323E+02  0.63519337374E+02  0.00000000000E+00 0. -1.
<scales pt_clust_5="13000.00000" pt_clust_6="13000.00000" pt_clust_7="13000.00000" pt_clust_8="13000.00000" pt_clust_9="62.58491"></scales>
<clustering>
<clus scale="   62.585">  1  9  2 -1</clus>
<clus scale="   81.426">  5  6 -1 -1</clus>
<clus scale="   91.053">  7  8 -1 -1</clus>
<clus scale="  101.508">  1  5  2 -1</clus>
<clus scale="   62.585">  1  5  2 -1</clus>
</clustering>
</event>
<event>
 9    1  0.1321469E-005  0.9858936E+02  0.7546771E-02  0.1283314E+00
         21   -1    0    0  501  502  0.00000000000E+00  0.00000000000E+00  0.89638487783E+02  0.89638487783E+02  0.00000000000E+00 0. -1.
          3   -1    0    0  502    0 -0.00000000000E+00 -0.00000000000E+00 -0.26458742494E+03  0.26458742494E+03  0.00000000000E+00 0. -1.
         23    2    1    2    0    0 -0.21052181754E+02  0.39463099794E+02 -0.16820623611E+03  0.19692386891E+03  0.92114828767E+02 0.  0.
         23    2    1    2    0    0  0.31837970859E+02  0.97103017472E+01 -0.29222849962E+02  0.10216844461E+03  0.92067745521E+02 0.  0.
        -13    1    3    3    0    0  0.34870487487E+02  0.25543135325E+02 -0.55578753826E+02  0.70408810078E+02  0.00000000000E+00 0.  1.
         13    1    3    3    0    0 -0.55922669241E+02  0.13919964468E+02 -0.11262748228E+03  0.12651505883E+03  0.00000000000E+00 0. -1.
        -13    1    4    4    0    0  0.10402969372E+02 -0.41253181539E+02 -0.10828506750E+02  0.43901062827E+02  0.00000000000E+00 0.  1.
         13    1    4    4    0    0  0.21435001487E+02  0.50963483287E+02 -0.18394343212E+02  0.58267381781E+02  0.00000000000E+00 0. -1.
          3    1    1    2  501    0 -0.10785789105E+02 -0.49173401541E+02  0.22480148917E+02  0.55133599203E+02  0.00000000000E+00 0. -1.
<scales pt_clust_5="13000.00000" pt_clust_6="13000.00000" pt_clust_7="13000.00000" pt_clust_8="13000.00000" pt_clust_9="50.34239"></scales>
<clustering>
<clus scale="   50.342">  1  9  2 -1</clus>
<clus scale="   92.068">  7  8 -1 -1</clus>
<clus scale="   92.115">  5  6 -1 -1</clus>
<clus scale="   98.545">  1  7  2 -1</clus>
<clus scale="   50.342">  1  5  2 -1</clus>
</clustering>
</event>
<event>
 9    1  0.1321469E-005  0.1396488E+03  0.7546771E-02  0.1214411E+00
         21   -1    0    0  501  502  0.00000000000E+00  0.00000000000E+00  0.67277254520E+02  0.67277254520E+02  0.00000000000E+00 0.  1.
          1   -1    0    0  502    0 -0.00000000000E+00 -0.00000000000E+00 -0.45914036267E+03  0.45914036267E+03  0.00000000000E+00 0. -1.
         23    2    1    2    0    0  0.23473415919E+02 -0.89893508155E+02 -0.18905318797E+03  0.23043656806E+03  0.93424086594E+02 0.  0.
         23    2    1    2    0    0 -0.73455602991E+01  0.11661848488E+03 -0.21623924418E+03  0.26200048334E+03  0.90724937452E+02 0.  0.
        -13    1    3    3    0    0 -0.25786210561E+02 -0.16939408597E+02 -0.12757800696E+02  0.33386130314E+02  0.00000000000E+00 0.  1.
         13    1    3    3    0    0  0.49259626480E+02 -0.72954099558E+02 -0.17629538727E+03  0.19705043775E+03  0.00000000000E+00 0. -1.
        -13    1    4    4    0    0 -0.29474818704E+02  0.11792848466E+03 -0.15570354521E+03  0.19753350709E+03  0.00000000000E+00 0.  1.
         13    1    4    4    0    0  0.22129258405E+02 -0.13099997844E+01 -0.60535698972E+02  0.64466976251E+02  0.00000000000E+00 0. -1.
          1    1    1    2  501    0 -0.16127855620E+02 -0.26724976721E+02  0.13429324005E+02  0.33980565782E+02  0.00000000000E+00 0. -1.
<scales pt_clust_5="13000.00000" pt_clust_6="13000.00000" pt_clust_7="13000.00000" pt_clust_8="13000.00000" pt_clust_9="31.21429"></scales>
<clustering>
<clus scale="   31.214">  1  9  2 -1</clus>
<clus scale="   90.725">  7  8 -1 -1</clus>
<clus scale="   93.424">  5  6 -1 -1</clus>
<clus scale="  137.858">  1  7  2 -1</clus>
<clus scale="   31.214">  1  5  2 -1</clus>
</clustering>
</event>
<event>
 9    1  0.1321469E-005  0.1345365E+03  0.7546771E-02  0.1220971E+00
          2   -1    0    0  502    0 -0.00000000000E+00  0.00000000000E+00  0.44601798855E+03  0.44601798855E+03  0.00000000000E+00 0. -1.
         21   -1    0    0  501  502  0.00000000000E+00 -0.00000000000E+00 -0.62244381626E+02  0.62244381626E+02  0.00000000000E+00 0. -1.
         23    2    1    2    0    0 -0.10046701269E+03 -0.42391823942E+01  0.22368694184E+03  0.26137392746E+03  0.90381915784E+02 0.  0.
         23    2    1    2    0    0  0.94952439031E+02 -0.42791214909E+02  0.10085622430E+03  0.17105629974E+03  0.90781198209E+02 0.  0.
        -11    1    4    4    0    0  0.42993153436E+02 -0.12650126704E+02  0.10153303369E+03  0.11098375502E+03  0.00000000000E+00 0.  1.
         11    1    4    4    0    0  0.51959285595E+02 -0.30141088205E+02 -0.67680939005E+00  0.60072544716E+02  0.00000000000E+00 0. -1.
        -13    1    3    3    0    0 -0.26403567889E+02  0.30561818527E+02  0.27658520677E+02  0.48950657962E+02  0.00000000000E+00 0.  1.
         13    1    3    3    0    0 -0.74063444799E+02 -0.34801000921E+02  0.19602842117E+03  0.21242326950E+03  0.00000000000E+00 0. -1.
          2    1    1    2  501    0  0.55145736568E+01  0.47030397304E+02  0.59230440778E+02  0.75832142973E+02  0.00000000000E+00 0. -1.
<scales pt_clust_5="13000.00000" pt_clust_6="13000.00000" pt_clust_7="13000.00000" pt_clust_8="13000.00000" pt_clust_9="47.35262"></scales>
<clustering>
<clus scale="   47.353">  2  9  1 -1</clus>
<clus scale="   90.382">  7  8 -1 -1</clus>
<clus scale="   90.781">  5  6 -1 -1</clus>
<clus scale="  134.267">  1  7  2 -1</clus>
<clus scale="   47.353">  2  5  1 -1</clus>
</clustering>
</event>
<event>
 9    1  0.1321469E-005  0.1313672E+03  0.7546771E-02  0.1225713E+00
         -3   -1    0    0    0  501 -0.00000000000E+00  0.00000000000E+00  0.93352549224E+03  0.93352549224E+03  0.00000000000E+00 0.  1.
         21   -1    0    0  501  502  0.00000000000E+00 -0.00000000000E+00 -0.47620279782E+02  0.47620279782E+02  0.00000000000E+00 0.  1.
         23    2    1    2    0    0  0.92555522367E+02 -0.22554500578E+02  0.55326145351E+03  0.56877370626E+03  0.91269177570E+02 0.  0.
         23    2    1    2    0    0 -0.82399308085E+02  0.48933617641E+02  0.35352663245E+03  0.37722806326E+03  0.90198597268E+02 0.  0.
        -13    1    4    4    0    0 -0.23870064459E+02  0.58414324009E+02  0.25081271441E+03  0.25862913783E+03  0.00000000000E+00 0.  1.
         13    1    4    4    0    0 -0.58529243625E+02 -0.94807063681E+01  0.10271391804E+03  0.11859892543E+03  0.00000000000E+00 0. -1.
        -13    1    3    3    0    0  0.18072563670E+02  0.32415300881E+02  0.11492174238E+03  0.12076579052E+03  0.00000000000E+00 0.  1.
         13    1    3    3    0    0  0.74482958697E+02 -0.54969801459E+02  0.43833971114E+03  0.44800791574E+03  0.00000000000E+00 0. -1.
         -3    1    1    2    0  502 -0.10156214282E+02 -0.26379117063E+02 -0.20882873510E+02  0.35144002498E+02  0.00000000000E+00 0.  1.
<scales pt_clust_5="13000.00000" pt_clust_6="13000.00000" pt_clust_7="13000.00000" pt_clust_8="13000.00000" pt_clust_9="28.26670"></scales>
<clustering>
<clus scale="   28.267">  2  9  1 -1</clus>
<clus scale="   90.199">  5  6 -1 -1</clus>
<clus scale="   91.269">  7  8 -1 -1</clus>
<clus scale="  130.626">  2  5  1 -1</clus>
<clus scale="   28.267">  2  5  1 -1</clus>
</clustering>
</event>
<event>
 9    1  0.1321469E-005  0.9608193E+02  0.7546771E-02  0.1289452E+00
         -1   -1    0    0    0  501 -0.00000000000E+00  0.00000000000E+00  0.48117392970E+02  0.48117392970E+02  0.00000000000E+00 0.  1.
         21   -1    0    0  501  502  0.00000000000E+00 -0.00000000000E+00 -0.38063718816E+03  0.38063718816E+03  0.00000000000E+00 0. -1.
         23    2    1    2    0    0 -0.41503538952E+01 -0.25001887665E+02 -0.40420201973E+02  0.10342672790E+03  0.91765873246E+02 0.  0.
         23    2    1    2    0    0 -0.21273845729E+02  0.35485603192E+02 -0.14603521470E+03  0.17669709972E+03  0.90464228127E+02 0.  0.
        -13    1    4    4    0    0 -0.35072860759E+02 -0.14663674183E+02 -0.10092593430E+03  0.10784791661E+03  0.00000000000E+00 0. -1.
         13    1    4    4    0    0  0.13799015030E+02  0.50149277375E+02 -0.45109280407E+02  0.68849183117E+02  0.00000000000E+00 0.  1.
        -13    1    3    3    0    0  0.37973292572E+02  0.95814046383E+01 -0.26139080204E+02  0.47085303201E+02  0.00000000000E+00 0.  1.
         13    1    3    3    0    0 -0.42123646468E+02 -0.34583292303E+02 -0.14281121769E+02  0.56341424700E+02  0.00000000000E+00 0. -1.
         -1    1    1    2    0  502  0.25424199624E+02 -0.10483715527E+02 -0.14606437851E+03  0.14863075351E+03  0.00000000000E+00 0.  1.
<scales pt_clust_5="13000.00000" pt_clust_6="13000.00000" pt_clust_7="13000.00000" pt_clust_8="13000.00000" pt_clust_9="27.50088"></scales>
<clustering>
<clus scale="   27.501">  2  9  1 -1</clus>
<clus scale="   90.464">  5  6 -1 -1</clus>
<clus scale="   91.766">  7  8 -1 -1</clus>
<clus scale="   94.840">  2  5  1 -1</clus>
<clus scale="   27.501">  2  5  1 -1</clus>
</clustering>
</event>
<event>
 9    1  0.1321469E-005  0.9651683E+02  0.7546771E-02  0.1287937E+00
         -1   -1    0    0    0  501 -0.00000000000E+00  0.00000000000E+00  0.40858404206E+03  0.40858404206E+03  0.00000000000E+00 0.  1.
         21   -1    0    0  501  502  0.00000000000E+00 -0.00000000000E+00 -0.80698269619E+02  0.80698269619E+02  0.00000000000E+00 0. -1.
         23    2    1    2    0    0  0.31628749854E+02 -0.47193609001E+00  0.32714922852E+03  0.34097427795E+03  0.90753732484E+02 0.  0.
         23    2    1    2    0    0 -0.31194646089E+02  0.42112357166E+02  0.10436133437E+02  0.10555063495E+03  0.91024541123E+02 0.  0.
        -11    1    4    4    0    0 -0.24059852569E+02  0.63503288020E+02 -0.17032593791E+02  0.70011808620E+02  0.00000000000E+00 0. -1.
         11    1    4    4    0    0 -0.71347935197E+01 -0.21390930855E+02  0.27468727228E+02  0.35538826330E+02  0.00000000000E+00 0.  1.
        -13    1    3    3    0    0  0.46604866277E+02 -0.21378983844E+02  0.29678923438E+03  0.30118586313E+03  0.00000000000E+00 0.  1.
         13    1    3    3    0    0 -0.14976116422E+02  0.20907047754E+02  0.30359994144E+02  0.39788414813E+02  0.00000000000E+00 0. -1.
         -1    1    1    2    0  502 -0.43410376560E+00 -0.41640421076E+02 -0.96995895181E+01  0.42757398778E+02  0.00000000000E+00 0.  1.
<scales pt_clust_5="13000.00000" pt_clust_6="13000.00000" pt_clust_7="13000.00000" pt_clust_8="13000.00000" pt_clust_9="41.64268"></scales>
<clustering>
<clus scale="   41.643">  2  9  1 -1</clus>
<clus scale="   90.754">  7  8 -1 -1</clus>
<clus scale="   91.025">  5  6 -1 -1</clus>
<clus scale="   96.261">  1  7  2 -1</clus>
<clus scale="   41.643">  2  5  1 -1</clus>
</clustering>
</event>
<event>
 9    1  0.1321469E-005  0.9332948E+02  0.7546771E-02  0.1299535E+00
         21   -1    0    0  501  502  0.00000000000E+00  0.00000000000E+00  0.12774439465E+03  0.12774439465E+03  0.00000000000E+00 0.  1.
          1   -1    0    0  502    0 -0.00000000000E+00 -0.00000000000E+00 -0.28984680413E+03  0.28984680413E+03  0.00000000000E+00 0. -1.
         23    2    1    2    0    0 -0.97457481077E+01 -0.21980434567E+02 -0.24450586561E+03  0.25939626148E+03  0.83217684660E+02 0.  0.
         23    2    1    2    0    0 -0.44959718264E+01 -0.17077595004E+02  0.64622737223E+02  0.11297867667E+03  0.90973761068E+02 0.  0.
        -11    1    3    3    0    0 -0.43767420016E+02 -0.18222264433E+02 -0.18263871325E+03  0.18869164676E+03  0.00000000000E+00 0. -1.
         11    1    3    3    0    0  0.34021671909E+02 -0.37581701333E+01 -0.61867152355E+02  0.70704614720E+02  0.00000000000E+00 0.  1.
        -11    1    4    4    0    0 -0.36092188418E+02 -0.15728153438E+02  0.70560537989E+02  0.80801054428E+02  0.00000000000E+00 0.  1.
         11    1    4    4    0    0  0.31596216591E+02 -0.13494415659E+01 -0.59378007663E+01  0.32177622245E+02  0.00000000000E+00 0. -1.
          1    1    1    2  501    0  0.14241719934E+02  0.39058029571E+02  0.17780718901E+02  0.45216260629E+02  0.00000000000E+00 0. -1.
<scales pt_clust_5="13000.00000" pt_clust_6="13000.00000" pt_clust_7="13000.00000" pt_clust_8="13000.00000" pt_clust_9="41.57350"></scales>
<clustering>
<clus scale="   41.574">  1  9  2 -1</clus>
<clus scale="   83.218">  5  6 -1 -1</clus>
<clus scale="   85.787">  2  5  1 -1</clus>
<clus scale="   90.974">  7  8 -1 -1</clus>
<clus scale="   41.574">  1  5  2 -1</clus>
</clustering>
</event>
<event>
 9    1  0.1321469E-005  0.9665516E+02  0.7546771E-02  0.1287736E+00
         21   -1    0    0  501  502  0.00000000000E+00  0.00000000000E+00  0.28060482193E+03  0.28060482193E+03  0.00000000000E+00 0. -1.
          1   -1    0    0  502    0 -0.00000000000E+00 -0.00000000000E+00 -0.82490718881E+02  0.82490718881E+02  0.00000000000E+00 0. -1.
         23    2    1    2    0    0 -0.56957688631E+01  0.26711308005E+02 -0.13309320622E+02  0.96134263571E+02  0.91207032944E+02 0.  0.
         23    2    1    2    0    0 -0.31662253103E+02 -0.49720827972E+02  0.18778687291E+03  0.21712407882E+03  0.91674952742E+02 0.  0.
        -11    1    4    4    0    0  0.12998153185E+02 -0.61426737143E+02  0.11091107346E+03  0.12744984205E+03  0.00000000000E+00 0. -1.
         11    1    4    4    0    0 -0.44660406288E+02  0.11705909171E+02  0.76875799452E+02  0.89674236772E+02  0.00000000000E+00 0.  1.
        -13    1    3    3    0    0  0.36898974910E+02  0.34420890805E+02 -0.15511459447E+02  0.52791452408E+02  0.00000000000E+00 0.  1.
         13    1    3    3    0    0 -0.42594743773E+02 -0.77095827994E+01  0.22021388250E+01  0.43342811162E+02  0.00000000000E+00 0. -1.
          1    1    1    2  501    0  0.37358021966E+02  0.23009519966E+02  0.23636550758E+02  0.49837198417E+02  0.00000000000E+00 0. -1.
<scales pt_clust_5="13000.00000" pt_clust_6="13000.00000" pt_clust_7="13000.00000" pt_clust_8="13000.00000" pt_clust_9="43.87553"></scales>
<clustering>
<clus scale="   43.876">  1  9  2 -1</clus>
<clus scale="   91.207">  7  8 -1 -1</clus>
<clus scale="   91.675">  5  6 -1 -1</clus>
<clus scale="   96.211">  2  7  1 -1</clus>
<clus scale="   43.876">  1  5  2 -1</clus>
</clustering>
</event>
<event>
 9    1  0.1321469E-005  0.2151702E+03  0.7546771E-02  0.1137630E+00
         21   -1    0    0  501  502  0.00000000000E+00  0.00000000000E+00  0.82312845377E+02  0.82312845377E+02  0.00000000000E+00 0. -1.
          2   -1    0    0  502    0 -0.00000000000E+00 -0.00000000000E+00 -0.77019426464E+03  0.77019426464E+03  0.00000000000E+00 0. -1.
         23    2    1    2    0    0 -0.21332078053E+03 -0.21061133408E+02 -0.47921242594E+03  0.53299909389E+03  0.92163757298E+02 0.  0.
         23    2    1    2    0    0  0.16316212860E+03  0.69595743540E+01 -0.17849515491E+03  0.25929834203E+03  0.93299485347E+02 0.  0.
        -13    1    3    3    0    0 -0.15203775116E+03 -0.52341823130E+02 -0.37618389391E+03  0.40910813518E+03  0.00000000000E+00 0. -1.
         13    1    3    3    0    0 -0.61283029372E+02  0.31280689722E+02 -0.10302853203E+03  0.12389095871E+03  0.00000000000E+00 0.  1.
        -13    1    4    4    0    0  0.14834488124E+03  0.36353045417E+02 -0.16138491311E+03  0.22219999523E+03  0.00000000000E+00 0. -1.
         13    1    4    4    0    0  0.14817247365E+02 -0.29393471063E+02 -0.17110241801E+02  0.37098346797E+02  0.00000000000E+00 0.  1.
          2    1    1    2  501    0  0.50158651932E+02  0.14101559054E+02 -0.30173838411E+02  0.60209674105E+02  0.00000000000E+00 0. -1.
<scales pt_clust_5="13000.00000" pt_clust_6="13000.00000" pt_clust_7="13000.00000" pt_clust_8="13000.00000" pt_clust_9="52.10321"></scales>
<clustering>
<clus scale="   52.103">  1  9  2 -1</clus>
<clus scale="   92.164">  5  6 -1 -1</clus>
<clus scale="   93.299">  7  8 -1 -1</clus>
<clus scale="  214.680">  2  5  1 -1</clus>
<clus scale="   52.103">  1  5  2 -1</clus>
</clustering>
</event>
<event>
 9    1  0.1321469E-005  0.1031537E+03  0.7546771E-02  0.1278194E+00
          1   -1    0    0  502    0 -0.00000000000E+00  0.00000000000E+00  0.19691907294E+03  0.19691907294E+03  0.00000000000E+00 0. -1.
         21   -1    0    0  501  502  0.00000000000E+00 -0.00000000000E+00 -0.86285535066E+02  0.86285535066E+02  0.00000000000E+00 0.  1.
         23    2    1    2    0    0  0.34935467725E+02 -0.21585145739E+02  0.10091241947E+03  0.13629826436E+03  0.81899298189E+02 0.  0.
         23    2    1    2    0    0 -0.57634383172E+02  0.28488199443E+02  0.29982646066E+02  0.11570662545E+03  0.91409870784E+02 0.  0.
        -11    1    4    4    0    0  0.15206263490E+02  0.31062135413E+02 -0.48533817587E+01  0.34923373552E+02  0.00000000000E+00 0.  1.
         11    1    4    4    0    0 -0.72840646662E+02 -0.25739359706E+01  0.34836027825E+02  0.80783251898E+02  0.00000000000E+00 0. -1.
        -13    1    3    3    0    0  0.13796149264E+02 -0.37383577485E+02  0.10238559485E+03  0.10986662657E+03  0.00000000000E+00 0. -1.
         13    1    3    3    0    0  0.21139318461E+02  0.15798431746E+02 -0.14731753893E+01  0.26431637792E+02  0.00000000000E+00 0.  1.
          1    1    1    2  501    0  0.22698915447E+02 -0.69030537038E+01 -0.20261527652E+02  0.31199718199E+02  0.00000000000E+00 0. -1.
<scales pt_clust_5="13000.00000" pt_clust_6="13000.00000" pt_clust_7="13000.00000" pt_clust_8="13000.00000" pt_clust_9="23.72536"></scales>
<clustering>
<clus scale="   23.725">  2  9  1 -1</clus>
<clus scale="   81.899">  7  8 -1 -1</clus>
<clus scale="   91.410">  5  6 -1 -1</clus>
<clus scale="   94.828">  1  7  2 -1</clus>
<clus scale="   23.725">  2  5  1 -1</clus>
</clustering>
</event>
<event>
 9    1  0.1321469E-005  0.1032989E+03  0.7546771E-02  0.1273818E+00
         21   -1    0    0  501  502  0.00000000000E+00  0.00000000000E+00  0.45108787595E+02  0.45108787595E+02  0.00000000000E+00 0.  1.
          1   -1    0    0  502    0 -0.00000000000E+00 -0.00000000000E+00 -0.33675666602E+03  0.33675666602E+03  0.00000000000E+00 0. -1.
         23    2    1    2    0    0  0.44619952653E+02 -0.15051859516E+02 -0.14140487705E+03  0.17447192437E+03  0.90706198750E+02 0.  0.
         23    2    1    2    0    0 -0.32769247473E+02  0.42612581980E+02 -0.14014384607E+03  0.17573874171E+03  0.91401050451E+02 0.  0.
        -11    1    4    4    0    0  0.21508543670E+02  0.25140255382E+02 -0.11505110077E+02  0.35028808849E+02  0.00000000000E+00 0. -1.
         11    1    4    4    0    0 -0.54277791144E+02  0.17472326599E+02 -0.12863873599E+03  0.14070993286E+03  0.00000000000E+00 0.  1.
        -13    1    3    3    0    0  0.32293381544E+02 -0.53088226027E+02 -0.89359493333E+02  0.10884089894E+03  0.00000000000E+00 0.  1.
         13    1    3    3    0    0  0.12326571108E+02  0.38036366511E+02 -0.52045383716E+02  0.65631025428E+02  0.00000000000E+00 0. -1.
          1    1    1    2  501    0 -0.11850705179E+02 -0.27560722464E+02 -0.10099155313E+02  0.31654787537E+02  0.00000000000E+00 0. -1.
<scales pt_clust_5="13000.00000" pt_clust_6="13000.00000" pt_clust_7="13000.00000" pt_clust_8="13000.00000" pt_clust_9="30.00054"></scales>
<clustering>
<clus scale="   30.001">  1  9  2 -1</clus>
<clus scale="   90.706">  7  8 -1 -1</clus>
<clus scale="   91.401">  5  6 -1 -1</clus>
<clus scale="  102.685">  2  7  1 -1</clus>
<clus scale="   30.001">  1  5  2 -1</clus>
</clustering>
</event>
<event>
 9    1  0.1321469E-005  0.3561553E+03  0.7546771E-02  0.1060400E+00
         21   -1    0    0  501  502  0.00000000000E+00  0.00000000000E+00  0.19480924086E+03  0.19480924086E+03  0.00000000000E+00 0. -1.
          3   -1    0    0  502    0 -0.00000000000E+00 -0.00000000000E+00 -0.97081962829E+03  0.97081962829E+03  0.00000000000E+00 0. -1.
         23    2    1    2    0    0 -0.14672552127E+03  0.33579844837E+03 -0.60956999296E+03  0.71520582597E+03  0.75198541669E+02 0.  0.
         23    2    1    2    0    0  0.17944774505E+03 -0.24461287627E+03 -0.93903367023E+02  0.32939753827E+03  0.87452521042E+02 0.  0.
        -11    1    3    3    0    0  0.85961484124E+01  0.28509626779E+02 -0.48194774311E+02  0.56651821308E+02  0.00000000000E+00 0.  1.
         11    1    3    3    0    0 -0.15532166968E+03  0.30728882159E+03 -0.56137521865E+03  0.65855400466E+03  0.00000000000E+00 0. -1.
        -13    1    4    4    0    0  0.24020323740E+02 -0.10197908258E+03 -0.31960384976E+02  0.10953618327E+03  0.00000000000E+00 0.  1.
         13    1    4    4    0    0  0.15542742131E+03 -0.14263379369E+03 -0.61942982046E+02  0.21986135500E+03  0.00000000000E+00 0. -1.
          3    1    1    2  501    0 -0.32722223783E+02 -0.91185572096E+02 -0.72537027445E+02  0.12102550491E+03  0.00000000000E+00 0. -1.
<scales pt_clust_5="13000.00000" pt_clust_6="13000.00000" pt_clust_7="13000.00000" pt_clust_8="13000.00000" pt_clust_9="96.87906"></scales>
<clustering>
<clus scale="   75.199">  5  6 -1 -1</clus>
<clus scale="   87.453">  7  8 -1 -1</clus>
<clus scale="   96.879">  1  9  2 -1</clus>
<clus scale="  353.346">  2  5  1 -1</clus>
<clus scale="   96.879">  1  5  2 -1</clus>
</clustering>
</event>
<event>
 9    1  0.1321469E-005  0.1318671E+03  0.7546771E-02  0.1225587E+00
          3   -1    0    0  502    0 -0.00000000000E+00  0.00000000000E+00  0.89296180466E+03  0.89296180466E+03  0.00000000000E+00 0. -1.
         21   -1    0    0  501  502  0.00000000000E+00 -0.00000000000E+00 -0.61135138154E+02  0.61135138154E+02  0.00000000000E+00 0. -1.
         23    2    1    2    0    0  0.29381055630E+02  0.88963373616E+02  0.42480170509E+03  0.44404921838E+03  0.89137486059E+02 0.  0.
         23    2    1    2    0    0 -0.68167388827E+02 -0.71756550341E+02  0.43736962291E+03  0.45788209502E+03  0.92563656354E+02 0.  0.
        -11    1    4    4    0    0  0.21925465304E+02 -0.21640472060E+02  0.73630931211E+02  0.79815725837E+02  0.00000000000E+00 0.  1.
         11    1    4    4    0    0 -0.90092854130E+02 -0.50116078281E+02  0.36373869170E+03  0.37806636918E+03  0.00000000000E+00 0. -1.
        -13    1    3    3    0    0  0.56354493424E+02  0.35887635061E+02  0.27131378670E+03  0.27941890081E+03  0.00000000000E+00 0.  1.
         13    1    3    3    0    0 -0.26973437794E+02  0.53075738555E+02  0.15348791839E+03  0.16463031757E+03  0.00000000000E+00 0. -1.
          3    1    1    2  501    0  0.38786333196E+02 -0.17206823275E+02 -0.30344661501E+02  0.52165629409E+02  0.00000000000E+00 0. -1.
<scales pt_clust_5="13000.00000" pt_clust_6="13000.00000" pt_clust_7="13000.00000" pt_clust_8="13000.00000" pt_clust_9="42.43176"></scales>
<clustering>
<clus scale="   42.432">  2  9  1 -1</clus>
<clus scale="   89.137">  7  8 -1 -1</clus>
<clus scale="   92.564">  5  6 -1 -1</clus>
<clus scale="  129.485">  1  7  2 -1</clus>
<clus scale="   42.432">  2  5  1 -1</clus>
</clustering>
</event>
<event>
 9    1  0.1321469E-005  0.1259067E+03  0.7546771E-02  0.1233981E+00
          1   -1    0    0  502    0 -0.00000000000E+00  0.00000000000E+00  0.12007034456E+04  0.12007034456E+04  0.00000000000E+00 0. -1.
         21   -1    0    0  501  502  0.00000000000E+00 -0.00000000000E+00 -0.66869876541E+02  0.66869876541E+02  0.00000000000E+00 0. -1.
         23    2    1    2    0    0 -0.39290260351E+02 -0.10844025002E+03  0.84552420381E+03  0.85837196509E+03  0.92672751387E+02 0.  0.
         23    2    1    2    0    0 -0.36170432511E+02  0.48031513605E+02  0.29261811590E+03  0.31244342743E+03  0.91543471141E+02 0.  0.
        -11    1    4    4    0    0  0.23259335981E+02 -0.98285811583E+01  0.49546587721E+02  0.55609909842E+02  0.00000000000E+00 0.  1.
         11    1    4    4    0    0 -0.59429768492E+02  0.57860094763E+02  0.24307152818E+03  0.25683351759E+03  0.00000000000E+00 0. -1.
        -13    1    3    3    0    0  0.30627501468E+02 -0.33376749218E+02  0.27181700598E+03  0.27556584689E+03  0.00000000000E+00 0.  1.
         13    1    3    3    0    0 -0.69917761819E+02 -0.75063500803E+02  0.57370719783E+03  0.58280611820E+03  0.00000000000E+00 0. -1.
          1    1    1    2  501    0  0.75460692862E+02  0.60408736416E+02 -0.43087506866E+01  0.96757929573E+02  0.00000000000E+00 0. -1.
<scales pt_clust_5="13000.00000" pt_clust_6="13000.00000" pt_clust_7="13000.00000" pt_clust_8="13000.00000" pt_clust_9="96.66194"></scales>
<clustering>
<clus scale="   91.543">  5  6 -1 -1</clus>
<clus scale="   92.673">  7  8 -1 -1</clus>
<clus scale="   96.662">  2  9  1 -1</clus>
<clus scale="  125.078">  2  5  1 -1</clus>
<clus scale="   96.662">  2  5  1 -1</clus>
</clustering>
</event>
<event>
 9    1  0.1321469E-005  0.1005927E+03  0.7546771E-02  0.1286913E+00
          1   -1    0    0  502    0 -0.00000000000E+00  0.00000000000E+00  0.61178846305E+03  0.61178846305E+03  0.00000000000E+00 0. -1.
         21   -1    0    0  501  502  0.00000000000E+00 -0.00000000000E+00 -0.78213930426E+02  0.78213930426E+02  0.00000000000E+00 0. -1.
         23    2    1    2    0    0 -0.38913358329E+02  0.13246386356E+02  0.46142286523E+03  0.47294187877E+03  0.95253576975E+02 0.  0.
         23    2    1    2    0    0  0.15263627298E+02  0.34696434688E+02  0.11723098267E+03  0.14713220475E+03  0.80423637566E+02 0.  0.
        -13    1    3    3    0    0  0.24474961149E+02  0.21264303903E+02  0.82002610662E+02  0.88179490241E+02  0.00000000000E+00 0.  1.
         13    1    3    3    0    0 -0.63388319477E+02 -0.80179175475E+01  0.37942025457E+03  0.38476238852E+03  0.00000000000E+00 0. -1.
        -13    1    4    4    0    0 -0.22811775082E+02  0.25310073977E+02  0.14242038350E+02  0.36929833245E+02  0.00000000000E+00 0. -1.
         13    1    4    4    0    0  0.38075402380E+02  0.93863607106E+01  0.10298894432E+03  0.11020237151E+03  0.00000000000E+00 0.  1.
          1    1    1    2  501    0  0.23649731031E+02 -0.47942821043E+02 -0.45079315277E+02  0.69928309956E+02  0.00000000000E+00 0. -1.
<scales pt_clust_5="13000.00000" pt_clust_6="13000.00000" pt_clust_7="13000.00000" pt_clust_8="13000.00000" pt_clust_9="53.45862"></scales>
<clustering>
<clus scale="   53.459">  2  9  1 -1</clus>
<clus scale="   80.424">  7  8 -1 -1</clus>
<clus scale="   86.681">  2  7  1 -1</clus>
<clus scale="   95.254">  5  6 -1 -1</clus>
<clus scale="   53.459">  2  5  1 -1</clus>
</clustering>
</event>
<event>
 9    1  0.1321469E-005  0.1420063E+03  0.7546771E-02  0.1210823E+00
          2   -1    0    0  502    0 -0.00000000000E+00  0.00000000000E+00  0.31457669397E+03  0.31457669397E+03  0.00000000000E+00 0. -1.
         21   -1    0    0  501  502  0.00000000000E+00 -0.00000000000E+00 -0.13255675617E+03  0.13255675617E+03  0.00000000000E+00 0. -1.
         23    2    1    2    0    0  0.48346632430E+02  0.92372412870E+02  0.17711500660E+03  0.22523530337E+03  0.92147473086E+02 0.  0.
         23    2    1    2    0    0 -0.43885255011E+02 -0.11752198901E+03 -0.48589308820E+02  0.16261881830E+03  0.91359868795E+02 0.  0.
        -13    1    3    3    0    0 -0.17027139483E+02  0.41788132793E+02  0.10953857094E+03  0.11846885686E+03  0.00000000000E+00 0.  1.
         13    1    3    3    0    0  0.65373771913E+02  0.50584280077E+02  0.67576435652E+02  0.10676644651E+03  0.00000000000E+00 0. -1.
        -13    1    4    4    0    0 -0.27685766977E+02 -0.22756970989E+02  0.23148367508E+02  0.42664134117E+02  0.00000000000E+00 0.  1.
         13    1    4    4    0    0 -0.16199488034E+02 -0.94765018017E+02 -0.71737676327E+02  0.11995468418E+03  0.00000000000E+00 0. -1.
          2    1    1    2  501    0 -0.44613774191E+01  0.25149576136E+02  0.53494240021E+02  0.59279328469E+02  0.00000000000E+00 0. -1.
<scales pt_clust_5="13000.00000" pt_clust_6="13000.00000" pt_clust_7="13000.00000" pt_clust_8="13000.00000" pt_clust_9="25.54223"></scales>
<clustering>
<clus scale="   25.542">  2  9  1 -1</clus>
<clus scale="   91.360">  7  8 -1 -1</clus>
<clus scale="   92.147">  5  6 -1 -1</clus>
<clus scale="  141.496">  2  7  1 -1</clus>
<clus scale="   25.542">  2  5  1 -1</clus>
</clustering>
</event>
<event>
 9    1  0.1321469E-005  0.1067349E+03  0.7546771E-02  0.1271255E+00
         -1   -1    0    0    0  501 -0.00000000000E+00  0.00000000000E+00  0.10696760555E+03  0.10696760555E+03  0.00000000000E+00 0.  1.
         21   -1    0    0  501  502  0.00000000000E+00 -0.00000000000E+00 -0.42247906487E+03  0.42247906487E+03  0.00000000000E+00 0.  1.
         23    2    1    2    0    0 -0.20678085694E+02  0.12115645178E+02  0.37490893105E+02  0.10151597578E+03  0.91244474830E+02 0.  0.
         23    2    1    2    0    0  0.62829893393E+02 -0.39442275264E+02 -0.75981493162E+02  0.14639192986E+03  0.10076765971E+03 0.  0.
        -11    1    4    4    0    0  0.24566757681E+02 -0.51260949225E+02 -0.87838188499E+02  0.10462675498E+03  0.00000000000E+00 0. -1.
         11    1    4    4    0    0  0.38263135713E+02  0.11818673961E+02  0.11856695337E+02  0.41765174884E+02  0.00000000000E+00 0.  1.
        -13    1    3    3    0    0 -0.47625353960E+01  0.26804514502E+02  0.62655596539E+02  0.68314621559E+02  0.00000000000E+00 0.  1.
         13    1    3    3    0    0 -0.15915550298E+02 -0.14688869324E+02 -0.25164703434E+02  0.33201354223E+02  0.00000000000E+00 0. -1.
         -1    1    1    2    0  502 -0.42151807699E+02  0.27326630085E+02 -0.27702085927E+03  0.28153876478E+03  0.00000000000E+00 0.  1.
<scales pt_clust_5="13000.00000" pt_clust_6="13000.00000" pt_clust_7="13000.00000" pt_clust_8="13000.00000" pt_clust_9="50.23465"></scales>
<clustering>
<clus scale="   50.235">  2  9  1 -1</clus>
<clus scale="   91.244">  7  8 -1 -1</clus>
<clus scale="   97.795">  1  7  2 -1</clus>
<clus scale="  100.768">  5  6 -1 -1</clus>
<clus scale="   50.235">  2  5  1 -1</clus>
</clustering>
</event>
<event>
 9    1  0.1321469E-005  0.1376010E+03  0.7546771E-02  0.1217982E+00
          1   -1    0    0  502    0 -0.00000000000E+00  0.00000000000E+00  0.69804482707E+03  0.69804482707E+03  0.00000000000E+00 0. -1.
         21   -1    0    0  501  502  0.00000000000E+00 -0.00000000000E+00 -0.24176096719E+03  0.24176096719E+03  0.00000000000E+00 0. -1.
         23    2    1    2    0    0  0.42226143377E+02  0.91528392374E+02  0.61177109309E+03  0.62647656125E+03  0.89713531077E+02 0.  0.
         23    2    1    2    0    0 -0.54862778842E+02 -0.69181864367E+02  0.23776487203E+02  0.13223662320E+03  0.95525642173E+02 0.  0.
        -13    1    3    3    0    0  0.41829196266E+02  0.31241132505E+01  0.12810326913E+03  0.13479573178E+03  0.00000000000E+00 0.  1.
         13    1    3    3    0    0  0.39694711127E+00  0.88404279123E+02  0.48366782396E+03  0.49168082947E+03  0.00000000000E+00 0. -1.
        -13    1    4    4    0    0 -0.20562297973E+02 -0.41864646008E+02 -0.35421502920E+02  0.58567393253E+02  0.00000000000E+00 0.  1.
         13    1    4    4    0    0 -0.34300480869E+02 -0.27317218359E+02  0.59197990123E+02  0.73669229949E+02  0.00000000000E+00 0. -1.
          1    1    1    2  501    0  0.12636635465E+02 -0.22346528007E+02 -0.17926372041E+03  0.18109260980E+03  0.00000000000E+00 0. -1.
<scales pt_clust_5="13000.00000" pt_clust_6="13000.00000" pt_clust_7="13000.00000" pt_clust_8="13000.00000" pt_clust_9="25.67201"></scales>
<clustering>
<clus scale="   25.672">  2  9  1 -1</clus>
<clus scale="   89.714">  5  6 -1 -1</clus>
<clus scale="   95.526">  7  8 -1 -1</clus>
<clus scale="  133.632">  1  5  2 -1</clus>
<clus scale="   25.672">  2  5  1 -1</clus>
</clustering>
</event>
<event>
 9    1  0.1321469E-005  0.1028310E+03  0.7546771E-02  0.1275868E+00
          2   -1    0    0  502    0 -0.00000000000E+00  0.00000000000E+00  0.23301812970E+03  0.23301812970E+03  0.00000000000E+00 0. -1.
         21   -1    0    0  501  502  0.00000000000E+00 -0.00000000000E+00 -0.71767453647E+02  0.71767453647E+02  0.00000000000E+00 0. -1.
         23    2    1    2    0    0 -0.15198754444E+02 -0.45344749337E+02  0.13416729116E+03  0.16842765447E+03  0.89888065636E+02 0.  0.
         23    2    1    2    0    0  0.36203841523E+02  0.21909310558E+02  0.22220416249E+02  0.10451327567E+03  0.92943756445E+02 0.  0.
        -13    1    4    4    0    0 -0.23634318586E+02  0.17765138761E+02  0.32191151268E+02  0.43708710690E+02  0.00000000000E+00 0.  1.
         13    1    4    4    0    0  0.59838160109E+02  0.41441717966E+01 -0.99707350189E+01  0.60804564976E+02  0.00000000000E+00 0. -1.
        -13    1    3    3    0    0  0.35559334197E+02 -0.33183654333E+02  0.76448839271E+02  0.90609305202E+02  0.00000000000E+00 0. -1.
         13    1    3    3    0    0 -0.50758088641E+02 -0.12161095004E+02  0.57718451894E+02  0.77818349270E+02  0.00000000000E+00 0.  1.
          2    1    1    2  501    0 -0.21005087079E+02  0.23435438779E+02  0.48629686392E+01  0.31844653208E+02  0.00000000000E+00 0. -1.
<scales pt_clust_5="13000.00000" pt_clust_6="13000.00000" pt_clust_7="13000.00000" pt_clust_8="13000.00000" pt_clust_9="31.47115"></scales>
<clustering>
<clus scale="   31.471">  2  9  1 -1</clus>
<clus scale="   89.888">  7  8 -1 -1</clus>
<clus scale="   92.944">  5  6 -1 -1</clus>
<clus scale="  100.078">  1  7  2 -1</clus>
<clus scale="   31.471">  2  5  1 -1</clus>
</clustering>
</event>
<event>
 9    1  0.1321469E-005  0.9418354E+02  0.7546771E-02  0.1293112E+00
          1   -1    0    0  502    0 -0.00000000000E+00  0.00000000000E+00  0.85531269811E+02  0.85531269811E+02  0.00000000000E+00 0. -1.
         21   -1    0    0  501  502  0.00000000000E+00 -0.00000000000E+00 -0.42459553530E+03  0.42459553530E+03  0.00000000000E+00 0. -1.
         23    2    1    2    0    0 -0.28255084837E+02  0.12952243632E+02  0.95721235417E+01  0.96268657374E+02  0.90608600085E+02 0.  0.
         23    2    1    2    0    0 -0.78339359321E+01 -0.32598460104E+02 -0.43708881166E+02  0.10617458254E+03  0.90766433942E+02 0.  0.
        -11    1    3    3    0    0  0.31852142504E+02  0.16471579270E+01 -0.75097740791E+01  0.32766885999E+02  0.00000000000E+00 0.  1.
         11    1    3    3    0    0 -0.60107227341E+02  0.11305085706E+02  0.17081897621E+02  0.63501771375E+02  0.00000000000E+00 0. -1.
        -13    1    4    4    0    0  0.38756596160E+02 -0.14203596290E+01 -0.28376798596E+02  0.48055528984E+02  0.00000000000E+00 0.  1.
         13    1    4    4    0    0 -0.46590532092E+02 -0.31178100475E+02 -0.15332082571E+02  0.58119053552E+02  0.00000000000E+00 0. -1.
          1    1    1    2  501    0  0.36089020769E+02  0.19646216471E+02 -0.30492750787E+03  0.30768356520E+03  0.00000000000E+00 0. -1.
<scales pt_clust_5="13000.00000" pt_clust_6="13000.00000" pt_clust_7="13000.00000" pt_clust_8="13000.00000" pt_clust_9="41.09004"></scales>
<clustering>
<clus scale="   41.090">  2  9  1 -1</clus>
<clus scale="   90.609">  5  6 -1 -1</clus>
<clus scale="   90.766">  7  8 -1 -1</clus>
<clus scale="   94.031">  1  5  2 -1</clus>
<clus scale="   41.090">  2  5  1 -1</clus>
</clustering>
</event>
<event>
 9    1  0.1321469E-005  0.2424829E+03  0.7546771E-02  0.1119396E+00
          2   -1    0    0  502    0 -0.00000000000E+00  0.00000000000E+00  0.21600644950E+04  0.21600644950E+04  0.00000000000E+00 0. -1.
         21   -1    0    0  501  502  0.00000000000E+00 -0.00000000000E+00 -0.11064756272E+03  0.11064756272E+03  0.00000000000E+00 0. -1.
         23    2    1    2    0    0  0.24072869548E+02 -0.17464213114E+03  0.91082081766E+03  0.93193485721E+03  0.88479597516E+02 0.  0.
         23    2    1    2    0    0  0.35322786296E+01  0.30811563230E+03  0.11562379599E+04  0.12013419270E+04  0.10671684831E+03 0.  0.
        -13    1    3    3    0    0  0.56899482872E+02 -0.93190409216E+02  0.48158857606E+03  0.49381125960E+03  0.00000000000E+00 0. -1.
         13    1    3    3    0    0 -0.32826613324E+02 -0.81451721926E+02  0.42923224160E+03  0.43812359760E+03  0.00000000000E+00 0.  1.
        -13    1    4    4    0    0  0.35867842237E+02  0.91592511778E+02  0.49895700768E+03  0.50856050361E+03  0.00000000000E+00 0.  1.
         13    1    4    4    0    0 -0.32335563607E+02  0.21652312053E+03  0.65728095222E+03  0.69278142335E+03  0.00000000000E+00 0. -1.
          2    1    1    2  501    0 -0.27605148178E+02 -0.13347350116E+03 -0.17641845260E+02  0.13743527357E+03  0.00000000000E+00 0. -1.
<scales pt_clust_5="13000.00000" pt_clust_6="13000.00000" pt_clust_7="13000.00000" pt_clust_8="13000.00000" pt_clust_9="136.29827"></scales>
<clustering>
<clus scale="   88.480">  5  6 -1 -1</clus>
<clus scale="  106.717">  7  8 -1 -1</clus>
<clus scale="  136.298">  2  9  1 -1</clus>
<clus scale="  235.028">  1  5  2 -1</clus>
<clus scale="  136.298">  2  5  1 -1</clus>
</clustering>
</event>
<event>
 9    1  0.1321469E-005  0.3801681E+03  0.7546771E-02  0.1050932E+00
         -2   -1    0    0    0  501 -0.00000000000E+00  0.00000000000E+00  0.66533685580E+03  0.66533685580E+03  0.00000000000E+00 0.  1.
         21   -1    0    0  501  502  0.00000000000E+00 -0.00000000000E+00 -0.46338002411E+03  0.46338002411E+03  0.00000000000E+00 0.  1.
         23    2    1    2    0    0  0.28579107099E+03  0.25805750888E+03  0.49012607181E+03  0.62956490287E+03  0.88646412864E+02 0.  0.
         23    2    1    2    0    0 -0.20247249749E+03 -0.21467572537E+03 -0.25133491654E+03  0.39825236740E+03  0.91405298350E+02 0.  0.
        -11    1    3    3    0    0  0.19191435045E+03  0.12978759734E+03  0.33620484452E+03  0.40830091331E+03  0.00000000000E+00 0.  1.
         11    1    3    3    0    0  0.93876720539E+02  0.12826991154E+03  0.15392122729E+03  0.22126398956E+03  0.00000000000E+00 0. -1.
        -11    1    4    4    0    0 -0.71542322785E+02 -0.11586382443E+03 -0.67860526242E+02  0.15214394757E+03  0.00000000000E+00 0. -1.
         11    1    4    4    0    0 -0.13093017471E+03 -0.98811900936E+02 -0.18347439030E+03  0.24610841983E+03  0.00000000000E+00 0.  1.
         -2    1    1    2    0  502 -0.83318573500E+02 -0.43381783518E+02 -0.36834323571E+02  0.10089960963E+03  0.00000000000E+00 0.  1.
<scales pt_clust_5="13000.00000" pt_clust_6="13000.00000" pt_clust_7="13000.00000" pt_clust_8="13000.00000" pt_clust_9="93.93596"></scales>
<clustering>
<clus scale="   88.646">  5  6 -1 -1</clus>
<clus scale="   91.405">  7  8 -1 -1</clus>
<clus scale="   93.936">  2  9  1 -1</clus>
<clus scale="  379.514">  1  5  2 -1</clus>
<clus scale="   93.936">  2  5  1 -1</clus>
</clustering>
</event>
<event>
 9    1  0.1321469E-005  0.1185112E+03  0.7546771E-02  0.1246887E+00
          3   -1    0    0  502    0 -0.00000000000E+00  0.00000000000E+00  0.43523300362E+02  0.43523300362E+02  0.00000000000E+00 0. -1.
         21   -1    0    0  501  502  0.00000000000E+00 -0.00000000000E+00 -0.90838795255E+03  0.90838795255E+03  0.00000000000E+00 0.  1.
         23    2    1    2    0    0  0.57285887927E+00  0.68731721143E+02 -0.63679183181E+02  0.13051446368E+03  0.90854879887E+02 0.  0.
         23    2    1    2    0    0  0.38770604845E+02 -0.82162061954E+02 -0.48346629032E+03  0.50096932678E+03  0.94746230915E+02 0.  0.
        -13    1    3    3    0    0 -0.22762301590E+02 -0.87099398209E+01 -0.38933541622E+02  0.45932625536E+02  0.00000000000E+00 0.  1.
         13    1    3    3    0    0  0.23335160469E+02  0.77441660964E+02 -0.24745641559E+02  0.84581838140E+02  0.00000000000E+00 0. -1.
        -13    1    4    4    0    0  0.55377154016E+02 -0.10066541928E+02 -0.17884972386E+03  0.18749716845E+03  0.00000000000E+00 0. -1.
         13    1    4    4    0    0 -0.16606549171E+02 -0.72095520026E+02 -0.30461656646E+03  0.31347215833E+03  0.00000000000E+00 0.  1.
          3    1    1    2  501    0 -0.39343463724E+02  0.13430340811E+02 -0.31771917869E+03  0.32042746246E+03  0.00000000000E+00 0. -1.
<scales pt_clust_5="13000.00000" pt_clust_6="13000.00000" pt_clust_7="13000.00000" pt_clust_8="13000.00000" pt_clust_9="41.57261"></scales>
<clustering>
<clus scale="   41.573">  2  9  1 -1</clus>
<clus scale="   90.855">  5  6 -1 -1</clus>
<clus scale="   94.746">  7  8 -1 -1</clus>
<clus scale="  115.424">  1  5  2 -1</clus>
<clus scale="   41.573">  2  5  1 -1</clus>
</clustering>
</event>
<event>
 9    1  0.1321469E-005  0.1428897E+03  0.7546771E-02  0.1209881E+00
         -3   -1    0    0    0  501 -0.00000000000E+00  0.00000000000E+00  0.14811208826E+03  0.14811208826E+03  0.00000000000E+00 0.  1.
         21   -1    0    0  501  502  0.00000000000E+00 -0.00000000000E+00 -0.31765725409E+03  0.31765725409E+03  0.00000000000E+00 0. -1.
         23    2    1    2    0    0  0.15215306812E+02  0.11794536728E+03  0.13123556361E+02  0.15189792997E+03  0.93584924933E+02 0.  0.
         23    2    1    2    0    0 -0.32201513188E+02 -0.89301248344E+02 -0.66402616759E+01  0.13472053835E+03  0.95361837080E+02 0.  0.
        -11    1    3    3    0    0  0.23288978167E+02 -0.72239726577E+01  0.10209161617E+02  0.26434622485E+02  0.00000000000E+00 0.  1.
         11    1    3    3    0    0 -0.80736713546E+01  0.12516933993E+03  0.29143947437E+01  0.12546330749E+03  0.00000000000E+00 0. -1.
        -13    1    4    4    0    0 -0.54870128909E+02 -0.93650160360E+02  0.54234429949E+01  0.10867611198E+03  0.00000000000E+00 0.  1.
         13    1    4    4    0    0  0.22668615722E+02  0.43489120156E+01 -0.12063704671E+02  0.26044426368E+02  0.00000000000E+00 0. -1.
         -3    1    1    2    0  502  0.16986206376E+02 -0.28644118931E+02 -0.17602846052E+03  0.17915087404E+03  0.00000000000E+00 0.  1.
<scales pt_clust_5="13000.00000" pt_clust_6="13000.00000" pt_clust_7="13000.00000" pt_clust_8="13000.00000" pt_clust_9="33.30190"></scales>
<clustering>
<clus scale="   33.302">  2  9  1 -1</clus>
<clus scale="   93.585">  5  6 -1 -1</clus>
<clus scale="   95.362">  7  8 -1 -1</clus>
<clus scale="  141.710">  1  5  2 -1</clus>
<clus scale="   33.302">  2  5  1 -1</clus>
</clustering>
</event>
<event>
 9    1  0.1321469E-005  0.1004575E+03  0.7546771E-02  0.1284457E+00
         21   -1    0    0  501  502  0.00000000000E+00  0.00000000000E+00  0.17345383352E+03  0.17345383352E+03  0.00000000000E+00 0.  1.
         -2   -1    0    0    0  501 -0.00000000000E+00 -0.00000000000E+00 -0.75409781467E+02  0.75409781467E+02  0.00000000000E+00 0.  1.
         23    2    1    2    0    0 -0.45904729886E+01  0.52259081276E+01  0.31305523966E+02  0.10534442346E+03  0.10034455224E+03 0.  0.
         23    2    1    2    0    0 -0.17234247099E+02  0.98688193964E+01  0.70335025209E+02  0.11674039399E+03  0.91032362097E+02 0.  0.
        -11    1    4    4    0    0  0.18554439353E+02 -0.20395302929E+02  0.63690141207E+02  0.69402231147E+02  0.00000000000E+00 0. -1.
         11    1    4    4    0    0 -0.35788686453E+02  0.30264122326E+02  0.66448840025E+01  0.47338162845E+02  0.00000000000E+00 0.  1.
        -13    1    3    3    0    0 -0.15478851616E+02  0.41323916200E+02  0.47031369801E+02  0.64491942465E+02  0.00000000000E+00 0.  1.
         13    1    3    3    0    0  0.10888378628E+02 -0.36098008072E+02 -0.15725845835E+02  0.40852480992E+02  0.00000000000E+00 0. -1.
         -2    1    1    2    0  502  0.21824720088E+02 -0.15094727524E+02 -0.35964971240E+01  0.26778797537E+02  0.00000000000E+00 0.  1.
<scales pt_clust_5="13000.00000" pt_clust_6="13000.00000" pt_clust_7="13000.00000" pt_clust_8="13000.00000" pt_clust_9="26.53620"></scales>
<clustering>
<clus scale="   26.536">  1  9  2 -1</clus>
<clus scale="   91.032">  5  6 -1 -1</clus>
<clus scale="   91.157">  1  5  2 -1</clus>
<clus scale="  100.345">  7  8 -1 -1</clus>
<clus scale="   26.536">  1  5  2 -1</clus>
</clustering>
</event>
<event>
 9    1  0.1321469E-005  0.9870709E+02  0.7546771E-02  0.1283347E+00
          1   -1    0    0  502    0 -0.00000000000E+00  0.00000000000E+00  0.17752606882E+03  0.17752606882E+03  0.00000000000E+00 0. -1.
         21   -1    0    0  501  502  0.00000000000E+00 -0.00000000000E+00 -0.14718599930E+03  0.14718599930E+03  0.00000000000E+00 0. -1.
         23    2    1    2    0    0 -0.33632400928E+02 -0.23142884636E+02  0.92749172970E+02  0.13623117294E+03  0.91048294288E+02 0.  0.
         23    2    1    2    0    0  0.42804577014E+02 -0.15274409207E+02  0.14292592313E+02  0.10220710187E+03  0.90423857953E+02 0.  0.
        -11    1    3    3    0    0 -0.49782701369E+02  0.15928792601E+02  0.29109750634E+02  0.59828265655E+02  0.00000000000E+00 0. -1.
         11    1    3    3    0    0  0.16150300441E+02 -0.39071677238E+02  0.63639422335E+02  0.76402907286E+02  0.00000000000E+00 0.  1.
        -13    1    4    4    0    0  0.60093051015E+02  0.17448824063E+02  0.11549231677E+00  0.62575151458E+02  0.00000000000E+00 0.  1.
         13    1    4    4    0    0 -0.17288474001E+02 -0.32723233270E+02  0.14177099996E+02  0.39631950409E+02  0.00000000000E+00 0. -1.
          1    1    1    2  501    0 -0.91721760866E+01  0.38417293843E+02 -0.76701695763E+02  0.86273793317E+02  0.00000000000E+00 0. -1.
<scales pt_clust_5="13000.00000" pt_clust_6="13000.00000" pt_clust_7="13000.00000" pt_clust_8="13000.00000" pt_clust_9="39.49705"></scales>
<clustering>
<clus scale="   39.497">  2  9  1 -1</clus>
<clus scale="   90.424">  7  8 -1 -1</clus>
<clus scale="   91.048">  5  6 -1 -1</clus>
<clus scale="   98.131">  2  7  1 -1</clus>
<clus scale="   39.497">  2  5  1 -1</clus>
</clustering>
</event>
<event>
 9    1  0.1321469E-005  0.9369921E+02  0.7546771E-02  0.1294165E+00
         -1   -1    0    0    0  501 -0.00000000000E+00  0.00000000000E+00  0.23303433045E+03  0.23303433045E+03  0.00000000000E+00 0.  1.
         21   -1    0    0  501  502  0.00000000000E+00 -0.00000000000E+00 -0.65259249315E+02  0.65259249315E+02  0.00000000000E+00 0. -1.
         23    2    1    2    0    0 -0.25237976223E+02 -0.18509069138E+02  0.52355062325E+02  0.10926607927E+03  0.90655846170E+02 0.  0.
         23    2    1    2    0    0 -0.16308643934E+02  0.27572308361E+02  0.43733497095E+02  0.10567750741E+03  0.90713354850E+02 0.  0.
        -11    1    4    4    0    0  0.21641665441E+01 -0.31760139098E+02  0.25867694636E+02  0.41018625990E+02  0.00000000000E+00 0.  1.
         11    1    4    4    0    0 -0.18472810478E+02  0.59332447459E+02  0.17865802459E+02  0.64658881416E+02  0.00000000000E+00 0. -1.
        -11    1    3    3    0    0  0.32564123581E+02 -0.44364556243E+01  0.33328658316E+02  0.46807090790E+02  0.00000000000E+00 0.  1.
         11    1    3    3    0    0 -0.57802099805E+02 -0.14072613513E+02  0.19026404010E+02  0.62458988484E+02  0.00000000000E+00 0. -1.
         -1    1    1    2    0  502  0.41546620157E+02 -0.90632392230E+01  0.71686521709E+02  0.83349993080E+02  0.00000000000E+00 0.  1.
<scales pt_clust_5="13000.00000" pt_clust_6="13000.00000" pt_clust_7="13000.00000" pt_clust_8="13000.00000" pt_clust_9="42.52371"></scales>
<clustering>
<clus scale="   42.524">  2  9  1 -1</clus>
<clus scale="   90.656">  7  8 -1 -1</clus>
<clus scale="   90.713">  5  6 -1 -1</clus>
<clus scale="   93.644">  1  7  2 -1</clus>
<clus scale="   42.524">  2  5  1 -1</clus>
</clustering>
</event>
<event>
 9    1  0.1321469E-005  0.1098494E+03  0.7546771E-02  0.1261263E+00
         21   -1    0    0  501  502  0.00000000000E+00  0.00000000000E+00  0.19795689672E+03  0.19795689672E+03  0.00000000000E+00 0. -1.
         -3   -1    0    0    0  501 -0.00000000000E+00 -0.00000000000E+00 -0.16478175513E+03  0.16478175513E+03  0.00000000000E+00 0.  1.
         23    2    1    2    0    0  0.18061698013E+02  0.47400261892E+02 -0.84440325039E+02  0.13455454492E+03  0.91661045726E+02 0.  0.
         23    2    1    2    0    0 -0.17646213263E+02 -0.97462974025E+02  0.48250269735E+02  0.14263892406E+03  0.90594447835E+02 0.  0.
        -11    1    4    4    0    0 -0.20313547214E+02  0.81062665354E+01 -0.76283474463E+01  0.23163407399E+02  0.00000000000E+00 0.  1.
         11    1    4    4    0    0  0.26673339504E+01 -0.10556924056E+03  0.55878617181E+02  0.11947551666E+03  0.00000000000E+00 0. -1.
        -13    1    3    3    0    0  0.11429500290E+02 -0.20276997065E+02  0.33411717658E+01  0.23514963654E+02  0.00000000000E+00 0. -1.
         13    1    3    3    0    0  0.66321977228E+01  0.67677258958E+02 -0.87781496805E+02  0.11103958127E+03  0.00000000000E+00 0.  1.
         -3    1    1    2    0  502 -0.41548474967E+00  0.50062712133E+02  0.69365196889E+02  0.85545182875E+02  0.00000000000E+00 0.  1.
<scales pt_clust_5="13000.00000" pt_clust_6="13000.00000" pt_clust_7="13000.00000" pt_clust_8="13000.00000" pt_clust_9="50.06444"></scales>
<clustering>
<clus scale="   50.064">  1  9  2 -1</clus>
<clus scale="   90.594">  5  6 -1 -1</clus>
<clus scale="   91.661">  7  8 -1 -1</clus>
<clus scale="  108.961">  1  5  2 -1</clus>
<clus scale="   50.064">  1  5  2 -1</clus>
</clustering>
</event>
<event>
 9    1  0.1321469E-005  0.1037500E+03  0.7546771E-02  0.1273679E+00
         -1   -1    0    0    0  501 -0.00000000000E+00  0.00000000000E+00  0.70427040217E+02  0.70427040217E+02  0.00000000000E+00 0.  1.
         21   -1    0    0  501  502  0.00000000000E+00 -0.00000000000E+00 -0.28778403211E+03  0.28778403211E+03  0.00000000000E+00 0.  1.
         23    2    1    2    0    0 -0.10431043339E+02  0.52313201933E+02 -0.14217100561E+02  0.10896644859E+03  0.93947236304E+02 0.  0.
         23    2    1    2    0    0 -0.83440060974E+01 -0.28780061690E+02 -0.88924323328E+02  0.13112812554E+03  0.91592224774E+02 0.  0.
        -13    1    4    4    0    0 -0.75991288988E+01 -0.51700526880E+02 -0.94084274418E+02  0.10762221858E+03  0.00000000000E+00 0. -1.
         13    1    4    4    0    0 -0.74487719851E+00  0.22920465190E+02  0.51599510905E+01  0.23505906956E+02  0.00000000000E+00 0.  1.
        -13    1    3    3    0    0 -0.26796173747E+02  0.11905246528E+02  0.33374241408E+02  0.44425328495E+02  0.00000000000E+00 0.  1.
         13    1    3    3    0    0  0.16365130408E+02  0.40407955405E+02 -0.47591341968E+02  0.64541120099E+02  0.00000000000E+00 0. -1.
         -1    1    1    2    0  502  0.18775049437E+02 -0.23533140243E+02 -0.11421556800E+03  0.11811649819E+03  0.00000000000E+00 0.  1.
<scales pt_clust_5="13000.00000" pt_clust_6="13000.00000" pt_clust_7="13000.00000" pt_clust_8="13000.00000" pt_clust_9="30.10500"></scales>
<clustering>
<clus scale="   30.105">  2  9  1 -1</clus>
<clus scale="   91.592">  5  6 -1 -1</clus>
<clus scale="   93.947">  7  8 -1 -1</clus>
<clus scale="  101.622">  2  5  1 -1</clus>
<clus scale="   30.105">  2  5  1 -1</clus>
</clustering>
</event>
<event>
 9    1  0.1321469E-005  0.9232042E+02  0.7546771E-02  0.1297830E+00
         21   -1    0    0  501  502  0.00000000000E+00  0.00000000000E+00  0.43000456743E+02  0.43000456743E+02  0.00000000000E+00 0.  1.
         -3   -1    0    0    0  501 -0.00000000000E+00 -0.00000000000E+00 -0.45995893917E+03  0.45995893917E+03  0.00000000000E+00 0.  1.
         23    2    1    2    0    0 -0.38385962915E+00 -0.83741247660E+01 -0.25530845374E+03  0.27132517943E+03  0.91458586958E+02 0.  0.
         23    2    1    2    0    0  0.49154487373E+02 -0.12856636610E+01 -0.62049837395E+02  0.12031447992E+03  0.90595668757E+02 0.  0.
        -11    1    3    3    0    0 -0.26338479317E+02  0.30490486385E+02 -0.75919743856E+02  0.85948779862E+02  0.00000000000E+00 0. -1.
         11    1    3    3    0    0  0.25954619687E+02 -0.38864611151E+02 -0.17938870989E+03  0.18537639957E+03  0.00000000000E+00 0.  1.
        -13    1    4    4    0    0  0.74842119359E+02  0.69879793509E+00 -0.56954493447E+02  0.94051291711E+02  0.00000000000E+00 0.  1.
         13    1    4    4    0    0 -0.25687631986E+02 -0.19844615961E+01 -0.50953439481E+01  0.26263188208E+02  0.00000000000E+00 0. -1.
         -3    1    1    2    0  502 -0.48770627744E+02  0.96597884270E+01 -0.99600191292E+02  0.11131973656E+03  0.00000000000E+00 0.  1.
<scales pt_clust_5="13000.00000" pt_clust_6="13000.00000" pt_clust_7="13000.00000" pt_clust_8="13000.00000" pt_clust_9="49.71809"></scales>
<clustering>
<clus scale="   49.718">  1  9  2 -1</clus>
<clus scale="   90.596">  7  8 -1 -1</clus>
<clus scale="   91.459">  5  6 -1 -1</clus>
<clus scale="   91.466">  1  7  2 -1</clus>
<clus scale="   49.718">  1  5  2 -1</clus>
</clustering>
</event>
<event>
 9    1  0.1321469E-005  0.2139894E+03  0.7546771E-02  0.1138618E+00
          2   -1    0    0  502    0 -0.00000000000E+00  0.00000000000E+00  0.74343411476E+03  0.74343411476E+03  0.00000000000E+00 0. -1.
         21   -1    0    0  501  502  0.00000000000E+00 -0.00000000000E+00 -0.18773549359E+03  0.18773549359E+03  0.00000000000E+00 0. -1.
         23    2    1    2    0    0 -0.10212944343E+03 -0.14667514659E+03  0.39197105087E+03  0.44008955768E+03  0.89963838397E+02 0.  0.
         23    2    1    2    0    0  0.17633841060E+03  0.22093475946E+03  0.83853082913E+00  0.29729073184E+03  0.92052556236E+02 0.  0.
        -11    1    4    4    0    0  0.12068450244E+03  0.78205375787E+02  0.69119903931E+01  0.14397432251E+03  0.00000000000E+00 0.  1.
         11    1    4    4    0    0  0.55653908166E+02  0.14272938367E+03 -0.60734595640E+01  0.15331640933E+03  0.00000000000E+00 0. -1.
        -11    1    3    3    0    0 -0.25350037434E+02 -0.10091646162E+03  0.26602952825E+03  0.28565445301E+03  0.00000000000E+00 0.  1.
         11    1    3    3    0    0 -0.76779405996E+02 -0.45758684977E+02  0.12594152261E+03  0.15443510467E+03  0.00000000000E+00 0. -1.
          2    1    1    2  501    0 -0.74208967174E+02 -0.74259612865E+02  0.16288903948E+03  0.19378931883E+03  0.00000000000E+00 0. -1.
<scales pt_clust_5="13000.00000" pt_clust_6="13000.00000" pt_clust_7="13000.00000" pt_clust_8="13000.00000" pt_clust_9="104.98320"></scales>
<clustering>
<clus scale="   89.964">  7  8 -1 -1</clus>
<clus scale="   92.053">  5  6 -1 -1</clus>
<clus scale="  104.983">  2  9  1 -1</clus>
<clus scale="  213.099">  1  7  2 -1</clus>
<clus scale="  104.983">  2  5  1 -1</clus>
</clustering>
</event>
<event>
 9    1  0.1321469E-005  0.1465706E+03  0.7546771E-02  0.1204834E+00
         21   -1    0    0  501  502  0.00000000000E+00  0.00000000000E+00  0.66099314756E+02  0.66099314756E+02  0.00000000000E+00 0.  1.
          1   -1    0    0  502    0 -0.00000000000E+00 -0.00000000000E+00 -0.78332355725E+03  0.78332355725E+03  0.00000000000E+00 0. -1.
         23    2    1    2    0    0  0.59187016084E+02 -0.79105124328E+02 -0.32943944422E+03  0.35574161028E+03  0.90890166197E+02 0.  0.
         23    2    1    2    0    0 -0.10136132264E+03  0.88647317934E+02 -0.41281525650E+03  0.44371878149E+03  0.91309672816E+02 0.  0.
        -11    1    4    4    0    0 -0.67706616706E+02 -0.92958528152E-01 -0.16499772599E+03  0.17834921970E+03  0.00000000000E+00 0. -1.
         11    1    4    4    0    0 -0.33654705930E+02  0.88740276462E+02 -0.24781753051E+03  0.26536956179E+03  0.00000000000E+00 0.  1.
        -13    1    3    3    0    0  0.57480821471E+02 -0.36267868366E+02 -0.91555846986E+02  0.11402577003E+03  0.00000000000E+00 0.  1.
         13    1    3    3    0    0  0.17061946131E+01 -0.42837255962E+02 -0.23788359723E+03  0.24171584026E+03  0.00000000000E+00 0. -1.
          1    1    1    2  501    0  0.42174306552E+02 -0.95421936058E+01  0.25030458223E+02  0.49962480230E+02  0.00000000000E+00 0. -1.
<scales pt_clust_5="13000.00000" pt_clust_6="13000.00000" pt_clust_7="13000.00000" pt_clust_8="13000.00000" pt_clust_9="43.24032"></scales>
<clustering>
<clus scale="   43.240">  1  9  2 -1</clus>
<clus scale="   90.890">  7  8 -1 -1</clus>
<clus scale="   91.310">  5  6 -1 -1</clus>
<clus scale="  146.310">  2  7  1 -1</clus>
<clus scale="   43.240">  1  5  2 -1</clus>
</clustering>
</event>
<event>
 9    1  0.1321469E-005  0.1522155E+03  0.7546771E-02  0.1199100E+00
         -1   -1    0    0    0  501 -0.00000000000E+00  0.00000000000E+00  0.57406585346E+03  0.57406585346E+03  0.00000000000E+00 0.  1.
         21   -1    0    0  501  502  0.00000000000E+00 -0.00000000000E+00 -0.77373645990E+02  0.77373645990E+02  0.00000000000E+00 0.  1.
         23    2    1    2    0    0 -0.91826219506E+02 -0.78514763437E+02  0.30648155478E+03  0.34227564366E+03  0.92871148125E+02 0.  0.
         23    2    1    2    0    0  0.13739102379E+03  0.11436539865E+02  0.11886015953E+03  0.20115213262E+03  0.85599971225E+02 0.  0.
        -11    1    4    4    0    0  0.22202695387E+02  0.32994138214E+01  0.73898504875E+02  0.77232343204E+02  0.00000000000E+00 0. -1.
         11    1    4    4    0    0  0.11518832841E+03  0.81371260437E+01  0.44961654653E+02  0.12391978942E+03  0.00000000000E+00 0.  1.
        -11    1    3    3    0    0 -0.58025218768E+02  0.33778873361E+01  0.78428138505E+02  0.97618179891E+02  0.00000000000E+00 0.  1.
         11    1    3    3    0    0 -0.33801000738E+02 -0.81892650773E+02  0.22805341628E+03  0.24465746377E+03  0.00000000000E+00 0. -1.
         -1    1    1    2    0  502 -0.45564804286E+02  0.67078223572E+02  0.71350493161E+02  0.10801172317E+03  0.00000000000E+00 0.  1.
<scales pt_clust_5="13000.00000" pt_clust_6="13000.00000" pt_clust_7="13000.00000" pt_clust_8="13000.00000" pt_clust_9="81.09032"></scales>
<clustering>
<clus scale="   81.090">  2  9  1 -1</clus>
<clus scale="   85.600">  5  6 -1 -1</clus>
<clus scale="   92.871">  7  8 -1 -1</clus>
<clus scale="  147.891">  2  5  1 -1</clus>
<clus scale="   81.090">  2  5  1 -1</clus>
</clustering>
</event>
<event>
 9    1  0.1321469E-005  0.1053151E+03  0.7546771E-02  0.1273092E+00
         21   -1    0    0  501  502  0.00000000000E+00  0.00000000000E+00  0.33926084271E+02  0.33926084271E+02  0.00000000000E+00 0.  1.
          2   -1    0    0  502    0 -0.00000000000E+00 -0.00000000000E+00 -0.73307440193E+03  0.73307440193E+03  0.00000000000E+00 0. -1.
         23    2    1    2    0    0 -0.21276338929E+02  0.53704738010E+02 -0.56577575011E+03  0.57567837973E+03  0.89255341540E+02 0.  0.
         23    2    1    2    0    0 -0.15624680834E+02 -0.55917882620E+02 -0.10551056812E+03  0.14503091637E+03  0.80811796605E+02 0.  0.
        -11    1    3    3    0    0  0.33622755761E+02  0.34443692907E+02 -0.25858389825E+03  0.26302564537E+03  0.00000000000E+00 0.  1.
         11    1    3    3    0    0 -0.54899094690E+02  0.19261045103E+02 -0.30719185186E+03  0.31265273436E+03  0.00000000000E+00 0. -1.
        -11    1    4    4    0    0  0.13900278805E+02 -0.48080477154E+02 -0.19426315209E+02  0.53687351926E+02  0.00000000000E+00 0.  1.
         11    1    4    4    0    0 -0.29524959639E+02 -0.78374054664E+01 -0.86084252915E+02  0.91343564448E+02  0.00000000000E+00 0. -1.
          2    1    1    2  501    0  0.36901019763E+02  0.22131446104E+01 -0.27861999423E+02  0.46291190095E+02  0.00000000000E+00 0. -1.
<scales pt_clust_5="13000.00000" pt_clust_6="13000.00000" pt_clust_7="13000.00000" pt_clust_8="13000.00000" pt_clust_9="36.96733"></scales>
<clustering>
<clus scale="   36.967">  1  9  2 -1</clus>
<clus scale="   80.812">  7  8 -1 -1</clus>
<clus scale="   89.255">  5  6 -1 -1</clus>
<clus scale="   98.261">  1  7  2 -1</clus>
<clus scale="   36.967">  1  5  2 -1</clus>
</clustering>
</event>
<event>
 9    1  0.1321469E-005  0.1828444E+03  0.7546771E-02  0.1188287E+00
         21   -1    0    0  501  502  0.00000000000E+00  0.00000000000E+00  0.13362311403E+03  0.13362311403E+03  0.00000000000E+00 0. -1.
          1   -1    0    0  502    0 -0.00000000000E+00 -0.00000000000E+00 -0.85228740723E+03  0.85228740723E+03  0.00000000000E+00 0. -1.
         23    2    1    2    0    0  0.52047927023E+02 -0.34214126812E+02 -0.16601536816E+03  0.19815584837E+03  0.88459282157E+02 0.  0.
         23    2    1    2    0    0 -0.19855010958E+03 -0.12026225952E+02 -0.59005743402E+03  0.62963934705E+03  0.93333572629E+02 0.  0.
        -11    1    3    3    0    0  0.56264684700E+02  0.15082993145E+02 -0.98803482219E+02  0.11469672849E+03  0.00000000000E+00 0.  1.
         11    1    3    3    0    0 -0.42167576771E+01 -0.49297119957E+02 -0.67211885939E+02  0.83459119890E+02  0.00000000000E+00 0. -1.
        -13    1    4    4    0    0 -0.92891937567E+02 -0.19520734989E+02 -0.15401648069E+03  0.18091723932E+03  0.00000000000E+00 0.  1.
         13    1    4    4    0    0 -0.10565817202E+03  0.74945090366E+01 -0.43604095333E+03  0.44872210773E+03  0.00000000000E+00 0. -1.
          1    1    1    2  501    0  0.14650218256E+03  0.46240352764E+02  0.37408508982E+02  0.15811532583E+03  0.00000000000E+00 0. -1.
<scales pt_clust_5="13000.00000" pt_clust_6="13000.00000" pt_clust_7="13000.00000" pt_clust_8="13000.00000" pt_clust_9="157.22884"></scales>
<clustering>
<clus scale="   88.459">  5  6 -1 -1</clus>
<clus scale="   93.334">  7  8 -1 -1</clus>
<clus scale="  108.188">  2  5  1 -1</clus>
<clus scale="  157.229">  1  9  2 -1</clus>
<clus scale="  157.229">  1  5  2 -1</clus>
</clustering>
</event>
<event>
 9    1  0.1321469E-005  0.1617035E+03  0.7546771E-02  0.1186888E+00
         21   -1    0    0  501  502  0.00000000000E+00  0.00000000000E+00  0.19535952807E+03  0.19535952807E+03  0.00000000000E+00 0.  1.
          1   -1    0    0  502    0 -0.00000000000E+00 -0.00000000000E+00 -0.23588105534E+03  0.23588105534E+03  0.00000000000E+00 0. -1.
         23    2    1    2    0    0 -0.59880270758E+02  0.11712733596E+03 -0.11971759888E+03  0.20028435734E+03  0.92070954486E+02 0.  0.
         23    2    1    2    0    0  0.35290003339E+02 -0.13218429281E+03  0.21763988491E+02  0.16669241532E+03  0.92707165455E+02 0.  0.
        -11    1    3    3    0    0  0.13848551405E+02  0.50733255220E+02 -0.12206251174E+02  0.53987388610E+02  0.00000000000E+00 0. -1.
         11    1    3    3    0    0 -0.73728822163E+02  0.66394080739E+02 -0.10751134771E+03  0.14629696873E+03  0.00000000000E+00 0.  1.
        -13    1    4    4    0    0  0.54459099212E+02 -0.87435052148E+02 -0.17077168392E+02  0.10441413463E+03  0.00000000000E+00 0. -1.
         13    1    4    4    0    0 -0.19169095873E+02 -0.44749240664E+02  0.38841156884E+02  0.62278280681E+02  0.00000000000E+00 0.  1.
          1    1    1    2  501    0  0.24590267418E+02  0.15056956853E+02  0.57432083117E+02  0.64263810753E+02  0.00000000000E+00 0. -1.
<scales pt_clust_5="13000.00000" pt_clust_6="13000.00000" pt_clust_7="13000.00000" pt_clust_8="13000.00000" pt_clust_9="28.83389"></scales>
<clustering>
<clus scale="   28.834">  1  9  2 -1</clus>
<clus scale="   92.071">  5  6 -1 -1</clus>
<clus scale="   92.707">  7  8 -1 -1</clus>
<clus scale="  161.340">  2  5  1 -1</clus>
<clus scale="   28.834">  1  5  2 -1</clus>
</clustering>
</event>
<event>
 9    1  0.1321469E-005  0.9536364E+02  0.7546771E-02  0.1290906E+00
         21   -1    0    0  501  502  0.00000000000E+00  0.00000000000E+00  0.30752686898E+02  0.30752686898E+02  0.00000000000E+00 0.  1.
          2   -1    0    0  502    0 -0.00000000000E+00 -0.00000000000E+00 -0.58755788679E+03  0.58755788679E+03  0.00000000000E+00 0. -1.
         23    2    1    2    0    0  0.23273659870E+02  0.46125179917E+02 -0.28817639198E+03  0.30567406977E+03  0.87873821861E+02 0.  0.
         23    2    1    2    0    0  0.26555733944E+01  0.20057907169E-01 -0.90861936024E+02  0.12715666983E+03  0.88914986321E+02 0.  0.
        -11    1    4    4    0    0  0.42810491516E+02  0.15324216779E+02 -0.39893109188E+02  0.60489916221E+02  0.00000000000E+00 0.  1.
         11    1    4    4    0    0 -0.40154918121E+02 -0.15304158872E+02 -0.50968826836E+02  0.66666753612E+02  0.00000000000E+00 0. -1.
        -13    1    3    3    0    0  0.34828641501E+02 -0.11635710609E+02 -0.16634058958E+03  0.17034557749E+03  0.00000000000E+00 0. -1.
         13    1    3    3    0    0 -0.11554981631E+02  0.57760890526E+02 -0.12183580240E+03  0.13532849227E+03  0.00000000000E+00 0.  1.
          2    1    1    2  501    0 -0.25929233264E+02 -0.46145237824E+02 -0.17776687189E+03  0.18547983409E+03  0.00000000000E+00 0. -1.
<scales pt_clust_5="13000.00000" pt_clust_6="13000.00000" pt_clust_7="13000.00000" pt_clust_8="13000.00000" pt_clust_9="52.93119"></scales>
<clustering>
<clus scale="   52.931">  1  9  2 -1</clus>
<clus scale="   87.874">  7  8 -1 -1</clus>
<clus scale="   88.915">  5  6 -1 -1</clus>
<clus scale="   94.394">  2  7  1 -1</clus>
<clus scale="   52.931">  1  5  2 -1</clus>
</clustering>
</event>
<event>
 9    1  0.1321469E-005  0.1048280E+03  0.7546771E-02  0.1270574E+00
          1   -1    0    0  502    0 -0.00000000000E+00  0.00000000000E+00  0.70426360353E+02  0.70426360353E+02  0.00000000000E+00 0. -1.
         21   -1    0    0  501  502  0.00000000000E+00 -0.00000000000E+00 -0.30861220715E+03  0.30861220715E+03  0.00000000000E+00 0.  1.
         23    2    1    2    0    0 -0.48547441023E+02  0.95832274534E+01 -0.13323723018E+02  0.10501592987E+03  0.91663142284E+02 0.  0.
         23    2    1    2    0    0  0.44853913633E+02 -0.40483571018E+02 -0.21477377823E+03  0.24130799117E+03  0.91929199373E+02 0.  0.
        -11    1    4    4    0    0  0.41121932274E+02 -0.13618145232E+02 -0.20917430418E+03  0.21361263241E+03  0.00000000000E+00 0.  1.
         11    1    4    4    0    0  0.37319813585E+01 -0.26865425785E+02 -0.55994740480E+01  0.27695358765E+02  0.00000000000E+00 0. -1.
        -13    1    3    3    0    0 -0.65945086960E+02 -0.76166562115E+01 -0.32518202343E+02  0.73920236942E+02  0.00000000000E+00 0. -1.
         13    1    3    3    0    0  0.17397645937E+02  0.17199883665E+02  0.19194479325E+02  0.31095692929E+02  0.00000000000E+00 0.  1.
          1    1    1    2  501    0  0.36935273909E+01  0.30900343564E+02 -0.10088345545E+02  0.32714646457E+02  0.00000000000E+00 0. -1.
<scales pt_clust_5="13000.00000" pt_clust_6="13000.00000" pt_clust_7="13000.00000" pt_clust_8="13000.00000" pt_clust_9="31.12032"></scales>
<clustering>
<clus scale="   31.120">  2  9  1 -1</clus>
<clus scale="   91.663">  7  8 -1 -1</clus>
<clus scale="   91.929">  5  6 -1 -1</clus>
<clus scale="  104.595">  1  7  2 -1</clus>
<clus scale="   31.120">  2  5  1 -1</clus>
</clustering>
</event>
<event>
 9    1  0.1340533E-005  0.9466291E+02  0.7546771E-02  0.1292304E+00
          2   -1    0    0  502    0 -0.00000000000E+00  0.00000000000E+00  0.24117215976E+03  0.24117215976E+03  0.00000000000E+00 0. -1.
         21   -1    0    0  501  502  0.00000000000E+00 -0.00000000000E+00 -0.82217015310E+02  0.82217015310E+02  0.00000000000E+00 0.  1.
         23    2    1    2    0    0 -0.53378223903E+01  0.16433094799E+02  0.17466918439E+03  0.19798977846E+03  0.91608348119E+02 0.  0.
         23    2    1    2    0    0  0.92273926283E+01 -0.39558494583E+02 -0.15092170742E+02  0.10194093134E+03  0.92272209226E+02 0.  0.
        -11    1    4    4    0    0 -0.13003436606E+02  0.27132400202E+02 -0.22920776838E+00  0.30088353901E+02  0.00000000000E+00 0. -1.
         11    1    4    4    0    0  0.22230829234E+02 -0.66690894785E+02 -0.14862962973E+02  0.71852577435E+02  0.00000000000E+00 0.  1.
        -13    1    3    3    0    0  0.73356110082E-01  0.54626876942E+02  0.10027872184E+03  0.11419248277E+03  0.00000000000E+00 0. -1.
         13    1    3    3    0    0 -0.54111785004E+01 -0.38193782144E+02  0.74390462550E+02  0.83797295694E+02  0.00000000000E+00 0.  1.
          2    1    1    2  501    0 -0.38895702381E+01  0.23125399784E+02 -0.62186920008E+00  0.23458465277E+02  0.00000000000E+00 0. -1.
<scales pt_clust_5="13000.00000" pt_clust_6="13000.00000" pt_clust_7="13000.00000" pt_clust_8="13000.00000" pt_clust_9="23.45022"></scales>
<clustering>
<clus scale="   23.450">  2  9  1 -1</clus>
<clus scale="   91.608">  7  8 -1 -1</clus>
<clus scale="   92.272">  5  6 -1 -1</clus>
<clus scale="   94.016">  1  7  2 -1</clus>
<clus scale="   23.450">  2  5  1 -1</clus>
</clustering>
</event>
<event>
 9    1  0.1321469E-005  0.9507697E+02  0.7546771E-02  0.1291530E+00
         -2   -1    0    0    0  501 -0.00000000000E+00  0.00000000000E+00  0.19226379784E+03  0.19226379784E+03  0.00000000000E+00 0. -1.
         21   -1    0    0  501  502  0.00000000000E+00 -0.00000000000E+00 -0.11945824215E+03  0.11945824215E+03  0.00000000000E+00 0.  1.
         23    2    1    2    0    0 -0.30531186431E+01  0.25600640106E+02  0.97533500332E+02  0.13529103714E+03  0.90145253537E+02 0.  0.
         23    2    1    2    0    0 -0.13401425661E+02 -0.37674247360E+02  0.42214907094E+02  0.10644622295E+03  0.89161386689E+02 0.  0.
        -11    1    3    3    0    0  0.40729622720E+02 -0.36470150636E+01  0.47195183285E+02  0.62446682947E+02  0.00000000000E+00 0. -1.
         11    1    3    3    0    0 -0.43782741363E+02  0.29247655170E+02  0.50338317046E+02  0.72844354190E+02  0.00000000000E+00 0.  1.
        -13    1    4    4    0    0 -0.36636709148E+02  0.29502920974E+01 -0.81984819151E+01  0.37658568565E+02  0.00000000000E+00 0.  1.
         13    1    4    4    0    0  0.23235283488E+02 -0.40624539458E+02  0.50413389009E+02  0.68787654389E+02  0.00000000000E+00 0. -1.
         -2    1    1    2    0  502  0.16454544304E+02  0.12073607254E+02 -0.66942851735E+02  0.69984779908E+02  0.00000000000E+00 0. -1.
<scales pt_clust_5="13000.00000" pt_clust_6="13000.00000" pt_clust_7="13000.00000" pt_clust_8="13000.00000" pt_clust_9="20.40892"></scales>
<clustering>
<clus scale="   20.409">  2  9  1 -1</clus>
<clus scale="   89.161">  7  8 -1 -1</clus>
<clus scale="   90.145">  5  6 -1 -1</clus>
<clus scale="   94.145">  2  7  1 -1</clus>
<clus scale="   20.409">  2  5  1 -1</clus>
</clustering>
</event>
<event>
 9    1  0.1321469E-005  0.9143293E+02  0.7546771E-02  0.1300452E+00
          2   -1    0    0  502    0 -0.00000000000E+00  0.00000000000E+00  0.25741856389E+03  0.25741856389E+03  0.00000000000E+00 0. -1.
         21   -1    0    0  501  502  0.00000000000E+00 -0.00000000000E+00 -0.74816055084E+02  0.74816055084E+02  0.00000000000E+00 0. -1.
         23    2    1    2    0    0  0.31436203594E+01 -0.16923212891E+02  0.11705055693E+03  0.14787404265E+03  0.88710890694E+02 0.  0.
         23    2    1    2    0    0 -0.22291049414E+02 -0.69601535312E+01  0.10096177114E+03  0.13755358399E+03  0.90456479131E+02 0.  0.
        -11    1    4    4    0    0 -0.36574878580E+02  0.30916431534E+02  0.76506465724E+02  0.90259552289E+02  0.00000000000E+00 0.  1.
         11    1    4    4    0    0  0.14283829165E+02 -0.37876585065E+02  0.24455305412E+02  0.47294031702E+02  0.00000000000E+00 0. -1.
        -13    1    3    3    0    0 -0.38947661509E+02  0.29656925116E+01  0.30349901316E+02  0.49465464508E+02  0.00000000000E+00 0.  1.
         13    1    3    3    0    0  0.42091281869E+02 -0.19888905402E+02  0.86700655614E+02  0.98408578139E+02  0.00000000000E+00 0. -1.
          2    1    1    2  501    0  0.19147429055E+02  0.23883366422E+02 -0.35409819263E+02  0.46806992333E+02  0.00000000000E+00 0. -1.
<scales pt_clust_5="13000.00000" pt_clust_6="13000.00000" pt_clust_7="13000.00000" pt_clust_8="13000.00000" pt_clust_9="30.61110"></scales>
<clustering>
<clus scale="   30.611">  2  9  1 -1</clus>
<clus scale="   88.711">  7  8 -1 -1</clus>
<clus scale="   89.706">  1  7  2 -1</clus>
<clus scale="   90.456">  5  6 -1 -1</clus>
<clus scale="   30.611">  2  5  1 -1</clus>
</clustering>
</event>
<event>
 9    1  0.1321469E-005  0.1295793E+03  0.7546771E-02  0.1229020E+00
          1   -1    0    0  502    0 -0.00000000000E+00  0.00000000000E+00  0.25142842037E+03  0.25142842037E+03  0.00000000000E+00 0. -1.
         21   -1    0    0  501  502  0.00000000000E+00 -0.00000000000E+00 -0.22084287646E+03  0.22084287646E+03  0.00000000000E+00 0.  1.
         23    2    1    2    0    0 -0.35561933478E+02  0.61597453019E+02  0.11251834487E+03  0.16212765328E+03  0.92553231684E+02 0.  0.
         23    2    1    2    0    0  0.47296803328E+02 -0.11473843383E+03  0.52252645319E+02  0.16534238318E+03  0.95947219493E+02 0.  0.
        -11    1    4    4    0    0  0.66186244505E+02 -0.40174089602E+02  0.40979925389E+02  0.87600974435E+02  0.00000000000E+00 0. -1.
         11    1    4    4    0    0 -0.18889441177E+02 -0.74564344233E+02  0.11272719930E+02  0.77741408744E+02  0.00000000000E+00 0.  1.
        -13    1    3    3    0    0 -0.21588190465E+02 -0.22551412128E+02  0.25971623891E+02  0.40609622062E+02  0.00000000000E+00 0.  1.
         13    1    3    3    0    0 -0.13973743014E+02  0.84148865147E+02  0.86546720980E+02  0.12151803122E+03  0.00000000000E+00 0. -1.
          1    1    1    2  501    0 -0.11734869850E+02  0.53140980816E+02 -0.13418544628E+03  0.14480126038E+03  0.00000000000E+00 0. -1.
<scales pt_clust_5="13000.00000" pt_clust_6="13000.00000" pt_clust_7="13000.00000" pt_clust_8="13000.00000" pt_clust_9="54.42124"></scales>
<clustering>
<clus scale="   54.421">  2  9  1 -1</clus>
<clus scale="   92.553">  7  8 -1 -1</clus>
<clus scale="   95.947">  5  6 -1 -1</clus>
<clus scale="  127.087">  1  7  2 -1</clus>
<clus scale="   54.421">  2  5  1 -1</clus>
</clustering>
</event>
<event>
 9    1  0.1321469E-005  0.1052630E+03  0.7546771E-02  0.1269673E+00
          3   -1    0    0  502    0 -0.00000000000E+00  0.00000000000E+00  0.43584995229E+03  0.43584995229E+03  0.00000000000E+00 0. -1.
         21   -1    0    0  501  502  0.00000000000E+00 -0.00000000000E+00 -0.20229922808E+03  0.20229922808E+03  0.00000000000E+00 0. -1.
         23    2    1    2    0    0 -0.49012244797E+02  0.73299209269E+00  0.36535256982E+03  0.37993896974E+03  0.92023817749E+02 0.  0.
         23    2    1    2    0    0  0.64105055415E+02  0.37903755307E+02  0.15864507028E+01  0.11852116748E+03  0.92187838236E+02 0.  0.
        -11    1    3    3    0    0 -0.38441399055E+02  0.44701642239E+02  0.21435737075E+03  0.22231747654E+03  0.00000000000E+00 0.  1.
         11    1    3    3    0    0 -0.10570845742E+02 -0.43968650147E+02  0.15099519907E+03  0.15762149320E+03  0.00000000000E+00 0. -1.
        -13    1    4    4    0    0  0.16669243664E+02 -0.25201559997E+02  0.21522377936E+02  0.37097103157E+02  0.00000000000E+00 0.  1.
         13    1    4    4    0    0  0.47435811750E+02  0.63105315304E+02 -0.19935927234E+02  0.81424064322E+02  0.00000000000E+00 0. -1.
          3    1    1    2  501    0 -0.15092810618E+02 -0.38636747400E+02 -0.13338829632E+03  0.13968904315E+03  0.00000000000E+00 0. -1.
<scales pt_clust_5="13000.00000" pt_clust_6="13000.00000" pt_clust_7="13000.00000" pt_clust_8="13000.00000" pt_clust_9="41.48001"></scales>
<clustering>
<clus scale="   41.480">  2  9  1 -1</clus>
<clus scale="   92.024">  5  6 -1 -1</clus>
<clus scale="   92.188">  7  8 -1 -1</clus>
<clus scale="  105.119">  1  5  2 -1</clus>
<clus scale="   41.480">  2  5  1 -1</clus>
</clustering>
</event>
<event>
 9    1  0.1321469E-005  0.1197578E+03  0.7546771E-02  0.1245457E+00
          1   -1    0    0  502    0 -0.00000000000E+00  0.00000000000E+00  0.30584289421E+03  0.30584289421E+03  0.00000000000E+00 0. -1.
         21   -1    0    0  501  502  0.00000000000E+00 -0.00000000000E+00 -0.74895844632E+02  0.74895844632E+02  0.00000000000E+00 0. -1.
         23    2    1    2    0    0 -0.68721054671E+02 -0.46738178351E+02  0.18144335975E+03  0.22003344049E+03  0.92660571257E+02 0.  0.
         23    2    1    2    0    0  0.40538986889E+02  0.12175572282E+02  0.43992218807E+02  0.11577002272E+03  0.98365282631E+02 0.  0.
        -13    1    3    3    0    0 -0.71519801382E+02 -0.69836405259E+02  0.13384820407E+03  0.16705552138E+03  0.00000000000E+00 0. -1.
         13    1    3    3    0    0  0.27987467116E+01  0.23098226908E+02  0.47595155680E+02  0.52977919115E+02  0.00000000000E+00 0.  1.
        -13    1    4    4    0    0  0.72901204118E+01  0.52225309493E+02  0.34069160727E+02  0.62780064669E+02  0.00000000000E+00 0.  1.
         13    1    4    4    0    0  0.33248866477E+02 -0.40049737212E+02  0.99230580806E+01  0.52989958053E+02  0.00000000000E+00 0. -1.
          1    1    1    2  501    0  0.28182067782E+02  0.34562606069E+02  0.55114710161E+01  0.44935275625E+02  0.00000000000E+00 0. -1.
<scales pt_clust_5="13000.00000" pt_clust_6="13000.00000" pt_clust_7="13000.00000" pt_clust_8="13000.00000" pt_clust_9="44.59599"></scales>
<clustering>
<clus scale="   44.596">  2  9  1 -1</clus>
<clus scale="   92.661">  5  6 -1 -1</clus>
<clus scale="   98.365">  7  8 -1 -1</clus>
<clus scale="  115.118">  1  5  2 -1</clus>
<clus scale="   44.596">  2  5  1 -1</clus>
</clustering>
</event>
<event>
 9    1  0.1321469E-005  0.3043233E+03  0.7546771E-02  0.1090736E+00
         -4   -1    0    0    0  501 -0.00000000000E+00  0.00000000000E+00  0.65908118041E+03  0.65908118041E+03  0.00000000000E+00 0.  1.
         21   -1    0    0  501  502  0.00000000000E+00 -0.00000000000E+00 -0.31495767749E+03  0.31495767749E+03  0.00000000000E+00 0.  1.
         23    2    1    2    0    0 -0.17004557164E+03 -0.15689501831E+03  0.15360825830E+03  0.29205779756E+03  0.90392017835E+02 0.  0.
         23    2    1    2    0    0 -0.77207793958E+02  0.32299382791E+03  0.16793170900E+03  0.38326203278E+03  0.91666081865E+02 0.  0.
        -11    1    4    4    0    0  0.13828695934E+02  0.86812332549E+02  0.20245053940E+02  0.90207960418E+02  0.00000000000E+00 0. -1.
         11    1    4    4    0    0 -0.91036489892E+02  0.23618149536E+03  0.14768665506E+03  0.29305407236E+03  0.00000000000E+00 0.  1.
        -13    1    3    3    0    0 -0.22115775952E+02  0.12529085628E+00  0.45868733598E+02  0.50922136303E+02  0.00000000000E+00 0. -1.
         13    1    3    3    0    0 -0.14792979569E+03 -0.15702030917E+03  0.10773952470E+03  0.24113566125E+03  0.00000000000E+00 0.  1.
         -4    1    1    2    0  502  0.24725336560E+03 -0.16609880960E+03  0.22583535629E+02  0.29871902757E+03  0.00000000000E+00 0.  1.
<scales pt_clust_5="13000.00000" pt_clust_6="13000.00000" pt_clust_7="13000.00000" pt_clust_8="13000.00000" pt_clust_9="290.18957"></scales>
<clustering>
<clus scale="   90.392">  7  8 -1 -1</clus>
<clus scale="   91.666">  5  6 -1 -1</clus>
<clus scale="  248.399">  1  7  2 -1</clus>
<clus scale="  290.190">  2  9  1 -1</clus>
<clus scale="  290.190">  2  5  1 -1</clus>
</clustering>
</event>
<event>
 9    1  0.1321469E-005  0.9478204E+02  0.7546771E-02  0.1292846E+00
         -2   -1    0    0    0  501 -0.00000000000E+00  0.00000000000E+00  0.37457617467E+03  0.37457617467E+03  0.00000000000E+00 0.  1.
         21   -1    0    0  501  502  0.00000000000E+00 -0.00000000000E+00 -0.53096106039E+02  0.53096106039E+02  0.00000000000E+00 0. -1.
         23    2    1    2    0    0  0.51384135856E+01  0.55697733270E+01  0.27465542361E+03  0.28971339696E+03  0.91873962531E+02 0.  0.
         23    2    1    2    0    0 -0.17791695185E+02 -0.26816897787E+02  0.52858416325E+02  0.11250397795E+03  0.93954470110E+02 0.  0.
        -11    1    4    4    0    0 -0.51467209564E+02  0.28503088602E+01  0.14716147162E+02  0.53605623848E+02  0.00000000000E+00 0. -1.
         11    1    4    4    0    0  0.33675514379E+02 -0.29667206648E+02  0.38142269163E+02  0.58898354101E+02  0.00000000000E+00 0.  1.
        -11    1    3    3    0    0  0.35322715734E+02  0.21733694484E+02  0.22856133175E+03  0.23229362904E+03  0.00000000000E+00 0.  1.
         11    1    3    3    0    0 -0.30184302149E+02 -0.16163921157E+02  0.46094091864E+02  0.57419767922E+02  0.00000000000E+00 0. -1.
         -2    1    1    2    0  502  0.12653281599E+02  0.21247124460E+02 -0.60337713048E+01  0.25454905799E+02  0.00000000000E+00 0.  1.
<scales pt_clust_5="13000.00000" pt_clust_6="13000.00000" pt_clust_7="13000.00000" pt_clust_8="13000.00000" pt_clust_9="24.72945"></scales>
<clustering>
<clus scale="   24.729">  2  9  1 -1</clus>
<clus scale="   91.874">  7  8 -1 -1</clus>
<clus scale="   92.720">  1  7  2 -1</clus>
<clus scale="   93.954">  5  6 -1 -1</clus>
<clus scale="   24.729">  2  5  1 -1</clus>
</clustering>
</event>
<event>
 9    1  0.1321469E-005  0.1044131E+03  0.7546771E-02  0.1272963E+00
         -3   -1    0    0    0  501 -0.00000000000E+00  0.00000000000E+00  0.16410752408E+03  0.16410752408E+03  0.00000000000E+00 0.  1.
         21   -1    0    0  501  502  0.00000000000E+00 -0.00000000000E+00 -0.11206826248E+03  0.11206826248E+03  0.00000000000E+00 0. -1.
         23    2    1    2    0    0 -0.19491874576E+02  0.53727980979E+02  0.57392316643E+02  0.12135929552E+03  0.90374617488E+02 0.  0.
         23    2    1    2    0    0 -0.23480187738E+02 -0.28354788206E+02 -0.19605437968E+02  0.10291728613E+03  0.94086563096E+02 0.  0.
        -11    1    4    4    0    0  0.23759748202E+02  0.12712900552E+02  0.15563735150E+02  0.31118697384E+02  0.00000000000E+00 0.  1.
         11    1    4    4    0    0 -0.47239935940E+02 -0.41067688758E+02 -0.35169173118E+02  0.71798588742E+02  0.00000000000E+00 0. -1.
        -13    1    3    3    0    0  0.27013977025E+02  0.42998235539E+02  0.53047125819E+02  0.73434329655E+02  0.00000000000E+00 0.  1.
         13    1    3    3    0    0 -0.46505851601E+02  0.10729745440E+02  0.43451908244E+01  0.47924965870E+02  0.00000000000E+00 0. -1.
         -3    1    1    2    0  502  0.42972062314E+02 -0.25373192774E+02  0.14252382929E+02  0.51899204909E+02  0.00000000000E+00 0.  1.
<scales pt_clust_5="13000.00000" pt_clust_6="13000.00000" pt_clust_7="13000.00000" pt_clust_8="13000.00000" pt_clust_9="49.90390"></scales>
<clustering>
<clus scale="   49.904">  2  9  1 -1</clus>
<clus scale="   90.375">  7  8 -1 -1</clus>
<clus scale="   94.087">  5  6 -1 -1</clus>
<clus scale="  101.081">  1  7  2 -1</clus>
<clus scale="   49.904">  2  5  1 -1</clus>
</clustering>
</event>
<event>
 9    1  0.1321469E-005  0.1183169E+03  0.7546771E-02  0.1246508E+00
         -4   -1    0    0    0  501 -0.00000000000E+00  0.00000000000E+00  0.30259585173E+03  0.30259585173E+03  0.00000000000E+00 0.  1.
         21   -1    0    0  501  502  0.00000000000E+00 -0.00000000000E+00 -0.82122619533E+02  0.82122619533E+02  0.00000000000E+00 0. -1.
         23    2    1    2    0    0  0.53264755325E+02 -0.27431337024E+02  0.12931835551E+03  0.17060977074E+03  0.93780831678E+02 0.  0.
         23    2    1    2    0    0 -0.79031616440E+02  0.40096827238E+02  0.11867402276E+03  0.17433874735E+03  0.91960443664E+02 0.  0.
        -13    1    4    4    0    0 -0.63732553125E+02  0.65873812524E+02  0.10990042251E+03  0.14310590614E+03  0.00000000000E+00 0. -1.
         13    1    4    4    0    0 -0.15299063315E+02 -0.25776985287E+02  0.87736002470E+01  0.31232841210E+02  0.00000000000E+00 0.  1.
        -13    1    3    3    0    0 -0.24311511678E+02  0.16878129410E+01  0.51322262565E+02  0.56814372719E+02  0.00000000000E+00 0.  1.
         13    1    3    3    0    0  0.77576267003E+02 -0.29119149965E+02  0.77996092947E+02  0.11379539803E+03  0.00000000000E+00 0. -1.
         -4    1    1    2    0  502  0.25766861115E+02 -0.12665490214E+02 -0.27519146075E+02  0.39769953165E+02  0.00000000000E+00 0.  1.
<scales pt_clust_5="13000.00000" pt_clust_6="13000.00000" pt_clust_7="13000.00000" pt_clust_8="13000.00000" pt_clust_9="28.71142"></scales>
<clustering>
<clus scale="   28.711">  2  9  1 -1</clus>
<clus scale="   91.960">  5  6 -1 -1</clus>
<clus scale="   93.781">  7  8 -1 -1</clus>
<clus scale="  116.879">  2  5  1 -1</clus>
<clus scale="   28.711">  2  5  1 -1</clus>
</clustering>
</event>
<event>
 9    1  0.1321469E-005  0.2318973E+03  0.7546771E-02  0.1125354E+00
         21   -1    0    0  501  502  0.00000000000E+00  0.00000000000E+00  0.22513466195E+03  0.22513466195E+03  0.00000000000E+00 0. -1.
          1   -1    0    0  502    0 -0.00000000000E+00 -0.00000000000E+00 -0.36211064496E+03  0.36211064496E+03  0.00000000000E+00 0. -1.
         23    2    1    2    0    0 -0.17871726440E+03  0.42947224561E+02 -0.82655208581E+02  0.22241266907E+03  0.94080748116E+02 0.  0.
         23    2    1    2    0    0  0.23552507732E+03 -0.10051053634E+03 -0.72211555558E+02  0.28200303853E+03  0.93470717480E+02 0.  0.
        -11    1    3    3    0    0 -0.12349298942E+03  0.60797590897E+02 -0.89176192261E+02  0.16400993495E+03  0.00000000000E+00 0. -1.
         11    1    3    3    0    0 -0.55224274975E+02 -0.17850366336E+02  0.65209836795E+01  0.58402734122E+02  0.00000000000E+00 0.  1.
        -13    1    4    4    0    0  0.17413005020E+02  0.13811209442E+02 -0.20793380706E+02  0.30435619449E+02  0.00000000000E+00 0.  1.
         13    1    4    4    0    0  0.21811207230E+03 -0.11432174578E+03 -0.51418174852E+02  0.25156741908E+03  0.00000000000E+00 0. -1.
          1    1    1    2  501    0 -0.56807812919E+02  0.57563311777E+02  0.17890781124E+02  0.82829599302E+02  0.00000000000E+00 0. -1.
<scales pt_clust_5="13000.00000" pt_clust_6="13000.00000" pt_clust_7="13000.00000" pt_clust_8="13000.00000" pt_clust_9="80.87436"></scales>
<clustering>
<clus scale="   80.874">  1  9  2 -1</clus>
<clus scale="   93.471">  7  8 -1 -1</clus>
<clus scale="   94.081">  5  6 -1 -1</clus>
<clus scale="  231.651">  1  7  2 -1</clus>
<clus scale="   80.874">  1  5  2 -1</clus>
</clustering>
</event>
<event>
 9    1  0.1321469E-005  0.9731204E+02  0.7546771E-02  0.1288443E+00
         21   -1    0    0  501  502  0.00000000000E+00  0.00000000000E+00  0.75905157045E+02  0.75905157045E+02  0.00000000000E+00 0.  1.
          2   -1    0    0  502    0 -0.00000000000E+00 -0.00000000000E+00 -0.27045454749E+03  0.27045454749E+03  0.00000000000E+00 0. -1.
         23    2    1    2    0    0 -0.82536429624E+01 -0.22829046777E+02 -0.14369844520E+03  0.17220358033E+03  0.91736262871E+02 0.  0.
         23    2    1    2    0    0 -0.22405694111E+02  0.50005604375E+02 -0.74271638726E+02  0.12696407916E+03  0.87183860202E+02 0.  0.
        -13    1    3    3    0    0 -0.29663500914E+02  0.24848825294E+02 -0.86282225854E+02  0.94562201239E+02  0.00000000000E+00 0.  1.
         13    1    3    3    0    0  0.21409857951E+02 -0.47677872070E+02 -0.57416219351E+02  0.77641379091E+02  0.00000000000E+00 0. -1.
        -13    1    4    4    0    0  0.20889229666E+02 -0.10677744799E+01 -0.52572919783E+02  0.56581021137E+02  0.00000000000E+00 0. -1.
         13    1    4    4    0    0 -0.43294923777E+02  0.51073378855E+02 -0.21698718943E+02  0.70383058020E+02  0.00000000000E+00 0.  1.
          2    1    1    2  501    0  0.30659337073E+02 -0.27176557598E+02  0.23420693484E+02  0.47192045049E+02  0.00000000000E+00 0. -1.
<scales pt_clust_5="13000.00000" pt_clust_6="13000.00000" pt_clust_7="13000.00000" pt_clust_8="13000.00000" pt_clust_9="40.97024"></scales>
<clustering>
<clus scale="   40.970">  1  9  2 -1</clus>
<clus scale="   87.184">  7  8 -1 -1</clus>
<clus scale="   91.736">  5  6 -1 -1</clus>
<clus scale="   93.033">  1  7  2 -1</clus>
<clus scale="   40.970">  1  5  2 -1</clus>
</clustering>
</event>
<event>
 9    1  0.1321469E-005  0.1775716E+03  0.7546771E-02  0.1197876E+00
         21   -1    0    0  501  502  0.00000000000E+00  0.00000000000E+00  0.37361930083E+03  0.37361930083E+03  0.00000000000E+00 0.  1.
         -1   -1    0    0    0  501 -0.00000000000E+00 -0.00000000000E+00 -0.14268540747E+03  0.14268540747E+03  0.00000000000E+00 0.  1.
         23    2    1    2    0    0 -0.18238612737E+02 -0.15550009562E+02  0.10990749480E+02  0.96298124158E+02  0.92617937519E+02 0.  0.
         23    2    1    2    0    0  0.14800136407E+03 -0.60416846468E+02  0.44766810189E+02  0.18914714047E+03  0.90653043794E+02 0.  0.
        -13    1    4    4    0    0  0.58960444438E+02 -0.27965402678E+02 -0.26642021603E+02  0.70485424524E+02  0.00000000000E+00 0.  1.
         13    1    4    4    0    0  0.89040919628E+02 -0.32451443790E+02  0.71408831792E+02  0.11866171594E+03  0.00000000000E+00 0. -1.
        -13    1    3    3    0    0 -0.45364112811E+02 -0.38990479167E+02  0.66836672649E+01  0.60189962659E+02  0.00000000000E+00 0.  1.
         13    1    3    3    0    0  0.27125500074E+02  0.23440469605E+02  0.43070822151E+01  0.36108161498E+02  0.00000000000E+00 0. -1.
         -1    1    1    2    0  502 -0.12976275133E+03  0.75966856030E+02  0.17517633369E+03  0.23085944367E+03  0.00000000000E+00 0.  1.
<scales pt_clust_5="13000.00000" pt_clust_6="13000.00000" pt_clust_7="13000.00000" pt_clust_8="13000.00000" pt_clust_9="152.68824"></scales>
<clustering>
<clus scale="   90.653">  5  6 -1 -1</clus>
<clus scale="   92.618">  7  8 -1 -1</clus>
<clus scale="   95.669">  2  7  1 -1</clus>
<clus scale="  152.688">  1  9  2 -1</clus>
<clus scale="  152.688">  1  5  2 -1</clus>
</clustering>
</event>
<event>
 9    1  0.1321469E-005  0.1102626E+03  0.7546771E-02  0.1260464E+00
         21   -1    0    0  501  502  0.00000000000E+00  0.00000000000E+00  0.39856339852E+03  0.39856339852E+03  0.00000000000E+00 0. -1.
         -4   -1    0    0    0  501 -0.00000000000E+00 -0.00000000000E+00 -0.68247488810E+02  0.68247488810E+02  0.00000000000E+00 0.  1.
         23    2    1    2    0    0  0.60739509909E+02 -0.20038072054E+02  0.26187642899E+01  0.11195808887E+03  0.91852835244E+02 0.  0.
         23    2    1    2    0    0 -0.41747250078E+02 -0.68697421570E+01  0.26645330096E+03  0.28531471621E+03  0.92828333193E+02 0.  0.
        -13    1    4    4    0    0 -0.74314234579E+00 -0.44902994749E+02  0.97505632698E+02  0.10735073174E+03  0.00000000000E+00 0.  1.
         13    1    4    4    0    0 -0.41004107733E+02  0.38033252592E+02  0.16894766827E+03  0.17796398446E+03  0.00000000000E+00 0. -1.
        -13    1    3    3    0    0  0.76756940583E+02 -0.34768148727E+02  0.16882963071E+02  0.85938853469E+02  0.00000000000E+00 0.  1.
         13    1    3    3    0    0 -0.16017430674E+02  0.14730076673E+02 -0.14264198781E+02  0.26019235405E+02  0.00000000000E+00 0. -1.
         -4    1    1    2    0  502 -0.18992259831E+02  0.26907814211E+02  0.61243844459E+02  0.69538082252E+02  0.00000000000E+00 0.  1.
<scales pt_clust_5="13000.00000" pt_clust_6="13000.00000" pt_clust_7="13000.00000" pt_clust_8="13000.00000" pt_clust_9="32.93534"></scales>
<clustering>
<clus scale="   32.935">  1  9  2 -1</clus>
<clus scale="   91.853">  7  8 -1 -1</clus>
<clus scale="   92.828">  5  6 -1 -1</clus>
<clus scale="  109.443">  2  7  1 -1</clus>
<clus scale="   32.935">  1  5  2 -1</clus>
</clustering>
</event>
<event>
 9    1  0.1321469E-005  0.1523427E+03  0.7546771E-02  0.1198811E+00
         21   -1    0    0  501  502  0.00000000000E+00  0.00000000000E+00  0.11626284655E+03  0.11626284655E+03  0.00000000000E+00 0. -1.
         -2   -1    0    0    0  501 -0.00000000000E+00 -0.00000000000E+00 -0.28973597711E+03  0.28973597711E+03  0.00000000000E+00 0.  1.
         23    2    1    2    0    0  0.11481149491E+03 -0.77929563588E+01 -0.13585419387E+03  0.19758500370E+03  0.85679998610E+02 0.  0.
         23    2    1    2    0    0 -0.13776878811E+03 -0.36525536966E+01 -0.37021500003E+01  0.16588870467E+03  0.92259288411E+02 0.  0.
        -13    1    4    4    0    0 -0.66741329070E+02 -0.28110037865E+01 -0.47926169576E+02  0.82214502848E+02  0.00000000000E+00 0.  1.
         13    1    4    4    0    0 -0.71027459039E+02 -0.84154991005E+00  0.44224019575E+02  0.83674201826E+02  0.00000000000E+00 0. -1.
        -13    1    3    3    0    0  0.35437340362E+02 -0.35582617875E+02 -0.19171240846E+02  0.53753737194E+02  0.00000000000E+00 0.  1.
         13    1    3    3    0    0  0.79374154544E+02  0.27789661516E+02 -0.11668295302E+03  0.14383126650E+03  0.00000000000E+00 0. -1.
         -2    1    1    2    0  502  0.22957293203E+02  0.11445510055E+02 -0.33916786684E+02  0.42525115292E+02  0.00000000000E+00 0.  1.
<scales pt_clust_5="13000.00000" pt_clust_6="13000.00000" pt_clust_7="13000.00000" pt_clust_8="13000.00000" pt_clust_9="25.65224"></scales>
<clustering>
<clus scale="   25.652">  1  9  2 -1</clus>
<clus scale="   85.680">  7  8 -1 -1</clus>
<clus scale="   92.259">  5  6 -1 -1</clus>
<clus scale="  148.451">  2  7  1 -1</clus>
<clus scale="   25.652">  1  5  2 -1</clus>
</clustering>
</event>
<event>
 9    1  0.1321469E-005  0.1903253E+03  0.7546771E-02  0.1158376E+00
          2   -1    0    0  502    0 -0.00000000000E+00  0.00000000000E+00  0.89161353390E+03  0.89161353390E+03  0.00000000000E+00 0. -1.
         21   -1    0    0  501  502  0.00000000000E+00 -0.00000000000E+00 -0.97209799695E+02  0.97209799695E+02  0.00000000000E+00 0. -1.
         23    2    1    2    0    0  0.10249445078E+03 -0.11185253309E+03  0.44020339560E+03  0.47440138929E+03  0.90893052890E+02 0.  0.
         23    2    1    2    0    0 -0.99260190083E+02  0.16281192943E+03  0.39548799518E+03  0.44875619141E+03  0.92795771995E+02 0.  0.
        -11    1    4    4    0    0 -0.71959628055E+02  0.13630972854E+03  0.37522051331E+03  0.40564635309E+03  0.00000000000E+00 0. -1.
         11    1    4    4    0    0 -0.27300562028E+02  0.26502200890E+02  0.20267481869E+02  0.43109838325E+02  0.00000000000E+00 0.  1.
        -13    1    3    3    0    0  0.61761509844E+02 -0.12028192377E+03  0.33193427101E+03  0.35841677633E+03  0.00000000000E+00 0.  1.
         13    1    3    3    0    0  0.40732940940E+02  0.84293906730E+01  0.10826912459E+03  0.11598461296E+03  0.00000000000E+00 0. -1.
          2    1    1    2  501    0 -0.32342607011E+01 -0.50959396337E+02 -0.41287656573E+02  0.65665752890E+02  0.00000000000E+00 0. -1.
<scales pt_clust_5="13000.00000" pt_clust_6="13000.00000" pt_clust_7="13000.00000" pt_clust_8="13000.00000" pt_clust_9="51.06193"></scales>
<clustering>
<clus scale="   51.062">  2  9  1 -1</clus>
<clus scale="   90.893">  7  8 -1 -1</clus>
<clus scale="   92.796">  5  6 -1 -1</clus>
<clus scale="  189.405">  1  7  2 -1</clus>
<clus scale="   51.062">  2  5  1 -1</clus>
</clustering>
</event>
<event>
 9    1  0.1321469E-005  0.1383027E+03  0.7546771E-02  0.1227142E+00
         21   -1    0    0  501  502  0.00000000000E+00  0.00000000000E+00  0.36008760841E+03  0.36008760841E+03  0.00000000000E+00 0. -1.
          1   -1    0    0  502    0 -0.00000000000E+00 -0.00000000000E+00 -0.45098826544E+03  0.45098826544E+03  0.00000000000E+00 0. -1.
         23    2    1    2    0    0 -0.68652683856E+02 -0.27265661186E+01 -0.40138381306E+03  0.42513269126E+03  0.12209919995E+03 0.  0.
         23    2    1    2    0    0  0.36481889509E+02 -0.54143707793E+02  0.54487303832E+02  0.12174048691E+03  0.87117222861E+02 0.  0.
        -11    1    3    3    0    0 -0.10062501918E+03 -0.17486519148E+02 -0.33151747515E+03  0.34689336858E+03  0.00000000000E+00 0. -1.
         11    1    3    3    0    0  0.31972335328E+02  0.14759953029E+02 -0.69866337910E+02  0.78239322676E+02  0.00000000000E+00 0.  1.
        -13    1    4    4    0    0  0.40662892659E+02  0.42192164181E+00 -0.49280078173E+01  0.40962594136E+02  0.00000000000E+00 0.  1.
         13    1    4    4    0    0 -0.41810031507E+01 -0.54565629435E+02  0.59415311649E+02  0.80777892776E+02  0.00000000000E+00 0. -1.
          1    1    1    2  501    0  0.32170794347E+02  0.56870273912E+02  0.25599585219E+03  0.26420269568E+03  0.00000000000E+00 0. -1.
<scales pt_clust_5="13000.00000" pt_clust_6="13000.00000" pt_clust_7="13000.00000" pt_clust_8="13000.00000" pt_clust_9="65.33902"></scales>
<clustering>
<clus scale="   65.339">  1  9  2 -1</clus>
<clus scale="   87.117">  7  8 -1 -1</clus>
<clus scale="  108.668">  1  7  2 -1</clus>
<clus scale="  122.099">  5  6 -1 -1</clus>
<clus scale="   65.339">  1  5  2 -1</clus>
</clustering>
</event>
<event>
 9    1  0.1321469E-005  0.1295846E+03  0.7546771E-02  0.1228270E+00
          1   -1    0    0  502    0 -0.00000000000E+00  0.00000000000E+00  0.62103959439E+02  0.62103959439E+02  0.00000000000E+00 0. -1.
         21   -1    0    0  501  502  0.00000000000E+00 -0.00000000000E+00 -0.69941520468E+03  0.69941520468E+03  0.00000000000E+00 0. -1.
         23    2    1    2    0    0  0.26188071443E+02  0.66789759225E+02 -0.82000465161E+02  0.14363545356E+03  0.93596902784E+02 0.  0.
         23    2    1    2    0    0 -0.53710465010E+02 -0.10823540722E+03 -0.16575576843E+03  0.22516456029E+03  0.92867577840E+02 0.  0.
        -11    1    3    3    0    0  0.57414547941E+02  0.64241400066E+02 -0.65472019050E+02  0.10821262901E+03  0.00000000000E+00 0. -1.
         11    1    3    3    0    0 -0.31226476498E+02  0.25483591588E+01 -0.16528446111E+02  0.35422824559E+02  0.00000000000E+00 0.  1.
        -13    1    4    4    0    0 -0.40207569542E+02  0.24628637204E+01 -0.53058326209E+02  0.66617567700E+02  0.00000000000E+00 0.  1.
         13    1    4    4    0    0 -0.13502895468E+02 -0.11069827094E+03 -0.11269744222E+03  0.15854699259E+03  0.00000000000E+00 0. -1.
          1    1    1    2  501    0  0.27522393568E+02  0.41445647995E+02 -0.38955501165E+03  0.39271915027E+03  0.00000000000E+00 0. -1.
<scales pt_clust_5="13000.00000" pt_clust_6="13000.00000" pt_clust_7="13000.00000" pt_clust_8="13000.00000" pt_clust_9="49.75162"></scales>
<clustering>
<clus scale="   49.752">  2  9  1 -1</clus>
<clus scale="   92.868">  7  8 -1 -1</clus>
<clus scale="   93.597">  5  6 -1 -1</clus>
<clus scale="  129.059">  2  7  1 -1</clus>
<clus scale="   49.752">  2  5  1 -1</clus>
</clustering>
</event>
<event>
 9    1  0.1321469E-005  0.9797414E+02  0.7546771E-02  0.1284734E+00
          4   -1    0    0  502    0 -0.00000000000E+00  0.00000000000E+00  0.94429142523E+02  0.94429142523E+02  0.00000000000E+00 0. -1.
         21   -1    0    0  501  502  0.00000000000E+00 -0.00000000000E+00 -0.35587714081E+03  0.35587714081E+03  0.00000000000E+00 0.  1.
         23    2    1    2    0    0  0.55716466426E+01 -0.23452962602E+02 -0.78405185364E+01  0.94757466515E+02  0.91303992401E+02 0.  0.
         23    2    1    2    0    0 -0.44052424584E+02  0.82426805406E+02 -0.25334768264E+03  0.28513041084E+03  0.91539655465E+02 0.  0.
        -13    1    4    4    0    0 -0.23697015854E+02  0.34036631175E+02 -0.20173302848E+02  0.46119442429E+02  0.00000000000E+00 0. -1.
         13    1    4    4    0    0 -0.20355408730E+02  0.48390174231E+02 -0.23317437980E+03  0.23901096841E+03  0.00000000000E+00 0.  1.
        -13    1    3    3    0    0  0.39796102948E+02  0.13410928067E+02  0.63975274274E+01  0.42479538118E+02  0.00000000000E+00 0.  1.
         13    1    3    3    0    0 -0.34224456306E+02 -0.36863890669E+02 -0.14238045964E+02  0.52277928397E+02  0.00000000000E+00 0. -1.
          4    1    1    2  501    0  0.38480777942E+02 -0.58973842804E+02 -0.25979710602E+00  0.70418405979E+02  0.00000000000E+00 0. -1.
<scales pt_clust_5="13000.00000" pt_clust_6="13000.00000" pt_clust_7="13000.00000" pt_clust_8="13000.00000" pt_clust_9="70.41796"></scales>
<clustering>
<clus scale="   70.418">  2  9  1 -1</clus>
<clus scale="   91.304">  7  8 -1 -1</clus>
<clus scale="   91.540">  5  6 -1 -1</clus>
<clus scale="   97.754">  1  7  2 -1</clus>
<clus scale="   70.418">  2  5  1 -1</clus>
</clustering>
</event>
<event>
 9    1  0.1321469E-005  0.1202924E+03  0.7546771E-02  0.1242997E+00
          1   -1    0    0  502    0 -0.00000000000E+00  0.00000000000E+00  0.43200210058E+03  0.43200210058E+03  0.00000000000E+00 0. -1.
         21   -1    0    0  501  502  0.00000000000E+00 -0.00000000000E+00 -0.85977770660E+02  0.85977770660E+02  0.00000000000E+00 0. -1.
         23    2    1    2    0    0 -0.20661608672E+02 -0.44485925585E+02  0.88634186964E+02  0.13808485173E+03  0.93837665846E+02 0.  0.
         23    2    1    2    0    0  0.11147836426E+03  0.75753108944E+02  0.89420409877E+02  0.18640302721E+03  0.92650524228E+02 0.  0.
        -11    1    4    4    0    0  0.22672842788E+02  0.65177304807E+02  0.16359930188E+02  0.70920985454E+02  0.00000000000E+00 0.  1.
         11    1    4    4    0    0  0.88805521470E+02  0.10575804137E+02  0.73060479689E+02  0.11548204176E+03  0.00000000000E+00 0. -1.
        -13    1    3    3    0    0 -0.10731616618E+02 -0.73218444212E+02  0.72804212678E+02  0.10381021892E+03  0.00000000000E+00 0. -1.
         13    1    3    3    0    0 -0.99299920537E+01  0.28732518626E+02  0.15829974285E+02  0.34274632816E+02  0.00000000000E+00 0.  1.
          1    1    1    2  501    0 -0.90816755586E+02 -0.31267183359E+02  0.16796973308E+03  0.19349199229E+03  0.00000000000E+00 0. -1.
<scales pt_clust_5="13000.00000" pt_clust_6="13000.00000" pt_clust_7="13000.00000" pt_clust_8="13000.00000" pt_clust_9="96.04858"></scales>
<clustering>
<clus scale="   92.651">  5  6 -1 -1</clus>
<clus scale="   93.838">  7  8 -1 -1</clus>
<clus scale="   96.049">  2  9  1 -1</clus>
<clus scale="  119.369">  2  5  1 -1</clus>
<clus scale="   96.049">  2  5  1 -1</clus>
</clustering>
</event>
<event>
 9    1  0.1321469E-005  0.1058014E+03  0.7546771E-02  0.1270162E+00
          1   -1    0    0  502    0 -0.00000000000E+00  0.00000000000E+00  0.56310374194E+03  0.56310374194E+03  0.00000000000E+00 0. -1.
         21   -1    0    0  501  502  0.00000000000E+00 -0.00000000000E+00 -0.34049420755E+02  0.34049420755E+02  0.00000000000E+00 0.  1.
         23    2    1    2    0    0 -0.63744604304E+02 -0.75775362181E+01  0.31753665206E+03  0.33753920812E+03  0.94775513626E+02 0.  0.
         23    2    1    2    0    0  0.28710482881E+02 -0.21900570814E+01  0.19966841033E+03  0.22136215100E+03  0.91129795547E+02 0.  0.
        -11    1    4    4    0    0  0.47757346371E+02  0.27187567246E+02  0.82920184619E+02  0.99477057468E+02  0.00000000000E+00 0.  1.
         11    1    4    4    0    0 -0.19046863490E+02 -0.29377624327E+02  0.11674822571E+03  0.12188509353E+03  0.00000000000E+00 0. -1.
        -13    1    3    3    0    0  0.22775979932E+02 -0.15548367360E+02  0.77871053946E+02  0.82609914853E+02  0.00000000000E+00 0. -1.
         13    1    3    3    0    0 -0.86520584235E+02  0.79708311418E+01  0.23966559811E+03  0.25492929327E+03  0.00000000000E+00 0.  1.
          1    1    1    2  501    0  0.35034121423E+02  0.97675932995E+01  0.11849258802E+02  0.38251803577E+02  0.00000000000E+00 0. -1.
<scales pt_clust_5="13000.00000" pt_clust_6="13000.00000" pt_clust_7="13000.00000" pt_clust_8="13000.00000" pt_clust_9="36.37026"></scales>
<clustering>
<clus scale="   36.370">  2  9  1 -1</clus>
<clus scale="   91.130">  5  6 -1 -1</clus>
<clus scale="   94.776">  7  8 -1 -1</clus>
<clus scale="  102.548">  2  5  1 -1</clus>
<clus scale="   36.370">  2  5  1 -1</clus>
</clustering>
</event>
<event>
 9    1  0.1321469E-005  0.9122546E+02  0.7546771E-02  0.1300011E+00
          2   -1    0    0  502    0 -0.00000000000E+00  0.00000000000E+00  0.59537262524E+03  0.59537262524E+03  0.00000000000E+00 0. -1.
         21   -1    0    0  501  502  0.00000000000E+00 -0.00000000000E+00 -0.36536472420E+02  0.36536472420E+02  0.00000000000E+00 0. -1.
         23    2    1    2    0    0  0.37699135283E+02  0.10142763884E+02  0.22420448145E+03  0.24498809990E+03  0.90705121841E+02 0.  0.
         23    2    1    2    0    0  0.50409230506E+02 -0.33140804382E+01  0.15374452294E+03  0.18560066718E+03  0.90874395040E+02 0.  0.
        -11    1    3    3    0    0 -0.24418905895E+02  0.21869845937E+02  0.51188002956E+02  0.60784741285E+02  0.00000000000E+00 0.  1.
         11    1    3    3    0    0  0.62118041178E+02 -0.11727082053E+02  0.17301647850E+03  0.18420335861E+03  0.00000000000E+00 0. -1.
        -13    1    4    4    0    0 -0.21372527905E+02 -0.14866321557E+02  0.18127060346E+02  0.31723536727E+02  0.00000000000E+00 0.  1.
         13    1    4    4    0    0  0.71781758411E+02  0.11552241119E+02  0.13561746260E+03  0.15387713045E+03  0.00000000000E+00 0. -1.
          2    1    1    2  501    0 -0.88108365789E+02 -0.68286834453E+01  0.18088714842E+03  0.20132033058E+03  0.00000000000E+00 0. -1.
<scales pt_clust_5="13000.00000" pt_clust_6="13000.00000" pt_clust_7="13000.00000" pt_clust_8="13000.00000" pt_clust_9="88.37264"></scales>
<clustering>
<clus scale="   88.373">  2  9  1 -1</clus>
<clus scale="   90.705">  5  6 -1 -1</clus>
<clus scale="   90.874">  7  8 -1 -1</clus>
<clus scale="   91.057">  1  5  2 -1</clus>
<clus scale="   88.373">  2  5  1 -1</clus>
</clustering>
</event>
<event>
 9    1  0.1321469E-005  0.9839016E+02  0.7546771E-02  0.1284173E+00
         21   -1    0    0  501  502  0.00000000000E+00  0.00000000000E+00  0.20173963916E+03  0.20173963916E+03  0.00000000000E+00 0. -1.
         -3   -1    0    0    0  501 -0.00000000000E+00 -0.00000000000E+00 -0.83607744971E+02  0.83607744971E+02  0.00000000000E+00 0.  1.
         23    2    1    2    0    0  0.23634804856E+01 -0.39407343050E+02 -0.19607206511E+02  0.10076994982E+03  0.90617964630E+02 0.  0.
         23    2    1    2    0    0 -0.22458936130E+02  0.31739320110E+02  0.12773500127E+03  0.16085596895E+03  0.89702976226E+02 0.  0.
        -11    1    3    3    0    0 -0.35205030345E+02 -0.31232046049E+02  0.14634350857E+02  0.49284876859E+02  0.00000000000E+00 0. -1.
         11    1    3    3    0    0  0.37568510830E+02 -0.81752970010E+01 -0.34241557368E+02  0.51485072963E+02  0.00000000000E+00 0.  1.
        -13    1    4    4    0    0 -0.35844412327E+02 -0.22205007730E+02  0.56793559789E+02  0.70734664040E+02  0.00000000000E+00 0.  1.
         13    1    4    4    0    0  0.13385476197E+02  0.53944327840E+02  0.70941441480E+02  0.90121304908E+02  0.00000000000E+00 0. -1.
         -3    1    1    2    0  502  0.20095455644E+02  0.76680229395E+01  0.10004099426E+02  0.23721465357E+02  0.00000000000E+00 0.  1.
<scales pt_clust_5="13000.00000" pt_clust_6="13000.00000" pt_clust_7="13000.00000" pt_clust_8="13000.00000" pt_clust_9="21.50874"></scales>
<clustering>
<clus scale="   21.509">  1  9  2 -1</clus>
<clus scale="   89.703">  7  8 -1 -1</clus>
<clus scale="   90.618">  5  6 -1 -1</clus>
<clus scale="   97.548">  1  7  2 -1</clus>
<clus scale="   21.509">  1  5  2 -1</clus>
</clustering>
</event>
<event>
 9    1  0.1321469E-005  0.9387699E+02  0.7546771E-02  0.1293799E+00
          1   -1    0    0  502    0 -0.00000000000E+00  0.00000000000E+00  0.35074726192E+03  0.35074726192E+03  0.00000000000E+00 0. -1.
         21   -1    0    0  501  502  0.00000000000E+00 -0.00000000000E+00 -0.43708560061E+02  0.43708560061E+02  0.00000000000E+00 0. -1.
         23    2    1    2    0    0 -0.16339949254E+02  0.16185697143E+02  0.23447000785E+03  0.25264937573E+03  0.91249941042E+02 0.  0.
         23    2    1    2    0    0 -0.56400959129E+01 -0.25941136188E+02  0.68890921791E+02  0.11747915736E+03  0.91381836707E+02 0.  0.
        -13    1    3    3    0    0 -0.53995981372E+02  0.15222612904E+02  0.12967796390E+03  0.14129284578E+03  0.00000000000E+00 0.  1.
         13    1    3    3    0    0  0.37656032117E+02  0.96308423925E+00  0.10479204395E+03  0.11135652995E+03  0.00000000000E+00 0. -1.
        -13    1    4    4    0    0 -0.47224177489E+02 -0.14751612481E+02  0.50365006531E+02  0.70600048819E+02  0.00000000000E+00 0. -1.
         13    1    4    4    0    0  0.41584081576E+02 -0.11189523707E+02  0.18525915260E+02  0.46879108540E+02  0.00000000000E+00 0.  1.
          1    1    1    2  501    0  0.21980045167E+02  0.97554390447E+01  0.36777722171E+01  0.24327288895E+02  0.00000000000E+00 0. -1.
<scales pt_clust_5="13000.00000" pt_clust_6="13000.00000" pt_clust_7="13000.00000" pt_clust_8="13000.00000" pt_clust_9="24.04768"></scales>
<clustering>
<clus scale="   24.048">  2  9  1 -1</clus>
<clus scale="   91.250">  5  6 -1 -1</clus>
<clus scale="   91.382">  7  8 -1 -1</clus>
<clus scale="   93.749">  1  5  2 -1</clus>
<clus scale="   24.048">  2  5  1 -1</clus>
</clustering>
</event>
<event>
 9    1  0.1321469E-005  0.1476528E+03  0.7546771E-02  0.1203575E+00
         21   -1    0    0  501  502  0.00000000000E+00  0.00000000000E+00  0.35908222368E+03  0.35908222368E+03  0.00000000000E+00 0. -1.
         -3   -1    0    0    0  501 -0.00000000000E+00 -0.00000000000E+00 -0.10522942913E+03  0.10522942913E+03  0.00000000000E+00 0.  1.
         23    2    1    2    0    0  0.91329046684E+02 -0.84984391855E+02  0.40570516394E+02  0.16003807810E+03  0.91667213416E+02 0.  0.
         23    2    1    2    0    0 -0.34129819495E+02  0.95750910113E+02  0.20295809307E+03  0.24516132297E+03  0.92622920347E+02 0.  0.
        -11    1    3    3    0    0  0.86413751962E+02 -0.28469321329E+02  0.12076544663E+01  0.90990643554E+02  0.00000000000E+00 0. -1.
         11    1    3    3    0    0  0.49152947224E+01 -0.56515070526E+02  0.39362861927E+02  0.69047434550E+02  0.00000000000E+00 0.  1.
        -13    1    4    4    0    0 -0.15787480915E+02  0.29156564882E+02  0.26318295581E+01  0.33260732947E+02  0.00000000000E+00 0.  1.
         13    1    4    4    0    0 -0.18342338580E+02  0.66594345231E+02  0.20032626351E+03  0.21190059003E+03  0.00000000000E+00 0. -1.
         -3    1    1    2    0  502 -0.57199227190E+02 -0.10766518258E+02  0.10324185092E+02  0.59112251727E+02  0.00000000000E+00 0.  1.
<scales pt_clust_5="13000.00000" pt_clust_6="13000.00000" pt_clust_7="13000.00000" pt_clust_8="13000.00000" pt_clust_9="58.20372"></scales>
<clustering>
<clus scale="   58.204">  1  9  2 -1</clus>
<clus scale="   91.667">  5  6 -1 -1</clus>
<clus scale="   92.623">  7  8 -1 -1</clus>
<clus scale="  147.055">  2  5  1 -1</clus>
<clus scale="   58.204">  1  5  2 -1</clus>
</clustering>
</event>
<event>
 9    1  0.1321469E-005  0.9187449E+02  0.7546771E-02  0.1298479E+00
         -1   -1    0    0    0  501 -0.00000000000E+00  0.00000000000E+00  0.45501174123E+03  0.45501174123E+03  0.00000000000E+00 0.  1.
         21   -1    0    0  501  502  0.00000000000E+00 -0.00000000000E+00 -0.33595257900E+03  0.33595257900E+03  0.00000000000E+00 0.  1.
         23    2    1    2    0    0  0.15551511733E+02 -0.86411478649E+00  0.35520302777E+03  0.36710697629E+03  0.91409763661E+02 0.  0.
         23    2    1    2    0    0  0.31865436542E+02  0.28759013730E+02  0.63532746883E+02  0.11917297545E+03  0.91232128304E+02 0.  0.
        -11    1    4    4    0    0 -0.18878601886E+02  0.43932019220E+02  0.28366801282E+02  0.55597655858E+02  0.00000000000E+00 0. -1.
         11    1    4    4    0    0  0.50744038428E+02 -0.15173005489E+02  0.35165945600E+02  0.63575319595E+02  0.00000000000E+00 0.  1.
        -13    1    3    3    0    0  0.49459753780E+02 -0.12929857059E+02  0.14277058715E+03  0.15164725188E+03  0.00000000000E+00 0.  1.
         13    1    3    3    0    0 -0.33908242047E+02  0.12065742272E+02  0.21243244062E+03  0.21545972441E+03  0.00000000000E+00 0. -1.
         -1    1    1    2    0  502 -0.47416948275E+02 -0.27894898944E+02 -0.29967661242E+03  0.30468436849E+03  0.00000000000E+00 0.  1.
<scales pt_clust_5="13000.00000" pt_clust_6="13000.00000" pt_clust_7="13000.00000" pt_clust_8="13000.00000" pt_clust_9="55.01357"></scales>
<clustering>
<clus scale="   55.014">  2  9  1 -1</clus>
<clus scale="   91.232">  5  6 -1 -1</clus>
<clus scale="   91.410">  7  8 -1 -1</clus>
<clus scale="   91.698">  2  5  1 -1</clus>
<clus scale="   55.014">  2  5  1 -1</clus>
</clustering>
</event>
<event>
 9    1  0.1321469E-005  0.1166656E+03  0.7546771E-02  0.1256424E+00
         21   -1    0    0  501  502  0.00000000000E+00  0.00000000000E+00  0.12999713524E+03  0.12999713524E+03  0.00000000000E+00 0. -1.
          3   -1    0    0  502    0 -0.00000000000E+00 -0.00000000000E+00 -0.22963866213E+03  0.22963866213E+03  0.00000000000E+00 0. -1.
         23    2    1    2    0    0  0.21509971882E+02  0.47066945470E+02 -0.11529215975E+03  0.16617654151E+03  0.10790914975E+03 0.  0.
         23    2    1    2    0    0  0.71695394017E+01 -0.39845215918E+02 -0.57909688574E+02  0.11417629027E+03  0.89686396412E+02 0.  0.
        -11    1    4    4    0    0 -0.21635190926E+02 -0.50421989783E+02 -0.62480993985E+02  0.83152469293E+02  0.00000000000E+00 0.  1.
         11    1    4    4    0    0  0.28804730328E+02  0.10576773864E+02  0.45713054112E+01  0.31023820974E+02  0.00000000000E+00 0. -1.
        -11    1    3    3    0    0 -0.10924025632E+02  0.23764815007E+02  0.14827601792E+02  0.30065903333E+02  0.00000000000E+00 0.  1.
         11    1    3    3    0    0  0.32433997514E+02  0.23302130464E+02 -0.13011976155E+03  0.13611063817E+03  0.00000000000E+00 0. -1.
          3    1    1    2  501    0 -0.28679511284E+02 -0.72217295520E+01  0.73560321429E+02  0.79282965597E+02  0.00000000000E+00 0. -1.
<scales pt_clust_5="13000.00000" pt_clust_6="13000.00000" pt_clust_7="13000.00000" pt_clust_8="13000.00000" pt_clust_9="29.57478"></scales>
<clustering>
<clus scale="   29.575">  1  9  2 -1</clus>
<clus scale="   89.686">  5  6 -1 -1</clus>
<clus scale="  100.051">  1  5  2 -1</clus>
<clus scale="  107.909">  7  8 -1 -1</clus>
<clus scale="   29.575">  1  5  2 -1</clus>
</clustering>
</event>
<event>
 9    1  0.1321469E-005  0.1039267E+03  0.7546771E-02  0.1275145E+00
         21   -1    0    0  501  502  0.00000000000E+00  0.00000000000E+00  0.10970833700E+03  0.10970833700E+03  0.00000000000E+00 0. -1.
          2   -1    0    0  502    0 -0.00000000000E+00 -0.00000000000E+00 -0.59220562359E+03  0.59220562359E+03  0.00000000000E+00 0. -1.
         23    2    1    2    0    0 -0.28447768040E+02  0.17882069576E+02 -0.42218489532E+03  0.43444632215E+03  0.96821883248E+02 0.  0.
         23    2    1    2    0    0  0.29285048029E+02 -0.43034389434E+02 -0.14517839667E+03  0.17894883194E+03  0.90754310543E+02 0.  0.
        -13    1    3    3    0    0 -0.46024664053E+02 -0.26883726355E+02 -0.25330093045E+03  0.25884815204E+03  0.00000000000E+00 0.  1.
         13    1    3    3    0    0  0.17576896014E+02  0.44765795931E+02 -0.16888396487E+03  0.17559817011E+03  0.00000000000E+00 0. -1.
        -13    1    4    4    0    0  0.55564068664E+02 -0.51998998112E+02 -0.96357186686E+02  0.12278423741E+03  0.00000000000E+00 0. -1.
         13    1    4    4    0    0 -0.26279020636E+02  0.89646086784E+01 -0.48821209984E+02  0.56164594529E+02  0.00000000000E+00 0.  1.
          2    1    1    2  501    0 -0.83727998891E+00  0.25152319858E+02  0.84866005395E+02  0.88518806497E+02  0.00000000000E+00 0. -1.
<scales pt_clust_5="13000.00000" pt_clust_6="13000.00000" pt_clust_7="13000.00000" pt_clust_8="13000.00000" pt_clust_9="25.16625"></scales>
<clustering>
<clus scale="   25.166">  1  9  2 -1</clus>
<clus scale="   90.754">  7  8 -1 -1</clus>
<clus scale="   96.822">  5  6 -1 -1</clus>
<clus scale="   98.299">  1  7  2 -1</clus>
<clus scale="   25.166">  1  5  2 -1</clus>
</clustering>
</event>
<event>
 9    1  0.1321469E-005  0.1391232E+03  0.7546771E-02  0.1218999E+00
         21   -1    0    0  501  502  0.00000000000E+00  0.00000000000E+00  0.15789893286E+03  0.15789893286E+03  0.00000000000E+00 0.  1.
          2   -1    0    0  502    0 -0.00000000000E+00 -0.00000000000E+00 -0.16289300472E+03  0.16289300472E+03  0.00000000000E+00 0. -1.
         23    2    1    2    0    0 -0.73628139005E+02 -0.32736004686E+02 -0.63446269671E+02  0.14920176469E+03  0.10836507092E+03 0.  0.
         23    2    1    2    0    0  0.93802357927E+02  0.37708190951E+02  0.36296424794E+02  0.14121584125E+03  0.91671660554E+02 0.  0.
        -13    1    3    3    0    0 -0.30480604091E+01  0.23209270748E+02 -0.53739816108E+02  0.58616795854E+02  0.00000000000E+00 0. -1.
         13    1    3    3    0    0 -0.70580078596E+02 -0.55945275435E+02 -0.97064535632E+01  0.90584968835E+02  0.00000000000E+00 0.  1.
        -13    1    4    4    0    0  0.24036249535E+02 -0.15573028632E+02  0.44637478114E+02  0.53035506643E+02  0.00000000000E+00 0. -1.
         13    1    4    4    0    0  0.69766108391E+02  0.53281219583E+02 -0.83410533205E+01  0.88180334603E+02  0.00000000000E+00 0.  1.
          2    1    1    2  501    0 -0.20174218922E+02 -0.49721862646E+01  0.22155773013E+02  0.30374331649E+02  0.00000000000E+00 0. -1.
<scales pt_clust_5="13000.00000" pt_clust_6="13000.00000" pt_clust_7="13000.00000" pt_clust_8="13000.00000" pt_clust_9="20.77791"></scales>
<clustering>
<clus scale="   20.778">  1  9  2 -1</clus>
<clus scale="   91.672">  7  8 -1 -1</clus>
<clus scale="  108.365">  5  6 -1 -1</clus>
<clus scale="  126.554">  1  7  2 -1</clus>
<clus scale="   20.778">  1  5  2 -1</clus>
</clustering>
</event>
<event>
 9    1  0.1321469E-005  0.1501043E+03  0.7546771E-02  0.1200503E+00
         21   -1    0    0  501  502  0.00000000000E+00  0.00000000000E+00  0.89750275960E+02  0.89750275960E+02  0.00000000000E+00 0. -1.
          2   -1    0    0  502    0 -0.00000000000E+00 -0.00000000000E+00 -0.39077844772E+03  0.39077844772E+03  0.00000000000E+00 0. -1.
         23    2    1    2    0    0  0.70820252254E+02 -0.66463394064E+02 -0.11067016887E+03  0.17318643508E+03  0.91174361192E+02 0.  0.
         23    2    1    2    0    0 -0.13471082864E+03  0.62724307354E+02 -0.15808170533E+03  0.23566421731E+03  0.92013323342E+02 0.  0.
        -11    1    3    3    0    0  0.68057049210E+02 -0.41665610994E+01 -0.40472245628E+02  0.79291391996E+02  0.00000000000E+00 0.  1.
         11    1    3    3    0    0  0.27632030446E+01 -0.62296832965E+02 -0.70197923243E+02  0.93895043086E+02  0.00000000000E+00 0. -1.
        -11    1    4    4    0    0 -0.85289883946E+02  0.85063947627E+02 -0.10556735864E+03  0.16017086720E+03  0.00000000000E+00 0. -1.
         11    1    4    4    0    0 -0.49420944694E+02 -0.22339640273E+02 -0.52514346684E+02  0.75493350102E+02  0.00000000000E+00 0.  1.
          2    1    1    2  501    0  0.63890576386E+02  0.37390867104E+01 -0.32276297562E+02  0.71678071296E+02  0.00000000000E+00 0. -1.
<scales pt_clust_5="13000.00000" pt_clust_6="13000.00000" pt_clust_7="13000.00000" pt_clust_8="13000.00000" pt_clust_9="63.99989"></scales>
<clustering>
<clus scale="   64.000">  1  9  2 -1</clus>
<clus scale="   91.174">  5  6 -1 -1</clus>
<clus scale="   92.013">  7  8 -1 -1</clus>
<clus scale="  149.592">  2  5  1 -1</clus>
<clus scale="   64.000">  1  5  2 -1</clus>
</clustering>
</event>
<event>
 9    1  0.1321469E-005  0.1570171E+03  0.7546771E-02  0.1214014E+00
         -2   -1    0    0    0  501 -0.00000000000E+00  0.00000000000E+00  0.21207940517E+03  0.21207940517E+03  0.00000000000E+00 0.  1.
         21   -1    0    0  501  502  0.00000000000E+00 -0.00000000000E+00 -0.49008444403E+03  0.49008444403E+03  0.00000000000E+00 0.  1.
         23    2    1    2    0    0  0.18660858623E+02  0.36916685034E+02  0.13462401516E+03  0.16640135725E+03  0.88626841071E+02 0.  0.
         23    2    1    2    0    0 -0.10483873720E+03 -0.99695552256E+02 -0.10439718087E+03  0.20961114585E+03  0.11003498142E+03 0.  0.
        -11    1    4    4    0    0 -0.68636374970E+02 -0.30135833698E+00 -0.13092903486E+02  0.69874651395E+02  0.00000000000E+00 0.  1.
         11    1    4    4    0    0 -0.36202362225E+02 -0.99394193919E+02 -0.91304277379E+02  0.13973649446E+03  0.00000000000E+00 0. -1.
        -13    1    3    3    0    0 -0.23650597559E+02  0.18258301267E+02  0.11005152208E+03  0.11403531840E+03  0.00000000000E+00 0.  1.
         13    1    3    3    0    0  0.42311456182E+02  0.18658383767E+02  0.24572493086E+02  0.52366038857E+02  0.00000000000E+00 0. -1.
         -2    1    1    2    0  502  0.86177878572E+02  0.62778867222E+02 -0.30823187316E+03  0.32615134609E+03  0.00000000000E+00 0.  1.
<scales pt_clust_5="13000.00000" pt_clust_6="13000.00000" pt_clust_7="13000.00000" pt_clust_8="13000.00000" pt_clust_9="112.01191"></scales>
<clustering>
<clus scale="   88.627">  7  8 -1 -1</clus>
<clus scale="   97.805">  1  7  2 -1</clus>
<clus scale="  110.035">  5  6 -1 -1</clus>
<clus scale="  112.012">  2  9  1 -1</clus>
<clus scale="  112.012">  2  5  1 -1</clus>
</clustering>
</event>
<event>
 9    1  0.1321469E-005  0.1352240E+03  0.7546771E-02  0.1220433E+00
          2   -1    0    0  502    0 -0.00000000000E+00  0.00000000000E+00  0.50057397032E+03  0.50057397032E+03  0.00000000000E+00 0. -1.
         21   -1    0    0  501  502  0.00000000000E+00 -0.00000000000E+00 -0.11428308560E+03  0.11428308560E+03  0.00000000000E+00 0. -1.
         23    2    1    2    0    0 -0.48322455462E+01 -0.70947384890E+02  0.19785400291E+03  0.22941607514E+03  0.91807663334E+02 0.  0.
         23    2    1    2    0    0  0.42691903019E+02  0.17845326529E+03  0.17817907894E+03  0.27100282934E+03  0.89591198603E+02 0.  0.
        -11    1    4    4    0    0  0.12194094576E+02  0.18981046515E+02 -0.80323708679E+01  0.23947756703E+02  0.00000000000E+00 0.  1.
         11    1    4    4    0    0  0.30497808443E+02  0.15947221877E+03  0.18621144980E+03  0.24705507264E+03  0.00000000000E+00 0. -1.
        -13    1    3    3    0    0  0.41766633627E+02 -0.41110994571E+02  0.12382441206E+03  0.13699288514E+03  0.00000000000E+00 0. -1.
         13    1    3    3    0    0 -0.46598879174E+02 -0.29836390319E+02  0.74029590851E+02  0.92423189996E+02  0.00000000000E+00 0.  1.
          2    1    1    2  501    0 -0.37859657473E+02 -0.10750588040E+03  0.10257802875E+02  0.11443815143E+03  0.00000000000E+00 0. -1.
<scales pt_clust_5="13000.00000" pt_clust_6="13000.00000" pt_clust_7="13000.00000" pt_clust_8="13000.00000" pt_clust_9="113.97749"></scales>
<clustering>
<clus scale="   89.591">  5  6 -1 -1</clus>
<clus scale="   91.808">  7  8 -1 -1</clus>
<clus scale="  113.977">  2  9  1 -1</clus>
<clus scale="  133.729">  2  5  1 -1</clus>
<clus scale="  113.977">  2  5  1 -1</clus>
</clustering>
</event>
<event>
 9    1  0.1321469E-005  0.1319528E+03  0.7546771E-02  0.1238613E+00
         21   -1    0    0  501  502  0.00000000000E+00  0.00000000000E+00  0.37005683034E+03  0.37005683034E+03  0.00000000000E+00 0. -1.
         -4   -1    0    0    0  501 -0.00000000000E+00 -0.00000000000E+00 -0.15933165964E+03  0.15933165964E+03  0.00000000000E+00 0.  1.
         23    2    1    2    0    0  0.22124184593E+02 -0.19988038015E+02 -0.69275543206E+02  0.12070494120E+03  0.94242138859E+02 0.  0.
         23    2    1    2    0    0  0.52130450106E+02 -0.45392506732E+02  0.32882613442E+01  0.11481598029E+03  0.91617864912E+02 0.  0.
        -13    1    3    3    0    0 -0.36920145802E+02 -0.14078750289E+01 -0.25704136901E+02  0.45008687295E+02  0.00000000000E+00 0.  1.
         13    1    3    3    0    0  0.59044330395E+02 -0.18580162986E+02 -0.43571406305E+02  0.75696253908E+02  0.00000000000E+00 0. -1.
        -13    1    4    4    0    0  0.32287350253E+02  0.11813492588E+02  0.32746835614E+02  0.47480383699E+02  0.00000000000E+00 0.  1.
         13    1    4    4    0    0  0.19843099853E+02 -0.57205999320E+02 -0.29458574269E+02  0.67335596588E+02  0.00000000000E+00 0. -1.
         -4    1    1    2    0  502 -0.74254634698E+02  0.65380544747E+02  0.27671245256E+03  0.29386756848E+03  0.00000000000E+00 0.  1.
<scales pt_clust_5="13000.00000" pt_clust_6="13000.00000" pt_clust_7="13000.00000" pt_clust_8="13000.00000" pt_clust_9="94.96163"></scales>
<clustering>
<clus scale="   91.618">  7  8 -1 -1</clus>
<clus scale="   94.242">  5  6 -1 -1</clus>
<clus scale="   98.846">  2  5  1 -1</clus>
<clus scale="   94.962">  1  9  2 -1</clus>
<clus scale="   94.962">  1  5  2 -1</clus>
</clustering>
</event>
<event>
 9    1  0.1321469E-005  0.1652948E+03  0.7546771E-02  0.1183027E+00
          3   -1    0    0  502    0 -0.00000000000E+00  0.00000000000E+00  0.96780869637E+02  0.96780869637E+02  0.00000000000E+00 0. -1.
         21   -1    0    0  501  502  0.00000000000E+00 -0.00000000000E+00 -0.65399373455E+03  0.65399373455E+03  0.00000000000E+00 0. -1.
         23    2    1    2    0    0  0.12765863558E+03  0.40838663992E+02 -0.18605286511E+02  0.16398404992E+03  0.92628765669E+02 0.  0.
         23    2    1    2    0    0 -0.12773066417E+03 -0.83467809057E+02 -0.34066196909E+03  0.38430669456E+03  0.91427898235E+02 0.  0.
        -13    1    3    3    0    0  0.85116794663E+02  0.16724487955E+02 -0.55277476541E+02  0.10285998563E+03  0.00000000000E+00 0.  1.
         13    1    3    3    0    0  0.42541840914E+02  0.24114176038E+02  0.36672190029E+02  0.61124064295E+02  0.00000000000E+00 0. -1.
        -13    1    4    4    0    0 -0.11286354920E+03 -0.65413249912E+02 -0.33603258220E+03  0.36046493630E+03  0.00000000000E+00 0. -1.
         13    1    4    4    0    0 -0.14867114973E+02 -0.18054559146E+02 -0.46293868885E+01  0.23841758252E+02  0.00000000000E+00 0.  1.
          3    1    1    2  501    0  0.72028594938E-01  0.42629145065E+02 -0.19794560931E+03  0.20248385971E+03  0.00000000000E+00 0. -1.
<scales pt_clust_5="13000.00000" pt_clust_6="13000.00000" pt_clust_7="13000.00000" pt_clust_8="13000.00000" pt_clust_9="42.62921"></scales>
<clustering>
<clus scale="   42.629">  2  9  1 -1</clus>
<clus scale="   91.428">  7  8 -1 -1</clus>
<clus scale="   92.629">  5  6 -1 -1</clus>
<clus scale="  164.625">  2  7  1 -1</clus>
<clus scale="   42.629">  2  5  1 -1</clus>
</clustering>
</event>
<event>
 9    1  0.1321469E-005  0.1077448E+03  0.7546771E-02  0.1266328E+00
         21   -1    0    0  501  502  0.00000000000E+00  0.00000000000E+00  0.11519125929E+03  0.11519125929E+03  0.00000000000E+00 0.  1.
          3   -1    0    0  502    0 -0.00000000000E+00 -0.00000000000E+00 -0.18356246265E+03  0.18356246265E+03  0.00000000000E+00 0. -1.
         23    2    1    2    0    0  0.29766869692E+02  0.28426053666E+02 -0.53358210583E+02  0.11356133451E+03  0.91405530466E+02 0.  0.
         23    2    1    2    0    0 -0.37891253498E+02 -0.48641999789E+02 -0.65059339571E+02  0.13060917649E+03  0.94996042465E+02 0.  0.
        -11    1    4    4    0    0  0.11817856707E+02 -0.24237246264E+02 -0.69998431054E+02  0.75012573570E+02  0.00000000000E+00 0. -1.
         11    1    4    4    0    0 -0.49709110206E+02 -0.24404753525E+02  0.49390914829E+01  0.55596602924E+02  0.00000000000E+00 0.  1.
        -13    1    3    3    0    0  0.60695034001E+02  0.15459685524E+02 -0.49444457251E+02  0.79797514884E+02  0.00000000000E+00 0. -1.
         13    1    3    3    0    0 -0.30928164309E+02  0.12966368141E+02 -0.39137533323E+01  0.33763819621E+02  0.00000000000E+00 0.  1.
          3    1    1    2  501    0  0.81243838061E+01  0.20215946124E+02  0.50046346795E+02  0.54583210948E+02  0.00000000000E+00 0. -1.
<scales pt_clust_5="13000.00000" pt_clust_6="13000.00000" pt_clust_7="13000.00000" pt_clust_8="13000.00000" pt_clust_9="21.78738"></scales>
<clustering>
<clus scale="   21.787">  1  9  2 -1</clus>
<clus scale="   91.406">  7  8 -1 -1</clus>
<clus scale="   94.996">  5  6 -1 -1</clus>
<clus scale="  104.593">  2  7  1 -1</clus>
<clus scale="   21.787">  1  5  2 -1</clus>
</clustering>
</event>
<event>
 9    1  0.1321469E-005  0.1203535E+03  0.7546771E-02  0.1244075E+00
          1   -1    0    0  502    0 -0.00000000000E+00  0.00000000000E+00  0.44186638144E+03  0.44186638144E+03  0.00000000000E+00 0. -1.
         21   -1    0    0  501  502  0.00000000000E+00 -0.00000000000E+00 -0.46493184516E+02  0.46493184516E+02  0.00000000000E+00 0.  1.
         23    2    1    2    0    0 -0.51853893638E+02 -0.45731658632E+02  0.21005436577E+03  0.23827745666E+03  0.88730484526E+02 0.  0.
         23    2    1    2    0    0  0.68600030325E+02  0.74798835372E+02  0.16452859006E+03  0.21061607350E+03  0.83598107237E+02 0.  0.
        -11    1    3    3    0    0 -0.53445343500E+02 -0.12250344116E+02  0.19306188399E+03  0.20069720158E+03  0.00000000000E+00 0. -1.
         11    1    3    3    0    0  0.15914498616E+01 -0.33481314516E+02  0.16992481781E+02  0.37580255074E+02  0.00000000000E+00 0.  1.
        -13    1    4    4    0    0  0.84720660459E+02  0.41174217484E+02  0.11711947865E+03  0.15029929731E+03  0.00000000000E+00 0.  1.
         13    1    4    4    0    0 -0.16120630134E+02  0.33624617888E+02  0.47409111415E+02  0.60316776184E+02  0.00000000000E+00 0. -1.
          1    1    1    2  501    0 -0.16746136686E+02 -0.29067176740E+02  0.20790241093E+02  0.39466035806E+02  0.00000000000E+00 0. -1.
<scales pt_clust_5="13000.00000" pt_clust_6="13000.00000" pt_clust_7="13000.00000" pt_clust_8="13000.00000" pt_clust_9="33.54600"></scales>
<clustering>
<clus scale="   33.546">  2  9  1 -1</clus>
<clus scale="   83.598">  7  8 -1 -1</clus>
<clus scale="   88.730">  5  6 -1 -1</clus>
<clus scale="  116.621">  2  7  1 -1</clus>
<clus scale="   33.546">  2  5  1 -1</clus>
</clustering>
</event>
<event>
 9    1  0.1321469E-005  0.1306367E+03  0.7546771E-02  0.1228630E+00
          2   -1    0    0  502    0 -0.00000000000E+00  0.00000000000E+00  0.40871893532E+03  0.40871893532E+03  0.00000000000E+00 0. -1.
         21   -1    0    0  501  502  0.00000000000E+00 -0.00000000000E+00 -0.16526929246E+03  0.16526929246E+03  0.00000000000E+00 0. -1.
         23    2    1    2    0    0 -0.61993269690E+02 -0.55948138623E+02  0.31485587851E+03  0.34031742814E+03  0.98531050752E+02 0.  0.
         23    2    1    2    0    0  0.64580960393E+02  0.94323924673E+02 -0.10714216845E+03  0.18116885691E+03  0.90967066801E+02 0.  0.
        -11    1    4    4    0    0  0.30206559169E+02  0.29413142763E+02  0.96017841693E+01  0.43240761363E+02  0.00000000000E+00 0.  1.
         11    1    4    4    0    0  0.34374401224E+02  0.64910781909E+02 -0.11674395262E+03  0.13792809554E+03  0.00000000000E+00 0. -1.
        -11    1    3    3    0    0 -0.65527887899E+02 -0.37658100425E+01  0.10327131994E+03  0.12236441860E+03  0.00000000000E+00 0. -1.
         11    1    3    3    0    0  0.35346182093E+01 -0.52182328581E+02  0.21158455856E+03  0.21795300953E+03  0.00000000000E+00 0.  1.
          2    1    1    2  501    0 -0.25876907030E+01 -0.38375786050E+02  0.35735932805E+02  0.52501942741E+02  0.00000000000E+00 0. -1.
<scales pt_clust_5="13000.00000" pt_clust_6="13000.00000" pt_clust_7="13000.00000" pt_clust_8="13000.00000" pt_clust_9="38.46295"></scales>
<clustering>
<clus scale="   38.463">  2  9  1 -1</clus>
<clus scale="   90.967">  5  6 -1 -1</clus>
<clus scale="   98.531">  7  8 -1 -1</clus>
<clus scale="  125.030">  2  5  1 -1</clus>
<clus scale="   38.463">  2  5  1 -1</clus>
</clustering>
</event>
<event>
 9    1  0.1321469E-005  0.9479511E+02  0.7546771E-02  0.1293089E+00
         21   -1    0    0  501  502  0.00000000000E+00  0.00000000000E+00  0.76644677838E+02  0.76644677838E+02  0.00000000000E+00 0.  1.
          2   -1    0    0  502    0 -0.00000000000E+00 -0.00000000000E+00 -0.21882442561E+03  0.21882442561E+03  0.00000000000E+00 0. -1.
         23    2    1    2    0    0 -0.25982989335E+02 -0.10883333446E+02 -0.11473957219E+03  0.14881491109E+03  0.90482847285E+02 0.  0.
         23    2    1    2    0    0 -0.68194787698E+00  0.62288134527E+01 -0.54789305131E+02  0.10817486907E+03  0.93062727086E+02 0.  0.
        -11    1    3    3    0    0  0.12985334227E+02 -0.18156715698E+02 -0.10586443301E+03  0.10819225206E+03  0.00000000000E+00 0. -1.
         11    1    3    3    0    0 -0.38968323563E+02  0.72733822525E+01 -0.88751391845E+01  0.40622659025E+02  0.00000000000E+00 0.  1.
        -11    1    4    4    0    0 -0.33324291107E+02 -0.29266530561E+02 -0.32871105713E+02  0.55204599263E+02  0.00000000000E+00 0.  1.
         11    1    4    4    0    0  0.32642343230E+02  0.35495344014E+02 -0.21918199418E+02  0.52970269812E+02  0.00000000000E+00 0. -1.
          2    1    1    2  501    0  0.26664937212E+02  0.46545199932E+01  0.27349129556E+02  0.38479323284E+02  0.00000000000E+00 0. -1.
<scales pt_clust_5="13000.00000" pt_clust_6="13000.00000" pt_clust_7="13000.00000" pt_clust_8="13000.00000" pt_clust_9="27.06813"></scales>
<clustering>
<clus scale="   27.068">  1  9  2 -1</clus>
<clus scale="   90.483">  5  6 -1 -1</clus>
<clus scale="   92.264">  2  5  1 -1</clus>
<clus scale="   93.063">  7  8 -1 -1</clus>
<clus scale="   27.068">  1  5  2 -1</clus>
</clustering>
</event>
<event>
 9    1  0.1321469E-005  0.1128315E+03  0.7546771E-02  0.1256079E+00
          1   -1    0    0  502    0 -0.00000000000E+00  0.00000000000E+00  0.43535034138E+03  0.43535034138E+03  0.00000000000E+00 0. -1.
         21   -1    0    0  501  502  0.00000000000E+00 -0.00000000000E+00 -0.66267121681E+02  0.66267121681E+02  0.00000000000E+00 0. -1.
         23    2    1    2    0    0 -0.93575385415E+02  0.14637411290E+02  0.24212244294E+03  0.27617285071E+03  0.93153419311E+02 0.  0.
         23    2    1    2    0    0  0.89235012756E+01 -0.36263242185E+02  0.72885887983E+02  0.12269388658E+03  0.91360743911E+02 0.  0.
        -11    1    4    4    0    0  0.45605557852E+02 -0.40494786137E+02  0.52742153747E+02  0.80631441716E+02  0.00000000000E+00 0. -1.
         11    1    4    4    0    0 -0.36682056576E+02  0.42315439525E+01  0.20143734235E+02  0.42062444863E+02  0.00000000000E+00 0.  1.
        -13    1    3    3    0    0 -0.73339652664E+02 -0.18625687754E+02  0.21705515349E+03  0.22986639718E+03  0.00000000000E+00 0. -1.
         13    1    3    3    0    0 -0.20235732751E+02  0.33263099044E+02  0.25067289451E+02  0.46306453529E+02  0.00000000000E+00 0.  1.
          1    1    1    2  501    0  0.84651884140E+02  0.21625830895E+02  0.54074888775E+02  0.10275072577E+03  0.00000000000E+00 0. -1.
<scales pt_clust_5="13000.00000" pt_clust_6="13000.00000" pt_clust_7="13000.00000" pt_clust_8="13000.00000" pt_clust_9="87.37058"></scales>
<clustering>
<clus scale="   87.371">  2  9  1 -1</clus>
<clus scale="   91.361">  5  6 -1 -1</clus>
<clus scale="   93.153">  7  8 -1 -1</clus>
<clus scale="  111.356">  2  5  1 -1</clus>
<clus scale="   87.371">  2  5  1 -1</clus>
</clustering>
</event>
<event>
 9    1  0.1321469E-005  0.1092616E+03  0.7546771E-02  0.1262926E+00
         -1   -1    0    0    0  501 -0.00000000000E+00  0.00000000000E+00  0.13600710441E+03  0.13600710441E+03  0.00000000000E+00 0.  1.
         21   -1    0    0  501  502  0.00000000000E+00 -0.00000000000E+00 -0.14119830012E+03  0.14119830012E+03  0.00000000000E+00 0. -1.
         23    2    1    2    0    0  0.46849281591E+02  0.49689605880E+02  0.69304499133E+02  0.13264224141E+03  0.90149534037E+02 0.  0.
         23    2    1    2    0    0 -0.34802036486E+02 -0.28804971466E+02 -0.51386082076E+02  0.11116618314E+03  0.87615539254E+02 0.  0.
        -11    1    4    4    0    0 -0.26601441684E+02 -0.50208083074E+01  0.21174022815E+02  0.34368364202E+02  0.00000000000E+00 0.  1.
         11    1    4    4    0    0 -0.82005948021E+01 -0.23784163159E+02 -0.72560104892E+02  0.76797818942E+02  0.00000000000E+00 0. -1.
        -11    1    3    3    0    0  0.44880132238E+02 -0.15788799660E+02  0.30122405830E+02  0.56310494558E+02  0.00000000000E+00 0.  1.
         11    1    3    3    0    0  0.19691493531E+01  0.65478405540E+02  0.39182093303E+02  0.76331746848E+02  0.00000000000E+00 0. -1.
         -1    1    1    2    0  502 -0.12047245105E+02 -0.20884634414E+02 -0.23109612771E+02  0.33396979977E+02  0.00000000000E+00 0.  1.
<scales pt_clust_5="13000.00000" pt_clust_6="13000.00000" pt_clust_7="13000.00000" pt_clust_8="13000.00000" pt_clust_9="24.11025"></scales>
<clustering>
<clus scale="   24.110">  2  9  1 -1</clus>
<clus scale="   87.616">  5  6 -1 -1</clus>
<clus scale="   90.150">  7  8 -1 -1</clus>
<clus scale="  107.180">  2  5  1 -1</clus>
<clus scale="   24.110">  2  5  1 -1</clus>
</clustering>
</event>
<event>
 9    1  0.1321469E-005  0.1002886E+03  0.7546771E-02  0.1283809E+00
         21   -1    0    0  501  502  0.00000000000E+00  0.00000000000E+00  0.12402056482E+03  0.12402056482E+03  0.00000000000E+00 0. -1.
         -1   -1    0    0    0  501 -0.00000000000E+00 -0.00000000000E+00 -0.13730773611E+03  0.13730773611E+03  0.00000000000E+00 0.  1.
         23    2    1    2    0    0 -0.21327663037E+02  0.54392612395E+01 -0.56622436639E+02  0.11698921849E+03  0.99979608618E+02 0.  0.
         23    2    1    2    0    0 -0.17486437314E+02  0.43223767815E+01  0.15094728281E+02  0.95355902697E+02  0.92414495218E+02 0.  0.
        -11    1    3    3    0    0  0.22638879279E+02 -0.29057891595E+02  0.82300134811E+00  0.36845043767E+02  0.00000000000E+00 0.  1.
         11    1    3    3    0    0 -0.43966542317E+02  0.34497152835E+02 -0.57445437987E+02  0.80144174726E+02  0.00000000000E+00 0. -1.
        -11    1    4    4    0    0  0.10029231226E+02  0.44370320164E+02  0.54063413812E+01  0.45809816826E+02  0.00000000000E+00 0.  1.
         11    1    4    4    0    0 -0.27515668541E+02 -0.40047943383E+02  0.96883868997E+01  0.49546085871E+02  0.00000000000E+00 0. -1.
         -1    1    1    2    0  502  0.38814100352E+02 -0.97616380211E+01  0.28240537075E+02  0.48983179738E+02  0.00000000000E+00 0.  1.
<scales pt_clust_5="13000.00000" pt_clust_6="13000.00000" pt_clust_7="13000.00000" pt_clust_8="13000.00000" pt_clust_9="40.02279"></scales>
<clustering>
<clus scale="   40.023">  1  9  2 -1</clus>
<clus scale="   92.414">  7  8 -1 -1</clus>
<clus scale="   92.749">  1  7  2 -1</clus>
<clus scale="   99.980">  5  6 -1 -1</clus>
<clus scale="   40.023">  1  5  2 -1</clus>
</clustering>
</event>
<event>
 9    1  0.1321469E-005  0.1202315E+03  0.7546771E-02  0.1243154E+00
         21   -1    0    0  501  502  0.00000000000E+00  0.00000000000E+00  0.28635207270E+02  0.28635207270E+02  0.00000000000E+00 0. -1.
          2   -1    0    0  502    0 -0.00000000000E+00 -0.00000000000E+00 -0.10936231587E+04  0.10936231587E+04  0.00000000000E+00 0. -1.
         23    2    1    2    0    0 -0.38601746596E+02 -0.63695927042E+01 -0.28865120629E+03  0.30560039846E+03  0.92419792736E+02 0.  0.
         23    2    1    2    0    0  0.12092797524E+03 -0.32113039071E+02 -0.58040978152E+03  0.60068135781E+03  0.91037116928E+02 0.  0.
        -13    1    3    3    0    0 -0.10098157243E+02  0.31032593546E+02 -0.35917402835E+02  0.48528903432E+02  0.00000000000E+00 0.  1.
         13    1    3    3    0    0 -0.28503589353E+02 -0.37402186251E+02 -0.25273380346E+03  0.25707149502E+03  0.00000000000E+00 0. -1.
        -13    1    4    4    0    0  0.11555485538E+03 -0.97835867211E+01 -0.55248660829E+03  0.56452643473E+03  0.00000000000E+00 0. -1.
         13    1    4    4    0    0  0.53731198562E+01 -0.22329452350E+02 -0.27923173227E+02  0.36154923071E+02  0.00000000000E+00 0.  1.
          2    1    1    2  501    0 -0.82326228639E+02  0.38482631775E+02 -0.19592696364E+03  0.21597660973E+03  0.00000000000E+00 0. -1.
<scales pt_clust_5="13000.00000" pt_clust_6="13000.00000" pt_clust_7="13000.00000" pt_clust_8="13000.00000" pt_clust_9="90.87640"></scales>
<clustering>
<clus scale="   90.876">  1  9  2 -1</clus>
<clus scale="   91.037">  7  8 -1 -1</clus>
<clus scale="   92.420">  5  6 -1 -1</clus>
<clus scale="  119.172">  1  7  2 -1</clus>
<clus scale="   90.876">  1  5  2 -1</clus>
</clustering>
</event>
<event>
 9    1  0.1321469E-005  0.9718496E+02  0.7546771E-02  0.1287152E+00
         -3   -1    0    0    0  501 -0.00000000000E+00  0.00000000000E+00  0.53935737150E+02  0.53935737150E+02  0.00000000000E+00 0.  1.
         21   -1    0    0  501  502  0.00000000000E+00 -0.00000000000E+00 -0.35599785848E+03  0.35599785848E+03  0.00000000000E+00 0. -1.
         23    2    1    2    0    0 -0.19891111459E+02  0.63956741651E+01 -0.32318444098E+02  0.99014992517E+02  0.91230071528E+02 0.  0.
         23    2    1    2    0    0  0.51973327149E+02  0.18129873788E+02 -0.15167766755E+03  0.18613737973E+03  0.92795960267E+02 0.  0.
        -11    1    4    4    0    0  0.40777084384E+02 -0.31198501410E+02 -0.10686539567E+03  0.11855939395E+03  0.00000000000E+00 0. -1.
         11    1    4    4    0    0  0.11196242765E+02  0.49328375198E+02 -0.44812271870E+02  0.67577985779E+02  0.00000000000E+00 0.  1.
        -13    1    3    3    0    0 -0.45097394233E+02  0.14383986016E+02  0.10690532680E+02  0.48527945653E+02  0.00000000000E+00 0.  1.
         13    1    3    3    0    0  0.25206282774E+02 -0.79883118507E+01 -0.43008976778E+02  0.50487046864E+02  0.00000000000E+00 0. -1.
         -3    1    1    2    0  502 -0.32082215691E+02 -0.24525547953E+02 -0.11806600969E+03  0.12478122338E+03  0.00000000000E+00 0.  1.
<scales pt_clust_5="13000.00000" pt_clust_6="13000.00000" pt_clust_7="13000.00000" pt_clust_8="13000.00000" pt_clust_9="40.38281"></scales>
<clustering>
<clus scale="   40.383">  2  9  1 -1</clus>
<clus scale="   91.230">  7  8 -1 -1</clus>
<clus scale="   92.796">  5  6 -1 -1</clus>
<clus scale="   95.691">  1  7  2 -1</clus>
<clus scale="   40.383">  2  5  1 -1</clus>
</clustering>
</event>
<event>
 9    1  0.1321469E-005  0.1380493E+03  0.7546771E-02  0.1216027E+00
         21   -1    0    0  501  502  0.00000000000E+00  0.00000000000E+00  0.80268701328E+02  0.80268701328E+02  0.00000000000E+00 0.  1.
          1   -1    0    0  502    0 -0.00000000000E+00 -0.00000000000E+00 -0.61325928499E+03  0.61325928499E+03  0.00000000000E+00 0. -1.
         23    2    1    2    0    0  0.16795778687E+02 -0.87074991759E+02 -0.32696348670E+03  0.35056692499E+03  0.90154838420E+02 0.  0.
         23    2    1    2    0    0 -0.88220222104E+01  0.16900984774E+03 -0.14365463132E+03  0.23967879815E+03  0.90372100072E+02 0.  0.
        -11    1    3    3    0    0  0.29810819061E+02 -0.75864317049E+01 -0.18330792176E+03  0.18587101189E+03  0.00000000000E+00 0.  1.
         11    1    3    3    0    0 -0.13015040374E+02 -0.79488560054E+02 -0.14365556494E+03  0.16469591311E+03  0.00000000000E+00 0. -1.
        -13    1    4    4    0    0 -0.38829572511E+02  0.90585637084E+02 -0.11383522532E+03  0.15057208197E+03  0.00000000000E+00 0.  1.
         13    1    4    4    0    0  0.30007550301E+02  0.78424210659E+02 -0.29819406002E+02  0.89106716171E+02  0.00000000000E+00 0. -1.
          1    1    1    2  501    0 -0.79737564763E+01 -0.81934855984E+02 -0.62372465642E+02  0.10328226318E+03  0.00000000000E+00 0. -1.
<scales pt_clust_5="13000.00000" pt_clust_6="13000.00000" pt_clust_7="13000.00000" pt_clust_8="13000.00000" pt_clust_9="82.32194"></scales>
<clustering>
<clus scale="   82.322">  1  9  2 -1</clus>
<clus scale="   90.155">  5  6 -1 -1</clus>
<clus scale="   90.372">  7  8 -1 -1</clus>
<clus scale="  137.907">  2  5  1 -1</clus>
<clus scale="   82.322">  1  5  2 -1</clus>
</clustering>
</event>
<event>
 9    1  0.1321469E-005  0.1071594E+03  0.7546771E-02  0.1266936E+00
          1   -1    0    0  502    0 -0.00000000000E+00  0.00000000000E+00  0.58959562652E+02  0.58959562652E+02  0.00000000000E+00 0. -1.
         21   -1    0    0  501  502  0.00000000000E+00 -0.00000000000E+00 -0.97198199573E+03  0.97198199573E+03  0.00000000000E+00 0. -1.
         23    2    1    2    0    0  0.76885603215E+02 -0.78790935123E+00 -0.25763695230E+02  0.12082886808E+03  0.89575837069E+02 0.  0.
         23    2    1    2    0    0  0.97153636221E+00 -0.28077642127E+02 -0.22837579436E+03  0.24601805288E+03  0.87063660726E+02 0.  0.
        -11    1    4    4    0    0 -0.17381468013E+02  0.27717656540E+02 -0.84808213184E+02  0.90900038162E+02  0.00000000000E+00 0.  1.
         11    1    4    4    0    0  0.18353004375E+02 -0.55795298667E+02 -0.14356758118E+03  0.15511801471E+03  0.00000000000E+00 0. -1.
        -13    1    3    3    0    0  0.66511003798E+02  0.25109818847E+02 -0.47466717935E+02  0.85482781543E+02  0.00000000000E+00 0.  1.
         13    1    3    3    0    0  0.10374599417E+02 -0.25897728198E+02  0.21703022706E+02  0.35346086536E+02  0.00000000000E+00 0. -1.
          1    1    1    2  501    0 -0.77857139577E+02  0.28865551478E+02 -0.65888294348E+03  0.66409463743E+03  0.00000000000E+00 0. -1.
<scales pt_clust_5="13000.00000" pt_clust_6="13000.00000" pt_clust_7="13000.00000" pt_clust_8="13000.00000" pt_clust_9="83.03586"></scales>
<clustering>
<clus scale="   83.036">  2  9  1 -1</clus>
<clus scale="   87.064">  5  6 -1 -1</clus>
<clus scale="   89.576">  7  8 -1 -1</clus>
<clus scale="  105.068">  2  5  1 -1</clus>
<clus scale="   83.036">  2  5  1 -1</clus>
</clustering>
</event>
<event>
 9    1  0.1321469E-005  0.1271146E+03  0.7546771E-02  0.1232093E+00
          3   -1    0    0  502    0 -0.00000000000E+00  0.00000000000E+00  0.13614223205E+03  0.13614223205E+03  0.00000000000E+00 0. -1.
         21   -1    0    0  501  502  0.00000000000E+00 -0.00000000000E+00 -0.14508159916E+03  0.14508159916E+03  0.00000000000E+00 0.  1.
         23    2    1    2    0    0 -0.44366033353E+02 -0.73860968569E+02  0.29089709085E+01  0.12678990753E+03  0.92970054030E+02 0.  0.
         23    2    1    2    0    0  0.21997256092E+02  0.86449824611E+02 -0.68025322309E+01  0.12827476374E+03  0.91927629786E+02 0.  0.
        -11    1    3    3    0    0 -0.62050749316E+02 -0.49106685267E+02  0.31377068277E+02  0.85125098779E+02  0.00000000000E+00 0. -1.
         11    1    3    3    0    0  0.17684715963E+02 -0.24754283302E+02 -0.28468097368E+02  0.41664808751E+02  0.00000000000E+00 0.  1.
        -11    1    4    4    0    0 -0.82384611101E+01  0.39099504762E+02  0.38965091420E+02  0.55811485050E+02  0.00000000000E+00 0. -1.
         11    1    4    4    0    0  0.30235717202E+02  0.47350319849E+02 -0.45767623651E+02  0.72463278695E+02  0.00000000000E+00 0.  1.
          3    1    1    2  501    0  0.22368777261E+02 -0.12588856042E+02 -0.50458057794E+01  0.26159159936E+02  0.00000000000E+00 0. -1.
<scales pt_clust_5="13000.00000" pt_clust_6="13000.00000" pt_clust_7="13000.00000" pt_clust_8="13000.00000" pt_clust_9="25.66791"></scales>
<clustering>
<clus scale="   25.668">  2  9  1 -1</clus>
<clus scale="   91.928">  7  8 -1 -1</clus>
<clus scale="   92.970">  5  6 -1 -1</clus>
<clus scale="  126.354">  2  7  1 -1</clus>
<clus scale="   25.668">  2  5  1 -1</clus>
</clustering>
</event>
<event>
 9    1  0.1321469E-005  0.2467547E+03  0.7546771E-02  0.1115426E+00
         21   -1    0    0  501  502  0.00000000000E+00  0.00000000000E+00  0.91092078186E+02  0.91092078186E+02  0.00000000000E+00 0. -1.
          1   -1    0    0  502    0 -0.00000000000E+00 -0.00000000000E+00 -0.77876717752E+03  0.77876717752E+03  0.00000000000E+00 0. -1.
         23    2    1    2    0    0 -0.21240408165E+03  0.12666988107E+02 -0.30603154441E+03  0.38378182240E+03  0.91417911509E+02 0.  0.
         23    2    1    2    0    0  0.24827931536E+03 -0.61286612443E+01 -0.34130000207E+03  0.43169559471E+03  0.90527433175E+02 0.  0.
        -11    1    4    4    0    0  0.71343070884E+02  0.28502043935E+02 -0.59572252027E+02  0.97216528858E+02  0.00000000000E+00 0. -1.
         11    1    4    4    0    0  0.17693624447E+03 -0.34630705179E+02 -0.28172775005E+03  0.33447906586E+03  0.00000000000E+00 0.  1.
        -13    1    3    3    0    0 -0.10789439790E+03 -0.36841797929E+02 -0.17669276481E+03  0.21028279128E+03  0.00000000000E+00 0.  1.
         13    1    3    3    0    0 -0.10450968375E+03  0.49508786036E+02 -0.12933877960E+03  0.17349903112E+03  0.00000000000E+00 0. -1.
          1    1    1    2  501    0 -0.35875233703E+02 -0.65383268626E+01 -0.40343552849E+02  0.54381838585E+02  0.00000000000E+00 0. -1.
<scales pt_clust_5="13000.00000" pt_clust_6="13000.00000" pt_clust_7="13000.00000" pt_clust_8="13000.00000" pt_clust_9="36.46618"></scales>
<clustering>
<clus scale="   36.466">  1  9  2 -1</clus>
<clus scale="   90.527">  5  6 -1 -1</clus>
<clus scale="   91.418">  7  8 -1 -1</clus>
<clus scale="  246.426">  1  5  2 -1</clus>
<clus scale="   36.466">  1  5  2 -1</clus>
</clustering>
</event>
<event>
 9    1  0.1321469E-005  0.1103076E+03  0.7546771E-02  0.1261458E+00
         21   -1    0    0  501  502  0.00000000000E+00  0.00000000000E+00  0.75085030148E+02  0.75085030148E+02  0.00000000000E+00 0.  1.
          1   -1    0    0  502    0 -0.00000000000E+00 -0.00000000000E+00 -0.43220250339E+03  0.43220250339E+03  0.00000000000E+00 0. -1.
         23    2    1    2    0    0  0.49993717339E+02  0.58657369384E+02 -0.26800666895E+03  0.29268423254E+03  0.88861840068E+02 0.  0.
         23    2    1    2    0    0  0.35703729836E+02 -0.34485273661E+02 -0.36703368691E+02  0.11128398059E+03  0.92590478120E+02 0.  0.
        -11    1    4    4    0    0  0.46782155036E+02 -0.59865637315E+02 -0.18669805853E+02  0.78236987490E+02  0.00000000000E+00 0.  1.
         11    1    4    4    0    0 -0.11078425201E+02  0.25380363654E+02 -0.18033562838E+02  0.33046993098E+02  0.00000000000E+00 0. -1.
        -13    1    3    3    0    0  0.71355633504E+02  0.61679998334E+02 -0.23533099948E+03  0.25352855450E+03  0.00000000000E+00 0.  1.
         13    1    3    3    0    0 -0.21361916166E+02 -0.30226289503E+01 -0.32675669465E+02  0.39155678044E+02  0.00000000000E+00 0. -1.
          1    1    1    2  501    0 -0.85697447174E+02 -0.24172095724E+02 -0.52407435602E+02  0.10331932041E+03  0.00000000000E+00 0. -1.
<scales pt_clust_5="13000.00000" pt_clust_6="13000.00000" pt_clust_7="13000.00000" pt_clust_8="13000.00000" pt_clust_9="89.04124"></scales>
<clustering>
<clus scale="   88.862">  7  8 -1 -1</clus>
<clus scale="   89.041">  1  9  2 -1</clus>
<clus scale="   92.590">  5  6 -1 -1</clus>
<clus scale="  107.197">  2  7  1 -1</clus>
<clus scale="   89.041">  1  5  2 -1</clus>
</clustering>
</event>
<event>
 9    1  0.1321469E-005  0.1016831E+03  0.7546771E-02  0.1278975E+00
         21   -1    0    0  501  502  0.00000000000E+00  0.00000000000E+00  0.27140251869E+03  0.27140251869E+03  0.00000000000E+00 0. -1.
          2   -1    0    0  502    0 -0.00000000000E+00 -0.00000000000E+00 -0.72008174477E+02  0.72008174477E+02  0.00000000000E+00 0. -1.
         23    2    1    2    0    0  0.21581758617E+02 -0.41513611290E+00  0.12529557671E+02  0.94800896621E+02  0.91456413344E+02 0.  0.
         23    2    1    2    0    0 -0.64715556097E+02  0.12698919539E+02  0.11301848040E+03  0.16221134314E+03  0.95864368630E+02 0.  0.
        -13    1    4    4    0    0 -0.38867487548E+02 -0.33113242914E+02  0.19004456903E+02  0.54482454302E+02  0.00000000000E+00 0. -1.
         13    1    4    4    0    0 -0.25848068549E+02  0.45812162453E+02  0.94014023495E+02  0.10772888884E+03  0.00000000000E+00 0.  1.
        -13    1    3    3    0    0 -0.16922603825E+02 -0.37003344584E+02  0.26617432542E+01  0.40776303262E+02  0.00000000000E+00 0.  1.
         13    1    3    3    0    0  0.38504362442E+02  0.36588208471E+02  0.98678144172E+01  0.54024593358E+02  0.00000000000E+00 0. -1.
          2    1    1    2  501    0  0.43133797481E+02 -0.12283783426E+02  0.73846306147E+02  0.86398453411E+02  0.00000000000E+00 0. -1.
<scales pt_clust_5="13000.00000" pt_clust_6="13000.00000" pt_clust_7="13000.00000" pt_clust_8="13000.00000" pt_clust_9="44.84881"></scales>
<clustering>
<clus scale="   44.849">  1  9  2 -1</clus>
<clus scale="   91.456">  7  8 -1 -1</clus>
<clus scale="   95.864">  5  6 -1 -1</clus>
<clus scale="   97.538">  2  7  1 -1</clus>
<clus scale="   44.849">  1  5  2 -1</clus>
</clustering>
</event>
<event>
 9    1  0.1321469E-005  0.1785806E+03  0.7546771E-02  0.1169344E+00
          4   -1    0    0  502    0 -0.00000000000E+00  0.00000000000E+00  0.17543919265E+03  0.17543919265E+03  0.00000000000E+00 0. -1.
         21   -1    0    0  501  502  0.00000000000E+00 -0.00000000000E+00 -0.24080391164E+03  0.24080391164E+03  0.00000000000E+00 0.  1.
         23    2    1    2    0    0 -0.59877935455E+02  0.13507054340E+03  0.10235144287E+02  0.17330762979E+03  0.90007541433E+02 0.  0.
         23    2    1    2    0    0  0.53278043039E+02 -0.15396279695E+03 -0.23327591791E+02  0.18696346195E+03  0.88702124258E+02 0.  0.
        -11    1    4    4    0    0  0.68253750225E+01 -0.95398280580E+02 -0.49589696480E+02  0.10773372582E+03  0.00000000000E+00 0.  1.
         11    1    4    4    0    0  0.46452668017E+02 -0.58564516373E+02  0.26262104689E+02  0.79229736126E+02  0.00000000000E+00 0. -1.
        -11    1    3    3    0    0 -0.79084668003E+02  0.76614001886E+02  0.16968687889E+02  0.11140927415E+03  0.00000000000E+00 0.  1.
         11    1    3    3    0    0  0.19206732547E+02  0.58456541515E+02 -0.67335436023E+01  0.61898355637E+02  0.00000000000E+00 0. -1.
          4    1    1    2  501    0  0.65998924162E+01  0.18892253553E+02 -0.52272271488E+02  0.55972012566E+02  0.00000000000E+00 0. -1.
<scales pt_clust_5="13000.00000" pt_clust_6="13000.00000" pt_clust_7="13000.00000" pt_clust_8="13000.00000" pt_clust_9="20.01189"></scales>
<clustering>
<clus scale="   20.012">  2  9  1 -1</clus>
<clus scale="   88.702">  5  6 -1 -1</clus>
<clus scale="   90.008">  7  8 -1 -1</clus>
<clus scale="  177.926">  2  5  1 -1</clus>
<clus scale="   20.012">  2  5  1 -1</clus>
</clustering>
</event>
<event>
 9    1  0.1502464E-005  0.1060971E+03  0.7546771E-02  0.1268880E+00
          1   -1    0    0  502    0 -0.00000000000E+00  0.00000000000E+00  0.36342369536E+03  0.36342369536E+03  0.00000000000E+00 0. -1.
         21   -1    0    0  501  502  0.00000000000E+00 -0.00000000000E+00 -0.19129153873E+03  0.19129153873E+03  0.00000000000E+00 0. -1.
         23    2    1    2    0    0 -0.31127870925E+02  0.41891464742E+02  0.24052201124E+03  0.26310053546E+03  0.92990401135E+02 0.  0.
         23    2    1    2    0    0 -0.13867632343E+00 -0.56326257066E+02  0.83632816009E+02  0.13574022162E+03  0.90875152736E+02 0.  0.
        -11    1    3    3    0    0 -0.38944030052E+02 -0.19618028630E+02  0.11763277509E+03  0.12545506884E+03  0.00000000000E+00 0. -1.
         11    1    3    3    0    0  0.78161591272E+01  0.61509493371E+02  0.12288923615E+03  0.13764546662E+03  0.00000000000E+00 0.  1.
        -11    1    4    4    0    0  0.43427761253E+02 -0.14676235562E+02  0.27989342449E+02  0.53710014229E+02  0.00000000000E+00 0. -1.
         11    1    4    4    0    0 -0.43566437576E+02 -0.41650021504E+02  0.55643473560E+02  0.82030207388E+02  0.00000000000E+00 0.  1.
          1    1    1    2  501    0  0.31266547249E+02  0.14434792325E+02 -0.15202267061E+03  0.15587447702E+03  0.00000000000E+00 0. -1.
<scales pt_clust_5="13000.00000" pt_clust_6="13000.00000" pt_clust_7="13000.00000" pt_clust_8="13000.00000" pt_clust_9="34.43777"></scales>
<clustering>
<clus scale="   34.438">  2  9  1 -1</clus>
<clus scale="   90.875">  7  8 -1 -1</clus>
<clus scale="   92.990">  5  6 -1 -1</clus>
<clus scale="  104.248">  2  7  1 -1</clus>
<clus scale="   34.438">  2  5  1 -1</clus>
</clustering>
</event>
<event>
 9    1  0.1321469E-005  0.9241309E+02  0.7546771E-02  0.1297578E+00
         -1   -1    0    0    0  501 -0.00000000000E+00  0.00000000000E+00  0.42737661717E+03  0.42737661717E+03  0.00000000000E+00 0.  1.
         21   -1    0    0  501  502  0.00000000000E+00 -0.00000000000E+00 -0.80271769917E+02  0.80271769917E+02  0.00000000000E+00 0.  1.
         23    2    1    2    0    0 -0.38607631758E+01  0.16432425161E+02  0.26730567534E+03  0.28293625675E+03  0.91190302251E+02 0.  0.
         23    2    1    2    0    0 -0.50361015088E+01  0.50446247402E+01  0.13574251621E+03  0.16413098109E+03  0.91989878184E+02 0.  0.
        -11    1    4    4    0    0  0.41442742337E+02  0.11151184679E+02  0.83881552041E+02  0.94222951476E+02  0.00000000000E+00 0.  1.
         11    1    4    4    0    0 -0.46478843846E+02 -0.61065599390E+01  0.51860964172E+02  0.69908029613E+02  0.00000000000E+00 0. -1.
        -13    1    3    3    0    0 -0.15700964094E+01  0.54376925656E+02  0.16885421671E+03  0.17740085047E+03  0.00000000000E+00 0.  1.
         13    1    3    3    0    0 -0.22906667664E+01 -0.37944500495E+02  0.98451458632E+02  0.10553540628E+03  0.00000000000E+00 0. -1.
         -1    1    1    2    0  502  0.88968646846E+01 -0.21477049901E+02 -0.55943344297E+02  0.60581149253E+02  0.00000000000E+00 0.  1.
<scales pt_clust_5="13000.00000" pt_clust_6="13000.00000" pt_clust_7="13000.00000" pt_clust_8="13000.00000" pt_clust_9="23.24689"></scales>
<clustering>
<clus scale="   23.247">  2  9  1 -1</clus>
<clus scale="   91.190">  7  8 -1 -1</clus>
<clus scale="   91.617">  1  7  2 -1</clus>
<clus scale="   91.990">  5  6 -1 -1</clus>
<clus scale="   23.247">  2  5  1 -1</clus>
</clustering>
</event>
<event>
 9    1  0.1321469E-005  0.1924155E+03  0.7546771E-02  0.1158070E+00
          3   -1    0    0  502    0 -0.00000000000E+00  0.00000000000E+00  0.19541978550E+03  0.19541978550E+03  0.00000000000E+00 0. -1.
         21   -1    0    0  501  502  0.00000000000E+00 -0.00000000000E+00 -0.50315572219E+03  0.50315572219E+03  0.00000000000E+00 0. -1.
         23    2    1    2    0    0  0.15690781055E+03 -0.47297213705E+02  0.95007379249E+02  0.21704430132E+03  0.10594686964E+03 0.  0.
         23    2    1    2    0    0 -0.11283382678E+03  0.10840396950E+03 -0.33221200616E+03  0.37832647146E+03  0.91012136013E+02 0.  0.
        -11    1    4    4    0    0 -0.42737580806E+02 -0.95574241238E+01 -0.81503711614E+02  0.92524051878E+02  0.00000000000E+00 0.  1.
         11    1    4    4    0    0 -0.70096245973E+02  0.11796139362E+03 -0.25070829454E+03  0.28580241958E+03  0.00000000000E+00 0. -1.
        -13    1    3    3    0    0  0.10667179478E+03 -0.68952201325E+02  0.27156735060E+02  0.12988751336E+03  0.00000000000E+00 0. -1.
         13    1    3    3    0    0  0.50236015769E+02  0.21654987620E+02  0.67850644189E+02  0.87156787952E+02  0.00000000000E+00 0.  1.
          3    1    1    2  501    0 -0.44073983770E+02 -0.61106755791E+02 -0.70531309785E+02  0.10320473491E+03  0.00000000000E+00 0. -1.
<scales pt_clust_5="13000.00000" pt_clust_6="13000.00000" pt_clust_7="13000.00000" pt_clust_8="13000.00000" pt_clust_9="75.34289"></scales>
<clustering>
<clus scale="   75.343">  2  9  1 -1</clus>
<clus scale="   91.012">  5  6 -1 -1</clus>
<clus scale="  105.947">  7  8 -1 -1</clus>
<clus scale="  184.614">  2  5  1 -1</clus>
<clus scale="   75.343">  2  5  1 -1</clus>
</clustering>
</event>
<event>
 9    1  0.1321469E-005  0.9228570E+02  0.7546771E-02  0.1297422E+00
          2   -1    0    0  502    0 -0.00000000000E+00  0.00000000000E+00  0.33334666811E+03  0.33334666811E+03  0.00000000000E+00 0. -1.
         21   -1    0    0  501  502  0.00000000000E+00 -0.00000000000E+00 -0.61243210498E+03  0.61243210498E+03  0.00000000000E+00 0. -1.
         23    2    1    2    0    0  0.81133587295E+00  0.25395456889E+02  0.22895008416E+03  0.24791143306E+03  0.91631599944E+02 0.  0.
         23    2    1    2    0    0 -0.24593162918E+02  0.43991520430E+02  0.63024010138E+02  0.12211642511E+03  0.91653248139E+02 0.  0.
        -11    1    4    4    0    0 -0.33393013925E+02  0.67609311407E+02  0.31413492903E+02  0.81687942221E+02  0.00000000000E+00 0. -1.
         11    1    4    4    0    0  0.87998510071E+01 -0.23617790977E+02  0.31610517235E+02  0.40428482884E+02  0.00000000000E+00 0.  1.
        -13    1    3    3    0    0 -0.43637446186E+02  0.23334763040E+02  0.13925065221E+03  0.14778187310E+03  0.00000000000E+00 0. -1.
         13    1    3    3    0    0  0.44448782059E+02  0.20606938493E+01  0.89699431942E+02  0.10012955995E+03  0.00000000000E+00 0.  1.
          2    1    1    2  501    0  0.23781827045E+02 -0.69386977319E+02 -0.57105953116E+03  0.57575091493E+03  0.00000000000E+00 0. -1.
<scales pt_clust_5="13000.00000" pt_clust_6="13000.00000" pt_clust_7="13000.00000" pt_clust_8="13000.00000" pt_clust_9="73.34936"></scales>
<clustering>
<clus scale="   73.349">  2  9  1 -1</clus>
<clus scale="   91.632">  7  8 -1 -1</clus>
<clus scale="   91.653">  5  6 -1 -1</clus>
<clus scale="   92.264">  1  7  2 -1</clus>
<clus scale="   73.349">  2  5  1 -1</clus>
</clustering>
</event>
<event>
 9    1  0.1321469E-005  0.9909658E+02  0.7546771E-02  0.1284514E+00
         21   -1    0    0  501  502  0.00000000000E+00  0.00000000000E+00  0.84634130768E+02  0.84634130768E+02  0.00000000000E+00 0.  1.
          1   -1    0    0  502    0 -0.00000000000E+00 -0.00000000000E+00 -0.22212204174E+03  0.22212204174E+03  0.00000000000E+00 0. -1.
         23    2    1    2    0    0  0.59619711378E+01 -0.37679706359E+02 -0.10416836590E+03  0.14283572762E+03  0.89976059374E+02 0.  0.
         23    2    1    2    0    0  0.41936289961E+02  0.96927107072E+01 -0.31359713061E+02  0.10841047926E+03  0.94428805737E+02 0.  0.
        -11    1    4    4    0    0 -0.13016003006E+02  0.23944165934E+02 -0.42567631548E+02  0.50544462329E+02  0.00000000000E+00 0. -1.
         11    1    4    4    0    0  0.54952292967E+02 -0.14251455227E+02  0.11207918487E+02  0.57866016928E+02  0.00000000000E+00 0.  1.
        -13    1    3    3    0    0 -0.38735993287E+02 -0.35886596983E+02 -0.51932974322E+02  0.74063208416E+02  0.00000000000E+00 0. -1.
         13    1    3    3    0    0  0.44697964425E+02 -0.17931093768E+01 -0.52235391578E+02  0.68772519208E+02  0.00000000000E+00 0.  1.
          1    1    1    2  501    0 -0.47898261098E+02  0.27986995652E+02 -0.19598320072E+01  0.55509965622E+02  0.00000000000E+00 0. -1.
<scales pt_clust_5="13000.00000" pt_clust_6="13000.00000" pt_clust_7="13000.00000" pt_clust_8="13000.00000" pt_clust_9="55.47536"></scales>
<clustering>
<clus scale="   55.475">  1  9  2 -1</clus>
<clus scale="   89.976">  7  8 -1 -1</clus>
<clus scale="   94.429">  5  6 -1 -1</clus>
<clus scale="   94.863">  2  7  1 -1</clus>
<clus scale="   55.475">  1  5  2 -1</clus>
</clustering>
</event>
<event>
 9    1  0.1321469E-005  0.9861464E+02  0.7546771E-02  0.1283723E+00
         21   -1    0    0  501  502  0.00000000000E+00  0.00000000000E+00  0.59293905806E+02  0.59293905806E+02  0.00000000000E+00 0. -1.
         -3   -1    0    0    0  501 -0.00000000000E+00 -0.00000000000E+00 -0.36538505930E+03  0.36538505930E+03  0.00000000000E+00 0.  1.
         23    2    1    2    0    0 -0.59791226062E+01 -0.19840318418E+02 -0.14222111841E+03  0.17074266313E+03  0.92178209726E+02 0.  0.
         23    2    1    2    0    0  0.59145462131E+02  0.49604874465E+02 -0.60473142465E+02  0.13392169512E+03  0.91209594912E+02 0.  0.
        -13    1    4    4    0    0  0.58536377273E+02  0.20305606257E+02 -0.78124391024E+02  0.99710809758E+02  0.00000000000E+00 0.  1.
         13    1    4    4    0    0  0.60908485768E+00  0.29299268208E+02  0.17651248558E+02  0.34210885366E+02  0.00000000000E+00 0. -1.
        -13    1    3    3    0    0 -0.68139471671E+01 -0.48658108356E+02 -0.13081643339E+03  0.13973897320E+03  0.00000000000E+00 0.  1.
         13    1    3    3    0    0  0.83482456091E+00  0.28817789939E+02 -0.11404685020E+02  0.31003689932E+02  0.00000000000E+00 0. -1.
         -3    1    1    2    0  502 -0.53166339525E+02 -0.29764556047E+02 -0.10339689262E+03  0.12001460685E+03  0.00000000000E+00 0.  1.
<scales pt_clust_5="13000.00000" pt_clust_6="13000.00000" pt_clust_7="13000.00000" pt_clust_8="13000.00000" pt_clust_9="60.93104"></scales>
<clustering>
<clus scale="   60.931">  1  9  2 -1</clus>
<clus scale="   91.210">  5  6 -1 -1</clus>
<clus scale="   92.178">  7  8 -1 -1</clus>
<clus scale="   97.710">  1  5  2 -1</clus>
<clus scale="   60.931">  1  5  2 -1</clus>
</clustering>
</event>
<event>
 9    1  0.1321469E-005  0.1775971E+03  0.7546771E-02  0.1170400E+00
         21   -1    0    0  501  502  0.00000000000E+00  0.00000000000E+00  0.65579329796E+03  0.65579329796E+03  0.00000000000E+00 0. -1.
         -4   -1    0    0    0  501 -0.00000000000E+00 -0.00000000000E+00 -0.13602870850E+03  0.13602870850E+03  0.00000000000E+00 0.  1.
         23    2    1    2    0    0 -0.10695618724E+03  0.61197358295E+02  0.52411525244E+02  0.16103114885E+03  0.89438919216E+02 0.  0.
         23    2    1    2    0    0  0.24267159762E+03 -0.10002885787E+03  0.35189790369E+03  0.44842734134E+03  0.91431226287E+02 0.  0.
        -13    1    3    3    0    0 -0.80765831411E+02 -0.22869075165E+01  0.43549257923E+02  0.91787185027E+02  0.00000000000E+00 0.  1.
         13    1    3    3    0    0 -0.26190355833E+02  0.63484265811E+02  0.88622673203E+01  0.69243963826E+02  0.00000000000E+00 0. -1.
        -13    1    4    4    0    0  0.76190554021E+02 -0.33552803990E+02  0.18768605852E+03  0.20532132802E+03  0.00000000000E+00 0.  1.
         13    1    4    4    0    0  0.16648104360E+03 -0.66476053878E+02  0.16421184517E+03  0.24310601332E+03  0.00000000000E+00 0. -1.
         -4    1    1    2    0  502 -0.13571541038E+03  0.38831499573E+02  0.11545516052E+03  0.18236351626E+03  0.00000000000E+00 0.  1.
<scales pt_clust_5="13000.00000" pt_clust_6="13000.00000" pt_clust_7="13000.00000" pt_clust_8="13000.00000" pt_clust_9="141.16153"></scales>
<clustering>
<clus scale="   89.439">  5  6 -1 -1</clus>
<clus scale="   91.431">  7  8 -1 -1</clus>
<clus scale="  141.162">  1  9  2 -1</clus>
<clus scale="  176.580">  2  5  1 -1</clus>
<clus scale="  141.162">  1  5  2 -1</clus>
</clustering>
</event>
<event>
 9    1  0.1773771E-005  0.1025647E+03  0.7546771E-02  0.1276523E+00
         21   -1    0    0  501  502  0.00000000000E+00  0.00000000000E+00  0.58798484534E+03  0.58798484534E+03  0.00000000000E+00 0. -1.
          1   -1    0    0  502    0 -0.00000000000E+00 -0.00000000000E+00 -0.41939493676E+03  0.41939493676E+03  0.00000000000E+00 0. -1.
         23    2    1    2    0    0  0.21727695360E+02  0.23064569884E+02 -0.20356494344E+03  0.22726122038E+03  0.95942216776E+02 0.  0.
         23    2    1    2    0    0 -0.56451037315E+02  0.43234689052E+02 -0.18452526240E+03  0.21842998963E+03  0.92769229565E+02 0.  0.
        -11    1    3    3    0    0  0.55794859472E+02  0.17273597614E+02 -0.80632017794E+02  0.99563878046E+02  0.00000000000E+00 0.  1.
         11    1    3    3    0    0 -0.34067164112E+02  0.57909722701E+01 -0.12293292565E+03  0.12769734233E+03  0.00000000000E+00 0. -1.
        -11    1    4    4    0    0  0.14064123811E+02  0.19794646662E+02 -0.59349926603E+01  0.24997034883E+02  0.00000000000E+00 0.  1.
         11    1    4    4    0    0 -0.70515161126E+02  0.23440042390E+02 -0.17859026974E+03  0.19343295475E+03  0.00000000000E+00 0. -1.
          1    1    1    2  501    0  0.34723341955E+02 -0.66299258936E+02  0.55668011443E+03  0.56168857208E+03  0.00000000000E+00 0. -1.
<scales pt_clust_5="13000.00000" pt_clust_6="13000.00000" pt_clust_7="13000.00000" pt_clust_8="13000.00000" pt_clust_9="74.84185"></scales>
<clustering>
<clus scale="   74.842">  1  9  2 -1</clus>
<clus scale="   92.769">  7  8 -1 -1</clus>
<clus scale="   95.942">  5  6 -1 -1</clus>
<clus scale="   99.603">  1  7  2 -1</clus>
<clus scale="   74.842">  1  5  2 -1</clus>
</clustering>
</event>
<event>
 9    1  0.1321469E-005  0.1322116E+03  0.7546771E-02  0.1224960E+00
         21   -1    0    0  501  502  0.00000000000E+00  0.00000000000E+00  0.81640425556E+02  0.81640425556E+02  0.00000000000E+00 0.  1.
          2   -1    0    0  502    0 -0.00000000000E+00 -0.00000000000E+00 -0.51314631521E+03  0.51314631521E+03  0.00000000000E+00 0. -1.
         23    2    1    2    0    0 -0.10997166630E+03  0.77000874683E+02 -0.32844415072E+03  0.36708072561E+03  0.94073359034E+02 0.  0.
         23    2    1    2    0    0  0.41417295710E+02 -0.43387210068E+01 -0.70845222044E+02  0.12274223919E+03  0.91172336332E+02 0.  0.
        -11    1    4    4    0    0  0.47108716115E+02  0.35563874298E+02 -0.33913828177E+02  0.68074723875E+02  0.00000000000E+00 0.  1.
         11    1    4    4    0    0 -0.56914204051E+01 -0.39902595304E+02 -0.36931393867E+02  0.54667515319E+02  0.00000000000E+00 0. -1.
        -13    1    3    3    0    0 -0.12285278391E+03  0.50447917629E+02 -0.28660595965E+03  0.31588095070E+03  0.00000000000E+00 0. -1.
         13    1    3    3    0    0  0.12881117602E+02  0.26552957054E+02 -0.41838191070E+02  0.51199774912E+02  0.00000000000E+00 0.  1.
          2    1    1    2  501    0  0.68554370594E+02 -0.72662153676E+02 -0.32216516896E+02  0.10496377597E+03  0.00000000000E+00 0. -1.
<scales pt_clust_5="13000.00000" pt_clust_6="13000.00000" pt_clust_7="13000.00000" pt_clust_8="13000.00000" pt_clust_9="99.89740"></scales>
<clustering>
<clus scale="   91.172">  5  6 -1 -1</clus>
<clus scale="   94.073">  7  8 -1 -1</clus>
<clus scale="   99.897">  1  9  2 -1</clus>
<clus scale="  130.163">  1  5  2 -1</clus>
<clus scale="   99.897">  1  5  2 -1</clus>
</clustering>
</event>
<event>
 9    1  0.1321469E-005  0.1458752E+03  0.7546771E-02  0.1209591E+00
         -1   -1    0    0    0  501 -0.00000000000E+00  0.00000000000E+00  0.28074015383E+03  0.28074015383E+03  0.00000000000E+00 0.  1.
         21   -1    0    0  501  502  0.00000000000E+00 -0.00000000000E+00 -0.27771081397E+03  0.27771081397E+03  0.00000000000E+00 0.  1.
         23    2    1    2    0    0 -0.92682479139E+02 -0.18888076296E+02  0.88949050556E+02  0.15934428997E+03  0.92368110219E+02 0.  0.
         23    2    1    2    0    0  0.14749598986E+03 -0.10032393700E+03  0.61240795412E+02  0.20194623648E+03  0.72193407219E+02 0.  0.
        -11    1    4    4    0    0  0.11311327699E+03 -0.69857641110E+02  0.10290711156E+02  0.13334392446E+03  0.00000000000E+00 0. -1.
         11    1    4    4    0    0  0.34382712872E+02 -0.30466295891E+02  0.50950084257E+02  0.68602312027E+02  0.00000000000E+00 0.  1.
        -11    1    3    3    0    0 -0.75895784259E+02 -0.45538970486E+02  0.92044433608E+02  0.12769551934E+03  0.00000000000E+00 0.  1.
         11    1    3    3    0    0 -0.16786694880E+02  0.26650894190E+02 -0.30953830514E+01  0.31648770630E+02  0.00000000000E+00 0. -1.
         -1    1    1    2    0  502 -0.54813510724E+02  0.11921201330E+03 -0.14716050611E+03  0.19716044134E+03  0.00000000000E+00 0.  1.
<scales pt_clust_5="13000.00000" pt_clust_6="13000.00000" pt_clust_7="13000.00000" pt_clust_8="13000.00000" pt_clust_9="131.20985"></scales>
<clustering>
<clus scale="   72.193">  5  6 -1 -1</clus>
<clus scale="   92.368">  7  8 -1 -1</clus>
<clus scale="  131.210">  2  9  1 -1</clus>
<clus scale="  134.013">  2  5  1 -1</clus>
<clus scale="  131.210">  2  5  1 -1</clus>
</clustering>
</event>
<event>
 9    1  0.1321469E-005  0.1028445E+03  0.7546771E-02  0.1275988E+00
          1   -1    0    0  502    0 -0.00000000000E+00  0.00000000000E+00  0.57955839695E+02  0.57955839695E+02  0.00000000000E+00 0. -1.
         21   -1    0    0  501  502  0.00000000000E+00 -0.00000000000E+00 -0.35840320142E+03  0.35840320142E+03  0.00000000000E+00 0. -1.
         23    2    1    2    0    0 -0.11521685468E+01  0.39947232533E+02 -0.26862170957E+02  0.10608432580E+03  0.94526181936E+02 0.  0.
         23    2    1    2    0    0  0.26671387781E+02 -0.38585518004E+02 -0.13602504555E+03  0.17036089053E+03  0.91213019234E+02 0.  0.
        -11    1    3    3    0    0 -0.13339161997E+02 -0.26837261710E+02 -0.23551675139E+02  0.38116312265E+02  0.00000000000E+00 0.  1.
         11    1    3    3    0    0  0.12186993450E+02  0.66784494243E+02 -0.33104958186E+01  0.67968013530E+02  0.00000000000E+00 0. -1.
        -13    1    4    4    0    0  0.49371627996E+02 -0.34337850837E+02 -0.41530223256E+02  0.73084917013E+02  0.00000000000E+00 0. -1.
         13    1    4    4    0    0 -0.22700240216E+02 -0.42476671670E+01 -0.94494822296E+02  0.97275973514E+02  0.00000000000E+00 0.  1.
          1    1    1    2  501    0 -0.25519219234E+02 -0.13617145288E+01 -0.13756014522E+03  0.13991382480E+03  0.00000000000E+00 0. -1.
<scales pt_clust_5="13000.00000" pt_clust_6="13000.00000" pt_clust_7="13000.00000" pt_clust_8="13000.00000" pt_clust_9="25.55552"></scales>
<clustering>
<clus scale="   25.556">  2  9  1 -1</clus>
<clus scale="   91.213">  7  8 -1 -1</clus>
<clus scale="   94.526">  5  6 -1 -1</clus>
<clus scale="   99.808">  2  7  1 -1</clus>
<clus scale="   25.556">  2  5  1 -1</clus>
</clustering>
</event>
<event>
 9    1  0.1321469E-005  0.9088320E+02  0.7546771E-02  0.1300763E+00
         -3   -1    0    0    0  501 -0.00000000000E+00  0.00000000000E+00  0.29771166398E+02  0.29771166398E+02  0.00000000000E+00 0.  1.
         21   -1    0    0  501  502  0.00000000000E+00 -0.00000000000E+00 -0.87530838700E+03  0.87530838700E+03  0.00000000000E+00 0.  1.
         23    2    1    2    0    0 -0.24058363137E+02 -0.17090924165E+02 -0.14177007913E+03  0.17088448695E+03  0.90729532222E+02 0.  0.
         23    2    1    2    0    0 -0.31560928990E+02 -0.31768953145E+02 -0.19155191198E+03  0.21665740155E+03  0.90790616479E+02 0.  0.
        -11    1    4    4    0    0 -0.11520109720E+02 -0.62533372542E+02 -0.13510191924E+03  0.14931732717E+03  0.00000000000E+00 0.  1.
         11    1    4    4    0    0 -0.20040819270E+02  0.30764419397E+02 -0.56449992742E+02  0.67340074387E+02  0.00000000000E+00 0. -1.
        -13    1    3    3    0    0 -0.41159125528E+02 -0.44868767070E+02 -0.10767852454E+03  0.12370102878E+03  0.00000000000E+00 0.  1.
         13    1    3    3    0    0  0.17100762391E+02  0.27777842905E+02 -0.34091554589E+02  0.47183458173E+02  0.00000000000E+00 0. -1.
         -3    1    1    2    0  502  0.55619292127E+02  0.48859877310E+02 -0.51221522948E+03  0.51753766489E+03  0.00000000000E+00 0.  1.
<scales pt_clust_5="13000.00000" pt_clust_6="13000.00000" pt_clust_7="13000.00000" pt_clust_8="13000.00000" pt_clust_9="74.03238"></scales>
<clustering>
<clus scale="   74.032">  2  9  1 -1</clus>
<clus scale="   90.730">  7  8 -1 -1</clus>
<clus scale="   90.791">  5  6 -1 -1</clus>
<clus scale="   90.822">  1  7  2 -1</clus>
<clus scale="   74.032">  2  5  1 -1</clus>
</clustering>
</event>
<event>
 9    1  0.1321469E-005  0.2144140E+03  0.7546771E-02  0.1162078E+00
          1   -1    0    0  502    0 -0.00000000000E+00  0.00000000000E+00  0.95869429513E+03  0.95869429513E+03  0.00000000000E+00 0. -1.
         21   -1    0    0  501  502  0.00000000000E+00 -0.00000000000E+00 -0.17969289862E+03  0.17969289862E+03  0.00000000000E+00 0. -1.
         23    2    1    2    0    0  0.49552229956E+02  0.64244993846E+02  0.22236960643E+03  0.25341561989E+03  0.90489733187E+02 0.  0.
         23    2    1    2    0    0  0.39126947487E+02 -0.23376945633E+03  0.63073067073E+03  0.67980533880E+03  0.90194472850E+02 0.  0.
        -11    1    3    3    0    0 -0.22934992503E+02  0.37412648226E+02  0.90078321835E+02  0.10019892311E+03  0.00000000000E+00 0.  1.
         11    1    3    3    0    0  0.72487222459E+02  0.26832345621E+02  0.13229128460E+03  0.15321669678E+03  0.00000000000E+00 0. -1.
        -13    1    4    4    0    0  0.13135479789E+02 -0.11263145508E+03  0.42298223324E+03  0.43791820599E+03  0.00000000000E+00 0.  1.
         13    1    4    4    0    0  0.25991467698E+02 -0.12113800125E+03  0.20774843749E+03  0.24188713281E+03  0.00000000000E+00 0. -1.
          1    1    1    2  501    0 -0.88679177442E+02  0.16952446249E+03 -0.74098880650E+02  0.20516623506E+03  0.00000000000E+00 0. -1.
<scales pt_clust_5="13000.00000" pt_clust_6="13000.00000" pt_clust_7="13000.00000" pt_clust_8="13000.00000" pt_clust_9="194.52072"></scales>
<clustering>
<clus scale="   90.194">  7  8 -1 -1</clus>
<clus scale="   90.490">  5  6 -1 -1</clus>
<clus scale="  121.537">  1  5  2 -1</clus>
<clus scale="  194.521">  2  9  1 -1</clus>
<clus scale="  194.521">  2  5  1 -1</clus>
</clustering>
</event>
<event>
 9    1  0.1321469E-005  0.1100957E+03  0.7546771E-02  0.1262787E+00
          2   -1    0    0  502    0 -0.00000000000E+00  0.00000000000E+00  0.46813208085E+03  0.46813208085E+03  0.00000000000E+00 0. -1.
         21   -1    0    0  501  502  0.00000000000E+00 -0.00000000000E+00 -0.12553707601E+03  0.12553707601E+03  0.00000000000E+00 0. -1.
         23    2    1    2    0    0  0.96426501569E+00  0.26230306306E+02  0.14005437650E+03  0.16742769152E+03  0.87908160808E+02 0.  0.
         23    2    1    2    0    0  0.52810640313E+02 -0.80326976625E+02  0.28428219388E+03  0.31443863122E+03  0.93882373957E+02 0.  0.
        -11    1    4    4    0    0  0.29461541671E+02 -0.30081730054E+02  0.24292568095E+02  0.48610922490E+02  0.00000000000E+00 0.  1.
         11    1    4    4    0    0  0.23349098642E+02 -0.50245246571E+02  0.25998962579E+03  0.26582770873E+03  0.00000000000E+00 0. -1.
        -11    1    3    3    0    0 -0.16973161895E+02  0.54683529118E+02  0.76900269285E+02  0.95875064524E+02  0.00000000000E+00 0. -1.
         11    1    3    3    0    0  0.17937426910E+02 -0.28453222812E+02  0.63154107211E+02  0.71552626997E+02  0.00000000000E+00 0.  1.
          2    1    1    2  501    0 -0.53774905328E+02  0.54096670319E+02 -0.81741565534E+02  0.11180283413E+03  0.00000000000E+00 0. -1.
<scales pt_clust_5="13000.00000" pt_clust_6="13000.00000" pt_clust_7="13000.00000" pt_clust_8="13000.00000" pt_clust_9="76.27706"></scales>
<clustering>
<clus scale="   76.277">  2  9  1 -1</clus>
<clus scale="   87.908">  7  8 -1 -1</clus>
<clus scale="   93.882">  5  6 -1 -1</clus>
<clus scale="  105.048">  1  7  2 -1</clus>
<clus scale="   76.277">  2  5  1 -1</clus>
</clustering>
</event>
<event>
 9    1  0.1321469E-005  0.9643964E+02  0.7546771E-02  0.1288744E+00
         21   -1    0    0  501  502  0.00000000000E+00  0.00000000000E+00  0.12621129016E+03  0.12621129016E+03  0.00000000000E+00 0. -1.
          1   -1    0    0  502    0 -0.00000000000E+00 -0.00000000000E+00 -0.17931833580E+03  0.17931833580E+03  0.00000000000E+00 0. -1.
         23    2    1    2    0    0  0.11319355826E+02 -0.33589264963E+02 -0.81955765710E+02  0.12822916337E+03  0.92030452941E+02 0.  0.
         23    2    1    2    0    0  0.11877181824E+02  0.10018697972E+02 -0.38492728217E+02  0.10227698863E+03  0.93474330814E+02 0.  0.
        -11    1    3    3    0    0  0.50689962801E+01  0.28903523632E+02 -0.49474292611E+02  0.57522291601E+02  0.00000000000E+00 0. -1.
         11    1    3    3    0    0  0.62503595461E+01 -0.62492788595E+02 -0.32481473100E+02  0.70706871770E+02  0.00000000000E+00 0.  1.
        -13    1    4    4    0    0 -0.11538755590E+02 -0.38870325913E+02 -0.16083789247E+02  0.43620332343E+02  0.00000000000E+00 0.  1.
         13    1    4    4    0    0  0.23415937415E+02  0.48889023885E+02 -0.22408938970E+02  0.58656656290E+02  0.00000000000E+00 0. -1.
          1    1    1    2  501    0 -0.23196537650E+02  0.23570566991E+02  0.67341448285E+02  0.75023473956E+02  0.00000000000E+00 0. -1.
<scales pt_clust_5="13000.00000" pt_clust_6="13000.00000" pt_clust_7="13000.00000" pt_clust_8="13000.00000" pt_clust_9="33.07039"></scales>
<clustering>
<clus scale="   33.070">  1  9  2 -1</clus>
<clus scale="   92.030">  5  6 -1 -1</clus>
<clus scale="   93.474">  7  8 -1 -1</clus>
<clus scale="   95.041">  2  5  1 -1</clus>
<clus scale="   33.070">  1  5  2 -1</clus>
</clustering>
</event>
<event>
 9    1  0.1321469E-005  0.9458234E+02  0.7546771E-02  0.1292792E+00
         21   -1    0    0  501  502  0.00000000000E+00  0.00000000000E+00  0.21379387939E+03  0.21379387939E+03  0.00000000000E+00 0. -1.
          2   -1    0    0  502    0 -0.00000000000E+00 -0.00000000000E+00 -0.26230307177E+03  0.26230307177E+03  0.00000000000E+00 0. -1.
         23    2    1    2    0    0 -0.15886095294E+02 -0.15700854333E+02 -0.20181679550E+03  0.22278650201E+03  0.91678359937E+02 0.  0.
         23    2    1    2    0    0 -0.30431378667E+02  0.57641155485E+02  0.30618598943E+02  0.11562643048E+03  0.90462153473E+02 0.  0.
        -11    1    3    3    0    0  0.89357338470E-01  0.34207893145E+02 -0.39670931992E+02  0.52382924539E+02  0.00000000000E+00 0.  1.
         11    1    3    3    0    0 -0.15975452633E+02 -0.49908747478E+02 -0.16214586351E+03  0.17040357747E+03  0.00000000000E+00 0. -1.
        -11    1    4    4    0    0 -0.47110707602E+02  0.19249362250E+02  0.48322063324E+02  0.70178191211E+02  0.00000000000E+00 0.  1.
         11    1    4    4    0    0  0.16679328935E+02  0.38391793234E+02 -0.17703464381E+02  0.45448239268E+02  0.00000000000E+00 0. -1.
          2    1    1    2  501    0  0.46317473961E+02 -0.41940301152E+02  0.12268900417E+03  0.13768401868E+03  0.00000000000E+00 0. -1.
<scales pt_clust_5="13000.00000" pt_clust_6="13000.00000" pt_clust_7="13000.00000" pt_clust_8="13000.00000" pt_clust_9="62.48438"></scales>
<clustering>
<clus scale="   62.484">  1  9  2 -1</clus>
<clus scale="   90.462">  7  8 -1 -1</clus>
<clus scale="   91.678">  5  6 -1 -1</clus>
<clus scale="   93.404">  1  7  2 -1</clus>
<clus scale="   62.484">  1  5  2 -1</clus>
</clustering>
</event>
<event>
 9    1  0.1321469E-005  0.9690320E+02  0.7546771E-02  0.1289896E+00
          3   -1    0    0  502    0 -0.00000000000E+00  0.00000000000E+00  0.37119395352E+03  0.37119395352E+03  0.00000000000E+00 0. -1.
         21   -1    0    0  501  502  0.00000000000E+00 -0.00000000000E+00 -0.43601019569E+02  0.43601019569E+02  0.00000000000E+00 0.  1.
         23    2    1    2    0    0 -0.17598425137E+02 -0.13690482023E+02  0.21139380997E+03  0.23021403771E+03  0.88396981851E+02 0.  0.
         23    2    1    2    0    0 -0.24038075666E+01  0.42473443979E+02  0.62568669043E+02  0.12051242588E+03  0.93801037904E+02 0.  0.
        -11    1    3    3    0    0  0.28368162391E+02 -0.45201707407E+01  0.15129522841E+03  0.15399815168E+03  0.00000000000E+00 0.  1.
         11    1    3    3    0    0 -0.45966587528E+02 -0.91703112825E+01  0.60098581555E+02  0.76215886027E+02  0.00000000000E+00 0. -1.
        -13    1    4    4    0    0 -0.37963469486E+02  0.14397553550E+02 -0.31118440770E+01  0.40720979079E+02  0.00000000000E+00 0.  1.
         13    1    4    4    0    0  0.35559661919E+02  0.28075890430E+02  0.65680513120E+02  0.79791446803E+02  0.00000000000E+00 0. -1.
          3    1    1    2  501    0  0.20002232704E+02 -0.28782961956E+02  0.53630454943E+02  0.64068509499E+02  0.00000000000E+00 0. -1.
<scales pt_clust_5="13000.00000" pt_clust_6="13000.00000" pt_clust_7="13000.00000" pt_clust_8="13000.00000" pt_clust_9="35.05067"></scales>
<clustering>
<clus scale="   35.051">  2  9  1 -1</clus>
<clus scale="   88.397">  5  6 -1 -1</clus>
<clus scale="   91.682">  1  5  2 -1</clus>
<clus scale="   93.801">  7  8 -1 -1</clus>
<clus scale="   35.051">  2  5  1 -1</clus>
</clustering>
</event>
<event>
 9    1  0.1321469E-005  0.9858628E+02  0.7546771E-02  0.1283563E+00
          2   -1    0    0  502    0 -0.00000000000E+00  0.00000000000E+00  0.43393990942E+03  0.43393990942E+03  0.00000000000E+00 0. -1.
         21   -1    0    0  501  502  0.00000000000E+00 -0.00000000000E+00 -0.83197325766E+02  0.83197325766E+02  0.00000000000E+00 0. -1.
         23    2    1    2    0    0 -0.11589089844E+02 -0.14651374889E+02  0.17669348780E+03  0.20002979088E+03  0.91882309614E+02 0.  0.
         23    2    1    2    0    0  0.57899204345E+02  0.70213796234E+01  0.22383017737E+03  0.24868961323E+03  0.91350740521E+02 0.  0.
        -11    1    3    3    0    0 -0.10384502874E+01 -0.45277509842E+02  0.15388949221E+03  0.16041542036E+03  0.00000000000E+00 0. -1.
         11    1    3    3    0    0 -0.10550639556E+02  0.30626134953E+02  0.22803995596E+02  0.39614370528E+02  0.00000000000E+00 0.  1.
        -13    1    4    4    0    0  0.46601065931E+02  0.46401872413E+02  0.15816490255E+03  0.17129194233E+03  0.00000000000E+00 0.  1.
         13    1    4    4    0    0  0.11298138414E+02 -0.39380492789E+02  0.65665274818E+02  0.77397670901E+02  0.00000000000E+00 0. -1.
          2    1    1    2  501    0 -0.46310114501E+02  0.76299952659E+01 -0.49781081509E+02  0.68417831075E+02  0.00000000000E+00 0. -1.
<scales pt_clust_5="13000.00000" pt_clust_6="13000.00000" pt_clust_7="13000.00000" pt_clust_8="13000.00000" pt_clust_9="46.93446"></scales>
<clustering>
<clus scale="   46.934">  2  9  1 -1</clus>
<clus scale="   91.351">  7  8 -1 -1</clus>
<clus scale="   91.882">  5  6 -1 -1</clus>
<clus scale="   98.091">  2  7  1 -1</clus>
<clus scale="   46.934">  2  5  1 -1</clus>
</clustering>
</event>
<event>
 9    1  0.1321469E-005  0.9800258E+02  0.7546771E-02  0.1287253E+00
          1   -1    0    0  502    0 -0.00000000000E+00  0.00000000000E+00  0.35486912527E+02  0.35486912527E+02  0.00000000000E+00 0. -1.
         21   -1    0    0  501  502  0.00000000000E+00 -0.00000000000E+00 -0.68855883555E+03  0.68855883555E+03  0.00000000000E+00 0. -1.
         23    2    1    2    0    0  0.19411053512E+02  0.53258935281E+01 -0.11653336630E+03  0.15247889609E+03  0.96252969582E+02 0.  0.
         23    2    1    2    0    0  0.46628861223E+02 -0.37913374372E+02 -0.20904364301E+03  0.23589419483E+03  0.91297052628E+02 0.  0.
        -11    1    4    4    0    0 -0.10432238971E+02  0.22377315453E+02 -0.66573841988E+02  0.71004593470E+02  0.00000000000E+00 0.  1.
         11    1    4    4    0    0  0.57061100194E+02 -0.60290689825E+02 -0.14246980102E+03  0.16488960136E+03  0.00000000000E+00 0. -1.
        -13    1    3    3    0    0  0.55480874505E+02  0.17923082402E+02 -0.84264576523E+02  0.10246893761E+03  0.00000000000E+00 0. -1.
         13    1    3    3    0    0 -0.36069820993E+02 -0.12597188874E+02 -0.32268789772E+02  0.50009958481E+02  0.00000000000E+00 0.  1.
          1    1    1    2  501    0 -0.66039914735E+02  0.32587480844E+02 -0.32749491372E+03  0.33567265715E+03  0.00000000000E+00 0. -1.
<scales pt_clust_5="13000.00000" pt_clust_6="13000.00000" pt_clust_7="13000.00000" pt_clust_8="13000.00000" pt_clust_9="73.64248"></scales>
<clustering>
<clus scale="   73.642">  2  9  1 -1</clus>
<clus scale="   91.297">  5  6 -1 -1</clus>
<clus scale="   93.140">  2  5  1 -1</clus>
<clus scale="   96.253">  7  8 -1 -1</clus>
<clus scale="   73.642">  2  5  1 -1</clus>
</clustering>
</event>
<event>
 9    1  0.1321469E-005  0.9514908E+02  0.7546771E-02  0.1290886E+00
          1   -1    0    0  502    0 -0.00000000000E+00  0.00000000000E+00  0.47251123471E+03  0.47251123471E+03  0.00000000000E+00 0. -1.
         21   -1    0    0  501  502  0.00000000000E+00 -0.00000000000E+00 -0.52554462789E+02  0.52554462789E+02  0.00000000000E+00 0. -1.
         23    2    1    2    0    0  0.34974495307E+02  0.80109810374E+01  0.34225033973E+03  0.35593348180E+03  0.90917310145E+02 0.  0.
         23    2    1    2    0    0 -0.14945621294E+01 -0.14221431507E+02  0.93800586468E+02  0.13146927075E+03  0.91000748896E+02 0.  0.
        -11    1    4    4    0    0 -0.36663506850E+02 -0.28946274099E+02  0.25429871684E+02  0.53186256614E+02  0.00000000000E+00 0.  1.
         11    1    4    4    0    0  0.35168944720E+02  0.14724842592E+02  0.68370714784E+02  0.78283014135E+02  0.00000000000E+00 0. -1.
        -13    1    3    3    0    0  0.35264108345E+02  0.44729863172E+02  0.15541320390E+03  0.16552214940E+03  0.00000000000E+00 0. -1.
         13    1    3    3    0    0 -0.28961303871E+00 -0.36718882134E+02  0.18683713583E+03  0.19041133240E+03  0.00000000000E+00 0.  1.
          1    1    1    2  501    0 -0.33479933177E+02  0.62104504694E+01 -0.16094154273E+02  0.37662944950E+02  0.00000000000E+00 0. -1.
<scales pt_clust_5="13000.00000" pt_clust_6="13000.00000" pt_clust_7="13000.00000" pt_clust_8="13000.00000" pt_clust_9="34.05107"></scales>
<clustering>
<clus scale="   34.051">  2  9  1 -1</clus>
<clus scale="   90.917">  7  8 -1 -1</clus>
<clus scale="   91.001">  5  6 -1 -1</clus>
<clus scale="   95.069">  1  7  2 -1</clus>
<clus scale="   34.051">  2  5  1 -1</clus>
</clustering>
</event>
<event>
 9    1  0.1680104E-005  0.1328093E+03  0.7546771E-02  0.1223457E+00
          1   -1    0    0  502    0 -0.00000000000E+00  0.00000000000E+00  0.61548693127E+03  0.61548693127E+03  0.00000000000E+00 0. -1.
         21   -1    0    0  501  502  0.00000000000E+00 -0.00000000000E+00 -0.22647431994E+03  0.22647431994E+03  0.00000000000E+00 0. -1.
         23    2    1    2    0    0 -0.60041197863E+02 -0.86556445576E+02  0.51934559031E+03  0.53791670014E+03  0.92398974058E+02 0.  0.
         23    2    1    2    0    0  0.12004326981E+02  0.57049774003E+02  0.46024416230E+02  0.11889565024E+03  0.92839367596E+02 0.  0.
        -11    1    4    4    0    0 -0.39261415497E+02  0.32210306964E+02  0.32670962359E+02  0.60385051155E+02  0.00000000000E+00 0.  1.
         11    1    4    4    0    0  0.51265742478E+02  0.24839467039E+02  0.13353453872E+02  0.58510599081E+02  0.00000000000E+00 0. -1.
        -13    1    3    3    0    0 -0.51241631242E+02 -0.10642135415E+03  0.45030462152E+03  0.46553781969E+03  0.00000000000E+00 0. -1.
         13    1    3    3    0    0 -0.87995666213E+01  0.19864908575E+02  0.69040968784E+02  0.72378880456E+02  0.00000000000E+00 0.  1.
          1    1    1    2  501    0  0.48036870883E+02  0.29506671573E+02 -0.17635739522E+03  0.18514890083E+03  0.00000000000E+00 0. -1.
<scales pt_clust_5="13000.00000" pt_clust_6="13000.00000" pt_clust_7="13000.00000" pt_clust_8="13000.00000" pt_clust_9="56.37539"></scales>
<clustering>
<clus scale="   56.375">  2  9  1 -1</clus>
<clus scale="   92.399">  7  8 -1 -1</clus>
<clus scale="   92.839">  5  6 -1 -1</clus>
<clus scale="  132.502">  1  7  2 -1</clus>
<clus scale="   56.375">  2  5  1 -1</clus>
</clustering>
</event>
<event>
 9    1  0.1321469E-005  0.1071813E+03  0.7546771E-02  0.1266121E+00
         21   -1    0    0  501  502  0.00000000000E+00  0.00000000000E+00  0.24264421126E+02  0.24264421126E+02  0.00000000000E+00 0.  1.
          2   -1    0    0  502    0 -0.00000000000E+00 -0.00000000000E+00 -0.64535542405E+03  0.64535542405E+03  0.00000000000E+00 0. -1.
         23    2    1    2    0    0 -0.49010958390E+02  0.53561877870E+01 -0.35389874821E+03  0.36896717621E+03  0.91987446651E+02 0.  0.
         23    2    1    2    0    0  0.63603966900E+02  0.13571536250E+02 -0.20716214475E+03  0.23603975434E+03  0.92568678349E+02 0.  0.
        -11    1    4    4    0    0  0.66924199708E+02 -0.21814685726E+02 -0.17287193011E+03  0.18665324331E+03  0.00000000000E+00 0. -1.
         11    1    4    4    0    0 -0.33202328079E+01  0.35386221976E+02 -0.34290214644E+02  0.49386511033E+02  0.00000000000E+00 0.  1.
        -13    1    3    3    0    0 -0.37250368833E+01 -0.39176813169E+02 -0.10626050470E+03  0.11331369489E+03  0.00000000000E+00 0. -1.
         13    1    3    3    0    0 -0.45285921507E+02  0.44533000956E+02 -0.24763824351E+03  0.25565348132E+03  0.00000000000E+00 0.  1.
          2    1    1    2  501    0 -0.14593008510E+02 -0.18927724037E+02 -0.60030109959E+02  0.64612914625E+02  0.00000000000E+00 0. -1.
<scales pt_clust_5="13000.00000" pt_clust_6="13000.00000" pt_clust_7="13000.00000" pt_clust_8="13000.00000" pt_clust_9="23.90011"></scales>
<clustering>
<clus scale="   23.900">  1  9  2 -1</clus>
<clus scale="   91.987">  7  8 -1 -1</clus>
<clus scale="   92.569">  5  6 -1 -1</clus>
<clus scale="  106.680">  2  7  1 -1</clus>
<clus scale="   23.900">  1  5  2 -1</clus>
</clustering>
</event>
<event>
 9    1  0.1321469E-005  0.9836767E+02  0.7546771E-02  0.1285398E+00
         21   -1    0    0  501  502  0.00000000000E+00  0.00000000000E+00  0.29885988165E+02  0.29885988165E+02  0.00000000000E+00 0. -1.
         -3   -1    0    0    0  501 -0.00000000000E+00 -0.00000000000E+00 -0.60631922551E+03  0.60631922551E+03  0.00000000000E+00 0.  1.
         23    2    1    2    0    0 -0.73049359610E+01 -0.23684641305E+02 -0.27197849958E+03  0.28784463766E+03  0.90928031271E+02 0.  0.
         23    2    1    2    0    0 -0.37927060459E+02  0.55114968389E+02 -0.23596403342E+03  0.26046987376E+03  0.87689271956E+02 0.  0.
        -11    1    4    4    0    0 -0.53920369636E+02  0.25814297591E+02 -0.20952532097E+03  0.21788676956E+03  0.00000000000E+00 0. -1.
         11    1    4    4    0    0  0.15993309177E+02  0.29300670798E+02 -0.26438712445E+02  0.42583104201E+02  0.00000000000E+00 0.  1.
        -11    1    3    3    0    0  0.24199498361E+02  0.24624801449E+02 -0.13222383798E+03  0.13665701554E+03  0.00000000000E+00 0.  1.
         11    1    3    3    0    0 -0.31504434322E+02 -0.48309442754E+02 -0.13975466161E+03  0.15118762212E+03  0.00000000000E+00 0. -1.
         -3    1    1    2    0  502  0.45231996420E+02 -0.31430327084E+02 -0.68490704348E+02  0.87890702254E+02  0.00000000000E+00 0.  1.
<scales pt_clust_5="13000.00000" pt_clust_6="13000.00000" pt_clust_7="13000.00000" pt_clust_8="13000.00000" pt_clust_9="55.07993"></scales>
<clustering>
<clus scale="   55.080">  1  9  2 -1</clus>
<clus scale="   87.689">  5  6 -1 -1</clus>
<clus scale="   90.928">  7  8 -1 -1</clus>
<clus scale="   95.382">  1  5  2 -1</clus>
<clus scale="   55.080">  1  5  2 -1</clus>
</clustering>
</event>
<event>
 9    1  0.1321469E-005  0.9489883E+02  0.7546771E-02  0.1291604E+00
          1   -1    0    0  502    0 -0.00000000000E+00  0.00000000000E+00  0.62676346054E+03  0.62676346054E+03  0.00000000000E+00 0. -1.
         21   -1    0    0  501  502  0.00000000000E+00 -0.00000000000E+00 -0.45446883372E+02  0.45446883372E+02  0.00000000000E+00 0. -1.
         23    2    1    2    0    0  0.28114955549E+02 -0.24381384336E+02  0.37321142351E+03  0.38580839579E+03  0.90423719178E+02 0.  0.
         23    2    1    2    0    0 -0.11153327447E+02  0.13416620101E+02  0.23528869066E+03  0.25253651492E+03  0.90052878968E+02 0.  0.
        -13    1    4    4    0    0  0.26732843940E+02 -0.19443828065E+02  0.14996755712E+03  0.15356749521E+03  0.00000000000E+00 0. -1.
         13    1    4    4    0    0 -0.37886171387E+02  0.32860448166E+02  0.85321133537E+02  0.98969019719E+02  0.00000000000E+00 0.  1.
        -13    1    3    3    0    0 -0.11925394884E+02 -0.44112367745E+02  0.26231240489E+03  0.26626286596E+03  0.00000000000E+00 0.  1.
         13    1    3    3    0    0  0.40040350433E+02  0.19730983409E+02  0.11089901862E+03  0.11954552982E+03  0.00000000000E+00 0. -1.
          1    1    1    2  501    0 -0.16961628102E+02  0.10964764235E+02 -0.27183536998E+02  0.33865433207E+02  0.00000000000E+00 0. -1.
<scales pt_clust_5="13000.00000" pt_clust_6="13000.00000" pt_clust_7="13000.00000" pt_clust_8="13000.00000" pt_clust_9="20.19710"></scales>
<clustering>
<clus scale="   20.197">  2  9  1 -1</clus>
<clus scale="   90.053">  5  6 -1 -1</clus>
<clus scale="   90.424">  7  8 -1 -1</clus>
<clus scale="   94.546">  2  5  1 -1</clus>
<clus scale="   20.197">  2  5  1 -1</clus>
</clustering>
</event>
<event>
 9    1  0.1321469E-005  0.1457344E+03  0.7546771E-02  0.1205842E+00
         -1   -1    0    0    0  501 -0.00000000000E+00  0.00000000000E+00  0.53857216490E+03  0.53857216490E+03  0.00000000000E+00 0.  1.
         21   -1    0    0  501  502  0.00000000000E+00 -0.00000000000E+00 -0.48293032311E+02  0.48293032311E+02  0.00000000000E+00 0. -1.
         23    2    1    2    0    0 -0.96335871636E+02  0.49703494659E+02  0.21375166387E+03  0.25611210805E+03  0.90291752319E+02 0.  0.
         23    2    1    2    0    0  0.11659103957E+03 -0.36586696534E+02  0.20465484932E+03  0.25493755223E+03  0.90429482552E+02 0.  0.
        -11    1    4    4    0    0  0.70054312889E+02 -0.27826213830E+02  0.19148331129E+03  0.20578572213E+03  0.00000000000E+00 0.  1.
         11    1    4    4    0    0  0.46536726684E+02 -0.87604827047E+01  0.13171538026E+02  0.49151830095E+02  0.00000000000E+00 0. -1.
        -11    1    3    3    0    0 -0.75788158923E+02  0.28949959310E+02  0.21184115924E+03  0.22684492925E+03  0.00000000000E+00 0.  1.
         11    1    3    3    0    0 -0.20547712713E+02  0.20753535348E+02  0.19105046331E+01  0.29267178804E+02  0.00000000000E+00 0. -1.
         -1    1    1    2    0  502 -0.20255167938E+02 -0.13116798124E+02  0.71872619399E+02  0.75815536933E+02  0.00000000000E+00 0.  1.
<scales pt_clust_5="13000.00000" pt_clust_6="13000.00000" pt_clust_7="13000.00000" pt_clust_8="13000.00000" pt_clust_9="24.13137"></scales>
<clustering>
<clus scale="   24.131">  2  9  1 -1</clus>
<clus scale="   90.292">  7  8 -1 -1</clus>
<clus scale="   90.429">  5  6 -1 -1</clus>
<clus scale="  145.649">  1  7  2 -1</clus>
<clus scale="   24.131">  2  5  1 -1</clus>
</clustering>
</event>
<event>
 9    1  0.1321469E-005  0.1081402E+03  0.7546771E-02  0.1264096E+00
          1   -1    0    0  502    0 -0.00000000000E+00  0.00000000000E+00  0.64338699605E+03  0.64338699605E+03  0.00000000000E+00 0. -1.
         21   -1    0    0  501  502  0.00000000000E+00 -0.00000000000E+00 -0.26143424871E+02  0.26143424871E+02  0.00000000000E+00 0.  1.
         23    2    1    2    0    0  0.25797434347E+02 -0.45068335301E+02  0.34733765415E+03  0.36280712772E+03  0.91043415288E+02 0.  0.
         23    2    1    2    0    0 -0.51254613237E+02  0.48620608402E+02  0.24601133397E+03  0.27162859701E+03  0.90936897543E+02 0.  0.
        -11    1    4    4    0    0 -0.38567575451E+01  0.60697495850E+02  0.94162582698E+02  0.11209662154E+03  0.00000000000E+00 0.  1.
         11    1    4    4    0    0 -0.47397855692E+02 -0.12076887448E+02  0.15184875127E+03  0.15953197547E+03  0.00000000000E+00 0. -1.
        -11    1    3    3    0    0  0.56551023710E+02 -0.36387831886E+02  0.28415012118E+03  0.29199894514E+03  0.00000000000E+00 0. -1.
         11    1    3    3    0    0 -0.30753589363E+02 -0.86805034151E+01  0.63187532967E+02  0.70808182582E+02  0.00000000000E+00 0.  1.
          1    1    1    2  501    0  0.25457178890E+02 -0.35522731012E+01  0.23894583069E+02  0.35094696198E+02  0.00000000000E+00 0. -1.
<scales pt_clust_5="13000.00000" pt_clust_6="13000.00000" pt_clust_7="13000.00000" pt_clust_8="13000.00000" pt_clust_9="25.70382"></scales>
<clustering>
<clus scale="   25.704">  2  9  1 -1</clus>
<clus scale="   90.937">  5  6 -1 -1</clus>
<clus scale="   91.043">  7  8 -1 -1</clus>
<clus scale="  108.051">  2  5  1 -1</clus>
<clus scale="   25.704">  2  5  1 -1</clus>
</clustering>
</event>
<event>
 9    1  0.1758144E-005  0.9956759E+02  0.7546771E-02  0.1282764E+00
         21   -1    0    0  501  502  0.00000000000E+00  0.00000000000E+00  0.17858103332E+03  0.17858103332E+03  0.00000000000E+00 0.  1.
         -1   -1    0    0    0  501 -0.00000000000E+00 -0.00000000000E+00 -0.53358488550E+03  0.53358488550E+03  0.00000000000E+00 0.  1.
         23    2    1    2    0    0  0.16359156076E+02  0.49245892580E+02 -0.36560169552E+03  0.38000150174E+03  0.89687020436E+02 0.  0.
         23    2    1    2    0    0  0.11881784205E+02 -0.84527597822E+01 -0.14280792593E+03  0.17093488990E+03  0.92800899413E+02 0.  0.
        -11    1    3    3    0    0 -0.16476254706E+02  0.63430876259E+02 -0.19590491426E+03  0.20657608396E+03  0.00000000000E+00 0.  1.
         11    1    3    3    0    0  0.32835410782E+02 -0.14184983679E+02 -0.16969678126E+03  0.17342541779E+03  0.00000000000E+00 0. -1.
        -13    1    4    4    0    0 -0.79411053695E+01 -0.45792701986E+02 -0.46439085747E+02  0.65700999951E+02  0.00000000000E+00 0. -1.
         13    1    4    4    0    0  0.19822889574E+02  0.37339942203E+02 -0.96368840183E+02  0.10523388995E+03  0.00000000000E+00 0.  1.
         -1    1    1    2    0  502 -0.28240940281E+02 -0.40793132797E+02  0.15340576927E+03  0.16122952719E+03  0.00000000000E+00 0.  1.
<scales pt_clust_5="13000.00000" pt_clust_6="13000.00000" pt_clust_7="13000.00000" pt_clust_8="13000.00000" pt_clust_9="49.61482"></scales>
<clustering>
<clus scale="   49.615">  1  9  2 -1</clus>
<clus scale="   89.687">  5  6 -1 -1</clus>
<clus scale="   92.801">  7  8 -1 -1</clus>
<clus scale="   96.672">  2  5  1 -1</clus>
<clus scale="   49.615">  1  5  2 -1</clus>
</clustering>
</event>
<event>
 9    1  0.1321469E-005  0.1692360E+03  0.7546771E-02  0.1179486E+00
         21   -1    0    0  501  502  0.00000000000E+00  0.00000000000E+00  0.57351076606E+03  0.57351076606E+03  0.00000000000E+00 0.  1.
         -3   -1    0    0    0  501 -0.00000000000E+00 -0.00000000000E+00 -0.92077716295E+02  0.92077716295E+02  0.00000000000E+00 0.  1.
         23    2    1    2    0    0  0.56528481788E+02  0.12419147125E+03  0.18407029004E+03  0.24773048669E+03  0.94178190550E+02 0.  0.
         23    2    1    2    0    0 -0.13756317709E+03 -0.84280704403E+02  0.26358246992E+03  0.32141838175E+03  0.88358320763E+02 0.  0.
        -11    1    3    3    0    0  0.37180448328E+02  0.13572001310E+03  0.14145109189E+03  0.19952623660E+03  0.00000000000E+00 0.  1.
         11    1    3    3    0    0  0.19348033460E+02 -0.11528541850E+02  0.42619198153E+02  0.48204250095E+02  0.00000000000E+00 0. -1.
        -13    1    4    4    0    0 -0.59486818860E+02 -0.77059594725E+02  0.19190293111E+03  0.21518270778E+03  0.00000000000E+00 0.  1.
         13    1    4    4    0    0 -0.78076358232E+02 -0.72211096785E+01  0.71679538815E+02  0.10623567397E+03  0.00000000000E+00 0. -1.
         -3    1    1    2    0  502  0.81034695305E+02 -0.39910766844E+02  0.33780289796E+02  0.96439613915E+02  0.00000000000E+00 0.  1.
<scales pt_clust_5="13000.00000" pt_clust_6="13000.00000" pt_clust_7="13000.00000" pt_clust_8="13000.00000" pt_clust_9="90.32995"></scales>
<clustering>
<clus scale="   88.358">  7  8 -1 -1</clus>
<clus scale="   90.330">  1  9  2 -1</clus>
<clus scale="   94.178">  5  6 -1 -1</clus>
<clus scale="  166.068">  1  7  2 -1</clus>
<clus scale="   90.330">  1  5  2 -1</clus>
</clustering>
</event>
<event>
 9    1  0.1321469E-005  0.1123797E+03  0.7546771E-02  0.1258828E+00
         21   -1    0    0  501  502  0.00000000000E+00  0.00000000000E+00  0.16078161444E+03  0.16078161444E+03  0.00000000000E+00 0.  1.
          1   -1    0    0  502    0 -0.00000000000E+00 -0.00000000000E+00 -0.25133879218E+03  0.25133879218E+03  0.00000000000E+00 0. -1.
         23    2    1    2    0    0  0.46762556245E+02  0.29690073515E+02 -0.17804642748E+03  0.20974638846E+03  0.96045718287E+02 0.  0.
         23    2    1    2    0    0 -0.79647591576E+02 -0.30131669822E+02  0.10764476053E+03  0.16380116280E+03  0.89396700691E+02 0.  0.
        -11    1    4    4    0    0 -0.58118804516E+02 -0.48694960796E+02  0.11178582577E+03  0.13507429618E+03  0.00000000000E+00 0.  1.
         11    1    4    4    0    0 -0.21528787060E+02  0.18563290975E+02 -0.41410652463E+01  0.28726866614E+02  0.00000000000E+00 0. -1.
        -13    1    3    3    0    0  0.31511891243E+02 -0.33427981044E+02 -0.73915731416E+02  0.87028527261E+02  0.00000000000E+00 0.  1.
         13    1    3    3    0    0  0.15250665002E+02  0.63118054559E+02 -0.10413069606E+03  0.12271786120E+03  0.00000000000E+00 0. -1.
          1    1    1    2  501    0  0.32885035331E+02  0.44159630689E+00 -0.20155510788E+02  0.38572855367E+02  0.00000000000E+00 0. -1.
<scales pt_clust_5="13000.00000" pt_clust_6="13000.00000" pt_clust_7="13000.00000" pt_clust_8="13000.00000" pt_clust_9="32.88802"></scales>
<clustering>
<clus scale="   32.888">  1  9  2 -1</clus>
<clus scale="   89.397">  5  6 -1 -1</clus>
<clus scale="   96.046">  7  8 -1 -1</clus>
<clus scale="  106.753">  1  5  2 -1</clus>
<clus scale="   32.888">  1  5  2 -1</clus>
</clustering>
</event>
<event>
 9    1  0.1321469E-005  0.1038556E+03  0.7546771E-02  0.1272717E+00
         21   -1    0    0  501  502  0.00000000000E+00  0.00000000000E+00  0.33486568539E+02  0.33486568539E+02  0.00000000000E+00 0.  1.
          1   -1    0    0  502    0 -0.00000000000E+00 -0.00000000000E+00 -0.53734457304E+03  0.53734457304E+03  0.00000000000E+00 0. -1.
         23    2    1    2    0    0  0.15696030056E+02  0.56351712485E+02 -0.35093548016E+03  0.36694111392E+03  0.89823098320E+02 0.  0.
         23    2    1    2    0    0  0.14118784322E+02 -0.35860809874E+02 -0.10620498779E+03  0.14480256310E+03  0.90570111481E+02 0.  0.
        -13    1    3    3    0    0 -0.35164976658E+02  0.16247618960E+02 -0.18057925769E+03  0.18468738185E+03  0.00000000000E+00 0. -1.
         13    1    3    3    0    0  0.50861006715E+02  0.40104093525E+02 -0.17035622247E+03  0.18225373207E+03  0.00000000000E+00 0.  1.
        -13    1    4    4    0    0  0.40652331886E+02 -0.42388579172E+02 -0.34610820966E+02  0.68171201104E+02  0.00000000000E+00 0.  1.
         13    1    4    4    0    0 -0.26533547564E+02  0.65277692979E+01 -0.71594166823E+02  0.76631361996E+02  0.00000000000E+00 0. -1.
          1    1    1    2  501    0 -0.29814814379E+02 -0.20490902610E+02 -0.46717536552E+02  0.59087464557E+02  0.00000000000E+00 0. -1.
<scales pt_clust_5="13000.00000" pt_clust_6="13000.00000" pt_clust_7="13000.00000" pt_clust_8="13000.00000" pt_clust_9="36.17734"></scales>
<clustering>
<clus scale="   36.177">  1  9  2 -1</clus>
<clus scale="   89.823">  5  6 -1 -1</clus>
<clus scale="   90.570">  7  8 -1 -1</clus>
<clus scale="  103.205">  2  5  1 -1</clus>
<clus scale="   36.177">  1  5  2 -1</clus>
</clustering>
</event>
<event>
 9    1  0.1321469E-005  0.9703837E+02  0.7546771E-02  0.1287974E+00
          2   -1    0    0  502    0 -0.00000000000E+00  0.00000000000E+00  0.53552694074E+03  0.53552694074E+03  0.00000000000E+00 0. -1.
         21   -1    0    0  501  502  0.00000000000E+00 -0.00000000000E+00 -0.46275824645E+02  0.46275824645E+02  0.00000000000E+00 0.  1.
         23    2    1    2    0    0  0.20367441553E+02 -0.29539545809E+02  0.38626018187E+03  0.39850455584E+03  0.91222450515E+02 0.  0.
         23    2    1    2    0    0  0.22292743987E+01  0.30940956970E+02  0.12182887371E+03  0.15384581593E+03  0.88678904636E+02 0.  0.
        -11    1    3    3    0    0  0.48155579251E+02  0.10458605963E+02  0.20019949502E+03  0.20617511988E+03  0.00000000000E+00 0.  1.
         11    1    3    3    0    0 -0.27788137697E+02 -0.39998151772E+02  0.18606068686E+03  0.19232943596E+03  0.00000000000E+00 0. -1.
        -13    1    4    4    0    0  0.18565128303E+02 -0.27199235680E+02  0.34753893472E+02  0.47877923116E+02  0.00000000000E+00 0. -1.
         13    1    4    4    0    0 -0.16335853904E+02  0.58140192649E+02  0.87074980243E+02  0.10596789282E+03  0.00000000000E+00 0.  1.
          2    1    1    2  501    0 -0.22596715952E+02 -0.14014111605E+01 -0.18837939497E+02  0.29452393613E+02  0.00000000000E+00 0. -1.
<scales pt_clust_5="13000.00000" pt_clust_6="13000.00000" pt_clust_7="13000.00000" pt_clust_8="13000.00000" pt_clust_9="22.64013"></scales>
<clustering>
<clus scale="   22.640">  2  9  1 -1</clus>
<clus scale="   88.679">  7  8 -1 -1</clus>
<clus scale="   91.222">  5  6 -1 -1</clus>
<clus scale="   94.651">  2  7  1 -1</clus>
<clus scale="   22.640">  2  5  1 -1</clus>
</clustering>
</event>
<event>
 9    1  0.1321469E-005  0.1315749E+03  0.7546771E-02  0.1226136E+00
          2   -1    0    0  502    0 -0.00000000000E+00  0.00000000000E+00  0.92767385797E+03  0.92767385797E+03  0.00000000000E+00 0.  1.
         21   -1    0    0  501  502  0.00000000000E+00 -0.00000000000E+00 -0.17656202558E+03  0.17656202558E+03  0.00000000000E+00 0.  1.
         23    2    1    2    0    0  0.80556831349E+02  0.52317065366E+01  0.41786918256E+03  0.43550069213E+03  0.92354887662E+02 0.  0.
         23    2    1    2    0    0 -0.10786628707E+03 -0.69878461855E+01  0.49004553566E+03  0.50956221820E+03  0.88459376655E+02 0.  0.
        -11    1    4    4    0    0 -0.10396850421E+03  0.23927733697E+02  0.41034033951E+03  0.42398252386E+03  0.00000000000E+00 0.  1.
         11    1    4    4    0    0 -0.38977828567E+01 -0.30915579882E+02  0.79705196151E+02  0.85579694345E+02  0.00000000000E+00 0. -1.
        -11    1    3    3    0    0  0.96461525313E+02 -0.14189125534E+02  0.33773521059E+03  0.35152699701E+03  0.00000000000E+00 0. -1.
         11    1    3    3    0    0 -0.15904693963E+02  0.19420832071E+02  0.80133971969E+02  0.83973695119E+02  0.00000000000E+00 0.  1.
          2    1    1    2  501    0  0.27309455721E+02  0.17561396490E+01 -0.15680288583E+03  0.15917297322E+03  0.00000000000E+00 0.  1.
<scales pt_clust_5="13000.00000" pt_clust_6="13000.00000" pt_clust_7="13000.00000" pt_clust_8="13000.00000" pt_clust_9="27.36586"></scales>
<clustering>
<clus scale="   27.366">  2  9  1 -1</clus>
<clus scale="   88.459">  5  6 -1 -1</clus>
<clus scale="   92.355">  7  8 -1 -1</clus>
<clus scale="  128.870">  2  5  1 -1</clus>
<clus scale="   27.366">  2  5  1 -1</clus>
</clustering>
</event>
<event>
 9    1  0.1321469E-005  0.1385143E+03  0.7546771E-02  0.1215927E+00
         21   -1    0    0  501  502  0.00000000000E+00  0.00000000000E+00  0.15275105691E+03  0.15275105691E+03  0.00000000000E+00 0. -1.
          1   -1    0    0  502    0 -0.00000000000E+00 -0.00000000000E+00 -0.25951876017E+03  0.25951876017E+03  0.00000000000E+00 0. -1.
         23    2    1    2    0    0 -0.28187603710E+02 -0.11843426447E+03 -0.13371370396E+03  0.20395765003E+03  0.94330018429E+02 0.  0.
         23    2    1    2    0    0  0.10680513172E+02  0.76132133744E+02 -0.40833951015E+02  0.12651919462E+03  0.91812416925E+02 0.  0.
        -13    1    3    3    0    0  0.26735908024E+02 -0.11303125098E+02 -0.48281575643E+02  0.56335423682E+02  0.00000000000E+00 0.  1.
         13    1    3    3    0    0 -0.54923511734E+02 -0.10713113937E+03 -0.85432128321E+02  0.14762222635E+03  0.00000000000E+00 0. -1.
        -13    1    4    4    0    0  0.44320690686E+02  0.47287055135E+02 -0.49267024437E+02  0.81410250602E+02  0.00000000000E+00 0.  1.
         13    1    4    4    0    0 -0.33640177513E+02  0.28845078610E+02  0.84330734214E+01  0.45108944019E+02  0.00000000000E+00 0. -1.
          1    1    1    2  501    0  0.17507090537E+02  0.42302130723E+02  0.67779951720E+02  0.81792972424E+02  0.00000000000E+00 0. -1.
<scales pt_clust_5="13000.00000" pt_clust_6="13000.00000" pt_clust_7="13000.00000" pt_clust_8="13000.00000" pt_clust_9="45.78175"></scales>
<clustering>
<clus scale="   45.782">  1  9  2 -1</clus>
<clus scale="   91.812">  7  8 -1 -1</clus>
<clus scale="   94.330">  5  6 -1 -1</clus>
<clus scale="  136.812">  1  7  2 -1</clus>
<clus scale="   45.782">  1  5  2 -1</clus>
</clustering>
</event>
<event>
 9    1  0.1321469E-005  0.9842663E+02  0.7546771E-02  0.1285153E+00
          2   -1    0    0  502    0 -0.00000000000E+00  0.00000000000E+00  0.17880731278E+03  0.17880731278E+03  0.00000000000E+00 0. -1.
         21   -1    0    0  501  502  0.00000000000E+00 -0.00000000000E+00 -0.20446708351E+03  0.20446708351E+03  0.00000000000E+00 0. -1.
         23    2    1    2    0    0  0.10328157695E+02 -0.15601752028E+02  0.51809106867E+02  0.10850487547E+03  0.93482826967E+02 0.  0.
         23    2    1    2    0    0 -0.52574095904E+02 -0.52101865667E+02  0.47711315728E+02  0.12631555508E+03  0.90557218595E+02 0.  0.
        -11    1    3    3    0    0 -0.23850842834E+02  0.20913348015E+02 -0.57641730192E+01  0.32240603587E+02  0.00000000000E+00 0.  1.
         11    1    3    3    0    0  0.34179000528E+02 -0.36515100044E+02  0.57573279886E+02  0.76264271879E+02  0.00000000000E+00 0. -1.
        -11    1    4    4    0    0 -0.15103041785E+02 -0.67115438970E+02  0.72722646507E+01  0.69177090518E+02  0.00000000000E+00 0.  1.
         11    1    4    4    0    0 -0.37471054119E+02  0.15013573303E+02  0.40439051077E+02  0.57138464559E+02  0.00000000000E+00 0. -1.
          2    1    1    2  501    0  0.42245938210E+02  0.67703617696E+02 -0.12518019333E+03  0.14845396575E+03  0.00000000000E+00 0. -1.
<scales pt_clust_5="13000.00000" pt_clust_6="13000.00000" pt_clust_7="13000.00000" pt_clust_8="13000.00000" pt_clust_9="79.80288"></scales>
<clustering>
<clus scale="   79.803">  2  9  1 -1</clus>
<clus scale="   90.557">  7  8 -1 -1</clus>
<clus scale="   93.483">  5  6 -1 -1</clus>
<clus scale="   95.652">  2  7  1 -1</clus>
<clus scale="   79.803">  2  5  1 -1</clus>
</clustering>
</event>
<event>
 9    1  0.1321469E-005  0.1085469E+03  0.7546771E-02  0.1263400E+00
         -1   -1    0    0    0  501 -0.00000000000E+00  0.00000000000E+00  0.36312016738E+02  0.36312016738E+02  0.00000000000E+00 0.  1.
         21   -1    0    0  501  502  0.00000000000E+00 -0.00000000000E+00 -0.48473604601E+03  0.48473604601E+03  0.00000000000E+00 0.  1.
         23    2    1    2    0    0  0.14707320041E+02  0.45725704505E+02 -0.13513732504E+03  0.16995086728E+03  0.91181441955E+02 0.  0.
         23    2    1    2    0    0 -0.18525256249E+02 -0.69990587008E+02 -0.17125251422E+03  0.20695465389E+03  0.90889701009E+02 0.  0.
        -13    1    4    4    0    0 -0.38686526969E+02 -0.42262459054E+01 -0.27684537341E+02  0.47759209909E+02  0.00000000000E+00 0.  1.
         13    1    4    4    0    0  0.20161270719E+02 -0.65764341103E+02 -0.14356797688E+03  0.15919544398E+03  0.00000000000E+00 0. -1.
        -13    1    3    3    0    0  0.23916557316E+02  0.65321949666E+02 -0.13038831179E+03  0.14778386473E+03  0.00000000000E+00 0. -1.
         13    1    3    3    0    0 -0.92092372752E+01 -0.19596245161E+02 -0.47490132477E+01  0.22167002558E+02  0.00000000000E+00 0.  1.
         -1    1    1    2    0  502  0.38179362082E+01  0.24264882503E+02 -0.14203419001E+03  0.14414254158E+03  0.00000000000E+00 0.  1.
<scales pt_clust_5="13000.00000" pt_clust_6="13000.00000" pt_clust_7="13000.00000" pt_clust_8="13000.00000" pt_clust_9="24.56341"></scales>
<clustering>
<clus scale="   24.563">  2  9  1 -1</clus>
<clus scale="   90.890">  5  6 -1 -1</clus>
<clus scale="   91.181">  7  8 -1 -1</clus>
<clus scale="  108.302">  2  5  1 -1</clus>
<clus scale="   24.563">  2  5  1 -1</clus>
</clustering>
</event>
<event>
 9    1  0.1321469E-005  0.1016688E+03  0.7546771E-02  0.1278206E+00
         21   -1    0    0  501  502  0.00000000000E+00  0.00000000000E+00  0.11589701353E+03  0.11589701353E+03  0.00000000000E+00 0. -1.
          3   -1    0    0  502    0 -0.00000000000E+00 -0.00000000000E+00 -0.26384917061E+03  0.26384917061E+03  0.00000000000E+00 0. -1.
         23    2    1    2    0    0 -0.53003167291E+02 -0.17965365243E-01 -0.15232605172E+03  0.18620429594E+03  0.93056314824E+02 0.  0.
         23    2    1    2    0    0  0.24064572952E+02  0.14874336083E+01 -0.68073632756E+02  0.11551467625E+03  0.90157111886E+02 0.  0.
        -11    1    4    4    0    0  0.54708439149E+02  0.19072663772E+02 -0.44226734099E+02  0.72888845694E+02  0.00000000000E+00 0.  1.
         11    1    4    4    0    0 -0.30643866197E+02 -0.17585230164E+02 -0.23846898657E+02  0.42625830561E+02  0.00000000000E+00 0. -1.
        -13    1    3    3    0    0  0.25880556546E+02 -0.70126897266E+01 -0.27756172323E+02  0.38592565688E+02  0.00000000000E+00 0.  1.
         13    1    3    3    0    0 -0.78883723837E+02  0.69947243614E+01 -0.12456987940E+03  0.14761173025E+03  0.00000000000E+00 0. -1.
          3    1    1    2  501    0  0.28938594339E+02 -0.14694682431E+01  0.72447527395E+02  0.78027211951E+02  0.00000000000E+00 0. -1.
<scales pt_clust_5="13000.00000" pt_clust_6="13000.00000" pt_clust_7="13000.00000" pt_clust_8="13000.00000" pt_clust_9="28.97588"></scales>
<clustering>
<clus scale="   28.976">  1  9  2 -1</clus>
<clus scale="   90.157">  5  6 -1 -1</clus>
<clus scale="   93.056">  7  8 -1 -1</clus>
<clus scale="   99.022">  1  5  2 -1</clus>
<clus scale="   28.976">  1  5  2 -1</clus>
</clustering>
</event>
<event>
 9    1  0.1321469E-005  0.1022808E+03  0.7546771E-02  0.1276479E+00
          1   -1    0    0  502    0 -0.00000000000E+00  0.00000000000E+00  0.19628908337E+03  0.19628908337E+03  0.00000000000E+00 0. -1.
         21   -1    0    0  501  502  0.00000000000E+00 -0.00000000000E+00 -0.18547988701E+03  0.18547988701E+03  0.00000000000E+00 0. -1.
         23    2    1    2    0    0  0.46136999908E+02  0.29562874768E+02  0.73907236953E+02  0.13058898445E+03  0.92674790853E+02 0.  0.
         23    2    1    2    0    0  0.24694707577E+02 -0.54657168096E+02  0.46510591354E+02  0.11828564241E+03  0.90724988212E+02 0.  0.
        -13    1    4    4    0    0 -0.90766271474E+01 -0.61237148394E+02  0.18830398977E+01  0.61934799128E+02  0.00000000000E+00 0.  1.
         13    1    4    4    0    0  0.33771334724E+02  0.65799802979E+01  0.44627551456E+02  0.56350843283E+02  0.00000000000E+00 0. -1.
        -13    1    3    3    0    0  0.27653093663E+02 -0.32618944301E+02  0.30834562682E+02  0.52720578262E+02  0.00000000000E+00 0.  1.
         13    1    3    3    0    0  0.18483906245E+02  0.62181819070E+02  0.43072674271E+02  0.77868406185E+02  0.00000000000E+00 0. -1.
          1    1    1    2  501    0 -0.70831707485E+02  0.25094293328E+02 -0.10960863195E+03  0.13289434352E+03  0.00000000000E+00 0. -1.
<scales pt_clust_5="13000.00000" pt_clust_6="13000.00000" pt_clust_7="13000.00000" pt_clust_8="13000.00000" pt_clust_9="75.14555"></scales>
<clustering>
<clus scale="   75.146">  2  9  1 -1</clus>
<clus scale="   90.725">  5  6 -1 -1</clus>
<clus scale="   92.675">  7  8 -1 -1</clus>
<clus scale="  100.518">  2  5  1 -1</clus>
<clus scale="   75.146">  2  5  1 -1</clus>
</clustering>
</event>
<event>
 9    1  0.1321469E-005  0.1372195E+03  0.7546771E-02  0.1217213E+00
         21   -1    0    0  501  502  0.00000000000E+00  0.00000000000E+00  0.26060672510E+03  0.26060672510E+03  0.00000000000E+00 0. -1.
          2   -1    0    0  502    0 -0.00000000000E+00 -0.00000000000E+00 -0.65385953070E+03  0.65385953070E+03  0.00000000000E+00 0. -1.
         23    2    1    2    0    0 -0.72763703449E+02 -0.67425675744E+02 -0.49383634704E+03  0.51158567052E+03  0.89469449190E+02 0.  0.
         23    2    1    2    0    0  0.90716098079E+02  0.86777499022E+02 -0.11093005322E+03  0.18972622275E+03  0.89055140814E+02 0.  0.
        -11    1    3    3    0    0  0.19224516520E+02 -0.25473833921E+02 -0.99377338423E+02  0.10437602044E+03  0.00000000000E+00 0. -1.
         11    1    3    3    0    0 -0.91988219969E+02 -0.41951841823E+02 -0.39445900861E+03  0.40720965009E+03  0.00000000000E+00 0.  1.
        -13    1    4    4    0    0  0.23191677441E+02  0.21369926595E+02  0.13054237155E+02  0.34131228705E+02  0.00000000000E+00 0.  1.
         13    1    4    4    0    0  0.67524420638E+02  0.65407572427E+02 -0.12398429037E+03  0.15559499405E+03  0.00000000000E+00 0. -1.
          2    1    1    2  501    0 -0.17952394630E+02 -0.19351823278E+02  0.21151359466E+03  0.21315436252E+03  0.00000000000E+00 0. -1.
<scales pt_clust_5="13000.00000" pt_clust_6="13000.00000" pt_clust_7="13000.00000" pt_clust_8="13000.00000" pt_clust_9="26.39662"></scales>
<clustering>
<clus scale="   26.397">  1  9  2 -1</clus>
<clus scale="   89.055">  7  8 -1 -1</clus>
<clus scale="   89.469">  5  6 -1 -1</clus>
<clus scale="  136.950">  1  7  2 -1</clus>
<clus scale="   26.397">  1  5  2 -1</clus>
</clustering>
</event>
<event>
 9    1  0.1573083E-005  0.1029019E+03  0.7546771E-02  0.1275424E+00
          1   -1    0    0  502    0 -0.00000000000E+00  0.00000000000E+00  0.52472787830E+03  0.52472787830E+03  0.00000000000E+00 0. -1.
         21   -1    0    0  501  502  0.00000000000E+00 -0.00000000000E+00 -0.20639307320E+03  0.20639307320E+03  0.00000000000E+00 0. -1.
         23    2    1    2    0    0 -0.52678307114E+02  0.32996459494E+02  0.36233519494E+03  0.37840442616E+03  0.89662399413E+02 0.  0.
         23    2    1    2    0    0 -0.61919778082E+01 -0.30292355395E+02  0.13382953628E+03  0.16537591241E+03  0.92102552844E+02 0.  0.
        -11    1    3    3    0    0 -0.25233876393E+02  0.59810673736E+02  0.16377972736E+03  0.17617566320E+03  0.00000000000E+00 0. -1.
         11    1    3    3    0    0 -0.27444430721E+02 -0.26814214242E+02  0.19855546758E+03  0.20222876296E+03  0.00000000000E+00 0.  1.
        -11    1    4    4    0    0 -0.32904648957E+02 -0.10626981246E+02  0.83308871667E+01  0.35567574199E+02  0.00000000000E+00 0. -1.
         11    1    4    4    0    0  0.26712671149E+02 -0.19665374149E+02  0.12549864911E+03  0.12980833821E+03  0.00000000000E+00 0.  1.
          1    1    1    2  501    0  0.58870284923E+02 -0.27041040989E+01 -0.17782992612E+03  0.18734061292E+03  0.00000000000E+00 0. -1.
<scales pt_clust_5="13000.00000" pt_clust_6="13000.00000" pt_clust_7="13000.00000" pt_clust_8="13000.00000" pt_clust_9="58.93236"></scales>
<clustering>
<clus scale="   58.932">  2  9  1 -1</clus>
<clus scale="   89.662">  5  6 -1 -1</clus>
<clus scale="   92.103">  7  8 -1 -1</clus>
<clus scale="  100.724">  1  5  2 -1</clus>
<clus scale="   58.932">  2  5  1 -1</clus>
</clustering>
</event>
<event>
 9    1  0.1321469E-005  0.9440282E+02  0.7546771E-02  0.1293941E+00
         21   -1    0    0  501  502  0.00000000000E+00  0.00000000000E+00  0.91217903218E+02  0.91217903218E+02  0.00000000000E+00 0. -1.
         -3   -1    0    0    0  501 -0.00000000000E+00 -0.00000000000E+00 -0.13149947181E+03  0.13149947181E+03  0.00000000000E+00 0.  1.
         23    2    1    2    0    0 -0.14646134954E+02  0.29561732514E+02 -0.39166090189E+02  0.10426753515E+03  0.90825827641E+02 0.  0.
         23    2    1    2    0    0  0.21240720620E+02 -0.54384010327E+01 -0.10879833097E+02  0.91602748712E+02  0.88272013601E+02 0.  0.
        -11    1    3    3    0    0  0.20291836133E+02 -0.61622034811E+01 -0.48953362365E+02  0.53349442848E+02  0.00000000000E+00 0.  1.
         11    1    3    3    0    0 -0.34937971087E+02  0.35723935995E+02  0.97872721763E+01  0.50918092299E+02  0.00000000000E+00 0. -1.
        -13    1    4    4    0    0  0.24307480386E+02  0.23974999041E+02 -0.38275838335E+02  0.51290291303E+02  0.00000000000E+00 0.  1.
         13    1    4    4    0    0 -0.30667597657E+01 -0.29413400074E+02  0.27396005238E+02  0.40312457409E+02  0.00000000000E+00 0. -1.
         -3    1    1    2    0  502 -0.65945856660E+01 -0.24123331482E+02  0.97643546913E+01  0.26847091172E+02  0.00000000000E+00 0.  1.
<scales pt_clust_5="13000.00000" pt_clust_6="13000.00000" pt_clust_7="13000.00000" pt_clust_8="13000.00000" pt_clust_9="25.00847"></scales>
<clustering>
<clus scale="   25.008">  1  9  2 -1</clus>
<clus scale="   88.272">  7  8 -1 -1</clus>
<clus scale="   90.826">  5  6 -1 -1</clus>
<clus scale="   91.948">  1  7  2 -1</clus>
<clus scale="   25.008">  1  5  2 -1</clus>
</clustering>
</event>
<event>
 9    1  0.1321469E-005  0.1174856E+03  0.7546771E-02  0.1248124E+00
         21   -1    0    0  501  502  0.00000000000E+00  0.00000000000E+00  0.12592896763E+03  0.12592896763E+03  0.00000000000E+00 0. -1.
         -3   -1    0    0    0  501 -0.00000000000E+00 -0.00000000000E+00 -0.23373955586E+03  0.23373955586E+03  0.00000000000E+00 0.  1.
         23    2    1    2    0    0  0.84069268497E+02  0.18504784901E+02 -0.11089522905E+03  0.16817711880E+03  0.92605196896E+02 0.  0.
         23    2    1    2    0    0 -0.40556559181E+02 -0.48543158687E+02 -0.45989239183E+02  0.11935330470E+03  0.90160570501E+02 0.  0.
        -11    1    4    4    0    0 -0.21290603452E+02  0.24816044491E+02 -0.48119782353E+01  0.33049674643E+02  0.00000000000E+00 0.  1.
         11    1    4    4    0    0 -0.19265955730E+02 -0.73359203177E+02 -0.41177260947E+02  0.86303630052E+02  0.00000000000E+00 0. -1.
        -13    1    3    3    0    0  0.91005446707E+01  0.29761422878E+02  0.31002059348E+01  0.31275765089E+02  0.00000000000E+00 0. -1.
         13    1    3    3    0    0  0.74968723826E+02 -0.11256637977E+02 -0.11399543499E+03  0.13690135371E+03  0.00000000000E+00 0.  1.
         -3    1    1    2    0  502 -0.43512709315E+02  0.30038373786E+02  0.49073880004E+02  0.72138099991E+02  0.00000000000E+00 0.  1.
<scales pt_clust_5="13000.00000" pt_clust_6="13000.00000" pt_clust_7="13000.00000" pt_clust_8="13000.00000" pt_clust_9="52.87400"></scales>
<clustering>
<clus scale="   52.874">  1  9  2 -1</clus>
<clus scale="   90.161">  5  6 -1 -1</clus>
<clus scale="   92.605">  7  8 -1 -1</clus>
<clus scale="  115.569">  1  5  2 -1</clus>
<clus scale="   52.874">  1  5  2 -1</clus>
</clustering>
</event>
<event>
 9    1  0.1321469E-005  0.1010711E+03  0.7546771E-02  0.1278149E+00
         21   -1    0    0  501  502  0.00000000000E+00  0.00000000000E+00  0.94416302504E+02  0.94416302504E+02  0.00000000000E+00 0. -1.
          1   -1    0    0  502    0 -0.00000000000E+00 -0.00000000000E+00 -0.42681832905E+03  0.42681832905E+03  0.00000000000E+00 0. -1.
         23    2    1    2    0    0  0.20789130851E+02 -0.35259465453E+01 -0.16696312876E+03  0.19193940966E+03  0.92300760313E+02 0.  0.
         23    2    1    2    0    0 -0.58471893568E+02  0.20521601965E+02 -0.22841433727E+03  0.25396429273E+03  0.92112181754E+02 0.  0.
        -11    1    4    4    0    0 -0.59984135322E+01 -0.33764605533E+02 -0.54833400697E+02  0.64674039488E+02  0.00000000000E+00 0.  1.
         11    1    4    4    0    0 -0.52473480036E+02  0.54286207498E+02 -0.17358093657E+03  0.18929025324E+03  0.00000000000E+00 0. -1.
        -13    1    3    3    0    0 -0.31825114437E+02 -0.11150727560E+02 -0.10506539229E+03  0.11034452089E+03  0.00000000000E+00 0. -1.
         13    1    3    3    0    0  0.52614245288E+02  0.76247810148E+01 -0.61897736475E+02  0.81594888770E+02  0.00000000000E+00 0.  1.
          1    1    1    2  501    0  0.37682762717E+02 -0.16995655420E+02  0.62975439489E+02  0.75330929159E+02  0.00000000000E+00 0. -1.
<scales pt_clust_5="13000.00000" pt_clust_6="13000.00000" pt_clust_7="13000.00000" pt_clust_8="13000.00000" pt_clust_9="41.33815"></scales>
<clustering>
<clus scale="   41.338">  1  9  2 -1</clus>
<clus scale="   92.112">  5  6 -1 -1</clus>
<clus scale="   92.301">  7  8 -1 -1</clus>
<clus scale="  100.899">  1  5  2 -1</clus>
<clus scale="   41.338">  1  5  2 -1</clus>
</clustering>
</event>
<event>
 9    1  0.1321469E-005  0.1375602E+03  0.7546771E-02  0.1231262E+00
         -1   -1    0    0    0  501 -0.00000000000E+00  0.00000000000E+00  0.39608676347E+03  0.39608676347E+03  0.00000000000E+00 0.  1.
         21   -1    0    0  501  502  0.00000000000E+00 -0.00000000000E+00 -0.88152802884E+02  0.88152802884E+02  0.00000000000E+00 0. -1.
         23    2    1    2    0    0  0.25021079882E+02  0.27916842389E+02  0.71296796884E+02  0.12397279910E+03  0.94237026396E+02 0.  0.
         23    2    1    2    0    0  0.73645508745E+02 -0.66977735716E+02  0.21233615411E+03  0.25140268609E+03  0.90592440042E+02 0.  0.
        -13    1    4    4    0    0  0.51490759183E+01 -0.64554891195E+02  0.85801081840E+02  0.10749731441E+03  0.00000000000E+00 0. -1.
         13    1    4    4    0    0  0.68496432827E+02 -0.24228445211E+01  0.12653507227E+03  0.14390537168E+03  0.00000000000E+00 0.  1.
        -13    1    3    3    0    0 -0.11300664955E+02  0.26556703520E+02  0.81302815566E+02  0.86273468397E+02  0.00000000000E+00 0.  1.
         13    1    3    3    0    0  0.36321744838E+02  0.13601388693E+01 -0.10006018682E+02  0.37699330706E+02  0.00000000000E+00 0. -1.
         -1    1    1    2    0  502 -0.98666588628E+02  0.39060893327E+02  0.24301009592E+02  0.10886408116E+03  0.00000000000E+00 0.  1.
<scales pt_clust_5="13000.00000" pt_clust_6="13000.00000" pt_clust_7="13000.00000" pt_clust_8="13000.00000" pt_clust_9="103.51726"></scales>
<clustering>
<clus scale="   90.592">  5  6 -1 -1</clus>
<clus scale="   94.237">  7  8 -1 -1</clus>
<clus scale="  101.420">  1  7  2 -1</clus>
<clus scale="  103.517">  2  9  1 -1</clus>
<clus scale="  103.517">  2  5  1 -1</clus>
</clustering>
</event>
<event>
 9    1  0.1321469E-005  0.1109467E+03  0.7546771E-02  0.1259074E+00
          1   -1    0    0  502    0 -0.00000000000E+00  0.00000000000E+00  0.55482196313E+03  0.55482196313E+03  0.00000000000E+00 0. -1.
         21   -1    0    0  501  502  0.00000000000E+00 -0.00000000000E+00 -0.10996046643E+03  0.10996046643E+03  0.00000000000E+00 0.  1.
         23    2    1    2    0    0  0.70354241592E+02 -0.14331359077E+00  0.45918859701E+03  0.47381476995E+03  0.93255180862E+02 0.  0.
         23    2    1    2    0    0  0.21115427484E+02 -0.16286515971E+02 -0.17627578836E+02  0.97975548015E+02  0.92614062609E+02 0.  0.
        -11    1    3    3    0    0 -0.18189531588E+02  0.10508429283E+02  0.39324145870E+02  0.44583344354E+02  0.00000000000E+00 0.  1.
         11    1    3    3    0    0  0.88543773180E+02 -0.10651742873E+02  0.41986445114E+03  0.42923142560E+03  0.00000000000E+00 0. -1.
        -13    1    4    4    0    0 -0.22551991099E+02  0.11499702646E+02 -0.35163008467E+02  0.43327504289E+02  0.00000000000E+00 0.  1.
         13    1    4    4    0    0  0.43667418583E+02 -0.27786218617E+02  0.17535429631E+02  0.54648043726E+02  0.00000000000E+00 0. -1.
          1    1    1    2  501    0 -0.91469669076E+02  0.16429829562E+02  0.33004785342E+01  0.92992111595E+02  0.00000000000E+00 0. -1.
<scales pt_clust_5="13000.00000" pt_clust_6="13000.00000" pt_clust_7="13000.00000" pt_clust_8="13000.00000" pt_clust_9="92.93352"></scales>
<clustering>
<clus scale="   92.614">  7  8 -1 -1</clus>
<clus scale="   92.934">  2  9  1 -1</clus>
<clus scale="   93.255">  5  6 -1 -1</clus>
<clus scale="  110.408">  2  7  1 -1</clus>
<clus scale="   92.934">  2  5  1 -1</clus>
</clustering>
</event>
<event>
 9    1  0.1321469E-005  0.1164287E+03  0.7546771E-02  0.1250229E+00
          2   -1    0    0  502    0 -0.00000000000E+00  0.00000000000E+00  0.96471107066E+03  0.96471107066E+03  0.00000000000E+00 0. -1.
         21   -1    0    0  501  502  0.00000000000E+00 -0.00000000000E+00 -0.35102324617E+02  0.35102324617E+02  0.00000000000E+00 0. -1.
         23    2    1    2    0    0 -0.38453611244E+02  0.58233656222E+02  0.48345494253E+03  0.49707863469E+03  0.92133862806E+02 0.  0.
         23    2    1    2    0    0  0.15798606023E+02 -0.63911619079E+02  0.46082059765E+03  0.47515572191E+03  0.95305014775E+02 0.  0.
        -13    1    3    3    0    0  0.29802404207E+02  0.24748597010E+02  0.13643214842E+03  0.14182527092E+03  0.00000000000E+00 0.  1.
         13    1    3    3    0    0 -0.68256015451E+02  0.33485059211E+02  0.34702279411E+03  0.35525336377E+03  0.00000000000E+00 0. -1.
        -13    1    4    4    0    0  0.30618220251E+01 -0.87374769539E+02  0.38404188101E+03  0.39386786043E+03  0.00000000000E+00 0. -1.
         13    1    4    4    0    0  0.12736783998E+02  0.23463150460E+02  0.76778716635E+02  0.81287861482E+02  0.00000000000E+00 0.  1.
          2    1    1    2  501    0  0.22655005221E+02  0.56779628575E+01 -0.14666794139E+02  0.27579038672E+02  0.00000000000E+00 0. -1.
<scales pt_clust_5="13000.00000" pt_clust_6="13000.00000" pt_clust_7="13000.00000" pt_clust_8="13000.00000" pt_clust_9="23.35570"></scales>
<clustering>
<clus scale="   23.356">  2  9  1 -1</clus>
<clus scale="   92.134">  5  6 -1 -1</clus>
<clus scale="   95.305">  7  8 -1 -1</clus>
<clus scale="  113.847">  1  5  2 -1</clus>
<clus scale="   23.356">  2  5  1 -1</clus>
</clustering>
</event>
<event>
 9    1  0.1321469E-005  0.1284912E+03  0.7546771E-02  0.1229949E+00
          1   -1    0    0  502    0 -0.00000000000E+00  0.00000000000E+00  0.50677052627E+03  0.50677052627E+03  0.00000000000E+00 0. -1.
         21   -1    0    0  501  502  0.00000000000E+00 -0.00000000000E+00 -0.44804977646E+02  0.44804977646E+02  0.00000000000E+00 0.  1.
         23    2    1    2    0    0 -0.50445157339E+02  0.65495203459E+02  0.24276987173E+03  0.27241561451E+03  0.91862510491E+02 0.  0.
         23    2    1    2    0    0  0.50383106205E+02 -0.85669129738E+02  0.22107292403E+03  0.25889871450E+03  0.90981588519E+02 0.  0.
        -13    1    4    4    0    0  0.36573046079E+02 -0.53594053702E+01  0.20192832037E+02  0.42119608154E+02  0.00000000000E+00 0. -1.
         13    1    4    4    0    0  0.13810060126E+02 -0.80309724367E+02  0.20088009199E+03  0.21677910635E+03  0.00000000000E+00 0.  1.
        -13    1    3    3    0    0  0.11774961646E+02  0.34212356215E+02  0.25519973251E+02  0.44276450561E+02  0.00000000000E+00 0.  1.
         13    1    3    3    0    0 -0.62220118984E+02  0.31282847245E+02  0.21724989848E+03  0.22813916395E+03  0.00000000000E+00 0. -1.
          1    1    1    2  501    0  0.62051133723E-01  0.20173926278E+02 -0.18772471362E+01  0.20261174908E+02  0.00000000000E+00 0. -1.
<scales pt_clust_5="13000.00000" pt_clust_6="13000.00000" pt_clust_7="13000.00000" pt_clust_8="13000.00000" pt_clust_9="20.17402"></scales>
<clustering>
<clus scale="   20.174">  2  9  1 -1</clus>
<clus scale="   90.982">  5  6 -1 -1</clus>
<clus scale="   91.863">  7  8 -1 -1</clus>
<clus scale="  127.863">  2  5  1 -1</clus>
<clus scale="   20.174">  2  5  1 -1</clus>
</clustering>
</event>
<event>
 9    1  0.1321469E-005  0.2658870E+03  0.7546771E-02  0.1104123E+00
          1   -1    0    0  502    0 -0.00000000000E+00  0.00000000000E+00  0.15232739199E+04  0.15232739199E+04  0.00000000000E+00 0. -1.
         21   -1    0    0  501  502  0.00000000000E+00 -0.00000000000E+00 -0.21909565411E+03  0.21909565411E+03  0.00000000000E+00 0. -1.
         23    2    1    2    0    0  0.45091753469E+02 -0.24203720192E+03  0.12606037541E+04  0.12873634676E+04  0.86991951213E+02 0.  0.
         23    2    1    2    0    0 -0.17508976240E+03  0.23072838888E+03  0.87234919584E+02  0.31740667767E+03  0.96151201262E+02 0.  0.
        -11    1    3    3    0    0 -0.20914860783E+02 -0.53869029957E+02  0.20020034526E+03  0.20837341969E+03  0.00000000000E+00 0.  1.
         11    1    3    3    0    0  0.66006614252E+02 -0.18816817196E+03  0.10604034088E+04  0.10789900479E+04  0.00000000000E+00 0. -1.
        -13    1    4    4    0    0 -0.10884393785E+03  0.11189187493E+03  0.92141284110E+02  0.18126447727E+03  0.00000000000E+00 0. -1.
         13    1    4    4    0    0 -0.66245824556E+02  0.11883651395E+03 -0.49063645269E+01  0.13614220041E+03  0.00000000000E+00 0.  1.
          1    1    1    2  501    0  0.12999800893E+03  0.11308813041E+02 -0.43660407846E+02  0.13759942875E+03  0.00000000000E+00 0. -1.
<scales pt_clust_5="13000.00000" pt_clust_6="13000.00000" pt_clust_7="13000.00000" pt_clust_8="13000.00000" pt_clust_9="130.48897"></scales>
<clustering>
<clus scale="   86.992">  5  6 -1 -1</clus>
<clus scale="   96.151">  7  8 -1 -1</clus>
<clus scale="  130.489">  2  9  1 -1</clus>
<clus scale="  262.714">  1  5  2 -1</clus>
<clus scale="  130.489">  2  5  1 -1</clus>
</clustering>
</event>
<event>
 9    1  0.1321469E-005  0.9838724E+02  0.7546771E-02  0.1285659E+00
         21   -1    0    0  501  502  0.00000000000E+00  0.00000000000E+00  0.40855784901E+02  0.40855784901E+02  0.00000000000E+00 0. -1.
          2   -1    0    0  502    0 -0.00000000000E+00 -0.00000000000E+00 -0.36258283647E+03  0.36258283647E+03  0.00000000000E+00 0. -1.
         23    2    1    2    0    0 -0.30786417482E+02  0.36082000180E+02 -0.18154760456E+03  0.20770420960E+03  0.89060607024E+02 0.  0.
         23    2    1    2    0    0  0.14113327448E+02 -0.81958121407E+01 -0.13207758473E+03  0.16224901814E+03  0.92811088509E+02 0.  0.
        -11    1    3    3    0    0  0.18427989340E+02 -0.19167259150E+02 -0.55613100334E+02  0.61642449199E+02  0.00000000000E+00 0.  1.
         11    1    3    3    0    0 -0.49214406822E+02  0.55249259330E+02 -0.12593450423E+03  0.14606176040E+03  0.00000000000E+00 0. -1.
        -13    1    4    4    0    0  0.35435863494E+02  0.46978648853E+01 -0.92553971073E+01  0.36924690001E+02  0.00000000000E+00 0.  1.
         13    1    4    4    0    0 -0.21322536046E+02 -0.12893677026E+02 -0.12282218762E+03  0.12532432814E+03  0.00000000000E+00 0. -1.
          2    1    1    2  501    0  0.16673090034E+02 -0.27886188040E+02 -0.81018622764E+01  0.33485393637E+02  0.00000000000E+00 0. -1.
<scales pt_clust_5="13000.00000" pt_clust_6="13000.00000" pt_clust_7="13000.00000" pt_clust_8="13000.00000" pt_clust_9="32.49048"></scales>
<clustering>
<clus scale="   32.490">  1  9  2 -1</clus>
<clus scale="   89.061">  5  6 -1 -1</clus>
<clus scale="   92.811">  7  8 -1 -1</clus>
<clus scale="   94.857">  2  5  1 -1</clus>
<clus scale="   32.490">  1  5  2 -1</clus>
</clustering>
</event>
<event>
 9    1  0.1321469E-005  0.1724241E+03  0.7546771E-02  0.1175578E+00
         21   -1    0    0  501  502  0.00000000000E+00  0.00000000000E+00  0.24051428907E+03  0.24051428907E+03  0.00000000000E+00 0.  1.
         -1   -1    0    0    0  501 -0.00000000000E+00 -0.00000000000E+00 -0.25468812649E+03  0.25468812649E+03  0.00000000000E+00 0.  1.
         23    2    1    2    0    0  0.66803436442E+02 -0.13934903704E+03 -0.12257894694E+03  0.21760331665E+03  0.91895331436E+02 0.  0.
         23    2    1    2    0    0 -0.74236850403E+02  0.89024668961E+02  0.15145151912E+03  0.21095983837E+03  0.90166452307E+02 0.  0.
        -11    1    4    4    0    0 -0.43714585248E+02  0.32000673400E+02  0.13313786986E+03  0.14373830545E+03  0.00000000000E+00 0.  1.
         11    1    4    4    0    0 -0.30522265155E+02  0.57023995561E+02  0.18313649259E+02  0.67221532928E+02  0.00000000000E+00 0. -1.
        -13    1    3    3    0    0  0.37338232209E+02 -0.12875580158E+03 -0.12854203298E+03  0.18572898069E+03  0.00000000000E+00 0.  1.
         13    1    3    3    0    0  0.29465204232E+02 -0.10593235459E+02  0.59630860372E+01  0.31874335962E+02  0.00000000000E+00 0. -1.
         -1    1    1    2    0  502  0.74334139617E+01  0.50324368080E+02 -0.43046409594E+02  0.66639260535E+02  0.00000000000E+00 0.  1.
<scales pt_clust_5="13000.00000" pt_clust_6="13000.00000" pt_clust_7="13000.00000" pt_clust_8="13000.00000" pt_clust_9="50.87043"></scales>
<clustering>
<clus scale="   50.870">  1  9  2 -1</clus>
<clus scale="   90.166">  5  6 -1 -1</clus>
<clus scale="   91.895">  7  8 -1 -1</clus>
<clus scale="  171.509">  1  5  2 -1</clus>
<clus scale="   50.870">  1  5  2 -1</clus>
</clustering>
</event>
<event>
 9    1  0.1321469E-005  0.9616979E+02  0.7546771E-02  0.1289336E+00
          2   -1    0    0  502    0 -0.00000000000E+00  0.00000000000E+00  0.46566528721E+03  0.46566528721E+03  0.00000000000E+00 0. -1.
         21   -1    0    0  501  502  0.00000000000E+00 -0.00000000000E+00 -0.48975364101E+02  0.48975364101E+02  0.00000000000E+00 0. -1.
         23    2    1    2    0    0 -0.18690262790E+02 -0.47768446581E+02  0.25155468261E+03  0.27261670839E+03  0.91700386800E+02 0.  0.
         23    2    1    2    0    0  0.25699758360E+02 -0.23299065573E+02  0.13115237611E+03  0.16293817060E+03  0.90247313763E+02 0.  0.
        -11    1    3    3    0    0  0.27293844154E+02 -0.37948124818E+01  0.24691832082E+02  0.37000555429E+02  0.00000000000E+00 0.  1.
         11    1    3    3    0    0 -0.45984106944E+02 -0.43973634099E+02  0.22686285053E+03  0.23561615296E+03  0.00000000000E+00 0. -1.
        -13    1    4    4    0    0 -0.96293648046E+01 -0.21369380986E+02 -0.35145440589E+01  0.23700783325E+02  0.00000000000E+00 0. -1.
         13    1    4    4    0    0  0.35329123165E+02 -0.19296845872E+01  0.13466692017E+03  0.13923738727E+03  0.00000000000E+00 0.  1.
          2    1    1    2  501    0 -0.70094955702E+01  0.71067512154E+02  0.33982864389E+02  0.79085772324E+02  0.00000000000E+00 0. -1.
<scales pt_clust_5="13000.00000" pt_clust_6="13000.00000" pt_clust_7="13000.00000" pt_clust_8="13000.00000" pt_clust_9="71.41235"></scales>
<clustering>
<clus scale="   71.412">  2  9  1 -1</clus>
<clus scale="   90.247">  7  8 -1 -1</clus>
<clus scale="   91.700">  5  6 -1 -1</clus>
<clus scale="   94.785">  2  7  1 -1</clus>
<clus scale="   71.412">  2  5  1 -1</clus>
</clustering>
</event>
<event>
 9    1  0.1321469E-005  0.1192649E+03  0.7546771E-02  0.1247056E+00
         21   -1    0    0  501  502  0.00000000000E+00  0.00000000000E+00  0.21774008164E+03  0.21774008164E+03  0.00000000000E+00 0.  1.
          2   -1    0    0  502    0 -0.00000000000E+00 -0.00000000000E+00 -0.21339979272E+03  0.21339979272E+03  0.00000000000E+00 0. -1.
         23    2    1    2    0    0  0.35170792265E+02 -0.61792064292E+02 -0.13870066211E+03  0.17956430869E+03  0.89164025533E+02 0.  0.
         23    2    1    2    0    0 -0.78380804631E+01  0.66725265501E+02  0.13254226734E+02  0.11885025755E+03  0.97139140582E+02 0.  0.
        -13    1    3    3    0    0 -0.18942770122E+02 -0.28169296150E+02 -0.90895239764E+01  0.35141958278E+02  0.00000000000E+00 0.  1.
         13    1    3    3    0    0  0.54113562387E+02 -0.33622768143E+02 -0.12961113813E+03  0.14442235042E+03  0.00000000000E+00 0. -1.
        -13    1    4    4    0    0  0.92442294233E+01  0.44788156307E+02 -0.38709730970E+02  0.59915590582E+02  0.00000000000E+00 0. -1.
         13    1    4    4    0    0 -0.17082309886E+02  0.21937109194E+02  0.51963957705E+02  0.58934666973E+02  0.00000000000E+00 0.  1.
          2    1    1    2  501    0 -0.27332711802E+02 -0.49332012091E+01  0.12978672430E+03  0.13272530811E+03  0.00000000000E+00 0. -1.
<scales pt_clust_5="13000.00000" pt_clust_6="13000.00000" pt_clust_7="13000.00000" pt_clust_8="13000.00000" pt_clust_9="27.77433"></scales>
<clustering>
<clus scale="   27.774">  1  9  2 -1</clus>
<clus scale="   89.164">  5  6 -1 -1</clus>
<clus scale="   97.139">  7  8 -1 -1</clus>
<clus scale="  112.864">  2  5  1 -1</clus>
<clus scale="   27.774">  1  5  2 -1</clus>
</clustering>
</event>
<event>
 9    1  0.1321469E-005  0.1243856E+03  0.7546771E-02  0.1237391E+00
          1   -1    0    0  502    0 -0.00000000000E+00  0.00000000000E+00  0.80158602589E+02  0.80158602589E+02  0.00000000000E+00 0. -1.
         21   -1    0    0  501  502  0.00000000000E+00 -0.00000000000E+00 -0.28462763125E+03  0.28462763125E+03  0.00000000000E+00 0.  1.
         23    2    1    2    0    0 -0.62811241500E+02  0.61928312357E+02 -0.39757723984E+02  0.13368534614E+03  0.92253602781E+02 0.  0.
         23    2    1    2    0    0  0.54457304625E+02 -0.37850959355E+02 -0.78222438672E+02  0.14093531150E+03  0.96673258785E+02 0.  0.
        -11    1    3    3    0    0 -0.28395215170E+02  0.61227132699E+02 -0.62858544945E+02  0.92229315815E+02  0.00000000000E+00 0.  1.
         11    1    3    3    0    0 -0.34416026330E+02  0.70117965849E+00  0.23100820961E+02  0.41456030325E+02  0.00000000000E+00 0. -1.
        -13    1    4    4    0    0  0.40733986746E+02  0.24094029494E+02 -0.56882097178E+02  0.73995627661E+02  0.00000000000E+00 0. -1.
         13    1    4    4    0    0  0.13723317879E+02 -0.61944988849E+02 -0.21340341494E+02  0.66939683837E+02  0.00000000000E+00 0.  1.
          1    1    1    2  501    0  0.83539368745E+01 -0.24077353003E+02 -0.86488866002E+02  0.90165576199E+02  0.00000000000E+00 0. -1.
<scales pt_clust_5="13000.00000" pt_clust_6="13000.00000" pt_clust_7="13000.00000" pt_clust_8="13000.00000" pt_clust_9="25.48543"></scales>
<clustering>
<clus scale="   25.485">  2  9  1 -1</clus>
<clus scale="   92.254">  5  6 -1 -1</clus>
<clus scale="   96.673">  7  8 -1 -1</clus>
<clus scale="  120.983">  1  5  2 -1</clus>
<clus scale="   25.485">  2  5  1 -1</clus>
</clustering>
</event>
<event>
 9    1  0.1321469E-005  0.1016416E+03  0.7546771E-02  0.1277396E+00
         21   -1    0    0  501  502  0.00000000000E+00  0.00000000000E+00  0.15219072131E+03  0.15219072131E+03  0.00000000000E+00 0. -1.
          3   -1    0    0  502    0 -0.00000000000E+00 -0.00000000000E+00 -0.16846633380E+03  0.16846633380E+03  0.00000000000E+00 0. -1.
         23    2    1    2    0    0 -0.73396820864E+02 -0.14819102129E+02 -0.73668104680E+01  0.11823287930E+03  0.91203315453E+02 0.  0.
         23    2    1    2    0    0  0.67545992418E+01 -0.50628824430E+02  0.18226707475E+02  0.10515674719E+03  0.90093430066E+02 0.  0.
        -11    1    3    3    0    0 -0.68090809634E+02 -0.45331602469E+02  0.10510717522E+02  0.82472951456E+02  0.00000000000E+00 0. -1.
         11    1    3    3    0    0 -0.53060112294E+01  0.30512500340E+02 -0.17877527990E+02  0.35759927841E+02  0.00000000000E+00 0.  1.
        -11    1    4    4    0    0 -0.16064991963E+00 -0.20197823512E+02 -0.36753126664E+02  0.41937694293E+02  0.00000000000E+00 0.  1.
         11    1    4    4    0    0  0.69152491615E+01 -0.30431000918E+02  0.54979834139E+02  0.63219052902E+02  0.00000000000E+00 0. -1.
          3    1    1    2  501    0  0.66642221622E+02  0.65447926559E+02 -0.27135509505E+02  0.97267428617E+02  0.00000000000E+00 0. -1.
<scales pt_clust_5="13000.00000" pt_clust_6="13000.00000" pt_clust_7="13000.00000" pt_clust_8="13000.00000" pt_clust_9="93.40570"></scales>
<clustering>
<clus scale="   90.093">  7  8 -1 -1</clus>
<clus scale="   91.203">  5  6 -1 -1</clus>
<clus scale="   93.406">  1  9  2 -1</clus>
<clus scale="  100.647">  1  7  2 -1</clus>
<clus scale="   93.406">  1  5  2 -1</clus>
</clustering>
</event>
<event>
 9    1  0.1321469E-005  0.1003233E+03  0.7546771E-02  0.1282629E+00
         -1   -1    0    0    0  501 -0.00000000000E+00  0.00000000000E+00  0.32829181513E+03  0.32829181513E+03  0.00000000000E+00 0.  1.
         21   -1    0    0  501  502  0.00000000000E+00 -0.00000000000E+00 -0.45387013740E+02  0.45387013740E+02  0.00000000000E+00 0. -1.
         23    2    1    2    0    0  0.35745828505E+02 -0.42537230025E+02  0.17899532207E+03  0.20807411977E+03  0.90378834918E+02 0.  0.
         23    2    1    2    0    0 -0.12726711901E+02  0.17777451123E+02  0.45519835969E+02  0.98134146398E+02  0.84144211081E+02 0.  0.
        -11    1    3    3    0    0 -0.16793373823E+02  0.14435195105E+02  0.15170572529E+02  0.26842848824E+02  0.00000000000E+00 0. -1.
         11    1    3    3    0    0  0.52539202329E+02 -0.56972425131E+02  0.16382474954E+03  0.18123127095E+03  0.00000000000E+00 0.  1.
        -13    1    4    4    0    0 -0.31455463347E+02 -0.16407434524E+02  0.47285702219E+02  0.59115037989E+02  0.00000000000E+00 0.  1.
         13    1    4    4    0    0  0.18728751446E+02  0.34184885647E+02 -0.17658662509E+01  0.39019108409E+02  0.00000000000E+00 0. -1.
         -1    1    1    2    0  502 -0.23019116605E+02  0.24759778903E+02  0.58389643347E+02  0.67470562698E+02  0.00000000000E+00 0.  1.
<scales pt_clust_5="13000.00000" pt_clust_6="13000.00000" pt_clust_7="13000.00000" pt_clust_8="13000.00000" pt_clust_9="33.80721"></scales>
<clustering>
<clus scale="   33.807">  2  9  1 -1</clus>
<clus scale="   84.144">  7  8 -1 -1</clus>
<clus scale="   90.379">  5  6 -1 -1</clus>
<clus scale="   94.745">  2  7  1 -1</clus>
<clus scale="   33.807">  2  5  1 -1</clus>
</clustering>
</event>
<event>
 9    1  0.1321469E-005  0.9859139E+02  0.7546771E-02  0.1286357E+00
          1   -1    0    0  502    0 -0.00000000000E+00  0.00000000000E+00  0.30087111712E+02  0.30087111712E+02  0.00000000000E+00 0. -1.
         21   -1    0    0  501  502  0.00000000000E+00 -0.00000000000E+00 -0.64431776995E+03  0.64431776995E+03  0.00000000000E+00 0.  1.
         23    2    1    2    0    0  0.11418112145E+02  0.18448093257E+02 -0.11983886546E+03  0.15247806047E+03  0.91746933577E+02 0.  0.
         23    2    1    2    0    0 -0.53254484508E+02 -0.35056764311E+02 -0.22848361725E+03  0.25223572416E+03  0.85750104050E+02 0.  0.
        -13    1    3    3    0    0  0.44022924029E+02  0.10344609119E+02 -0.24584788466E+02  0.51472717063E+02  0.00000000000E+00 0. -1.
         13    1    3    3    0    0 -0.32604811884E+02  0.81034841383E+01 -0.95254076995E+02  0.10100534341E+03  0.00000000000E+00 0.  1.
        -13    1    4    4    0    0  0.19855687521E+02 -0.25766793809E+02 -0.83083876156E+02  0.89225032739E+02  0.00000000000E+00 0. -1.
         13    1    4    4    0    0 -0.73110172029E+02 -0.92899705019E+01 -0.14539974110E+03  0.16301069142E+03  0.00000000000E+00 0.  1.
          1    1    1    2  501    0  0.41836372362E+02  0.16608671054E+02 -0.26590817553E+03  0.26969109703E+03  0.00000000000E+00 0. -1.
<scales pt_clust_5="13000.00000" pt_clust_6="13000.00000" pt_clust_7="13000.00000" pt_clust_8="13000.00000" pt_clust_9="45.01255"></scales>
<clustering>
<clus scale="   45.013">  2  9  1 -1</clus>
<clus scale="   85.750">  7  8 -1 -1</clus>
<clus scale="   91.747">  5  6 -1 -1</clus>
<clus scale="   93.037">  2  7  1 -1</clus>
<clus scale="   45.013">  2  5  1 -1</clus>
</clustering>
</event>
<event>
 9    1  0.1321469E-005  0.1092405E+03  0.7546771E-02  0.1263544E+00
         21   -1    0    0  501  502  0.00000000000E+00  0.00000000000E+00  0.59085478684E+02  0.59085478684E+02  0.00000000000E+00 0. -1.
         -3   -1    0    0    0  501 -0.00000000000E+00 -0.00000000000E+00 -0.31484224445E+03  0.31484224445E+03  0.00000000000E+00 0.  1.
         23    2    1    2    0    0 -0.40418946629E+02 -0.13107171680E+02 -0.10783797245E+03  0.14734517128E+03  0.90972974015E+02 0.  0.
         23    2    1    2    0    0  0.69908939953E+02 -0.18695220175E+02 -0.13744474780E+03  0.18196464666E+03  0.94780286951E+02 0.  0.
        -11    1    3    3    0    0 -0.11888556566E+02  0.38758288515E+02 -0.52328198424E+02  0.66195038003E+02  0.00000000000E+00 0.  1.
         11    1    3    3    0    0 -0.28530390062E+02 -0.51865460196E+02 -0.55509774029E+02  0.81150133279E+02  0.00000000000E+00 0. -1.
        -13    1    4    4    0    0  0.83155443084E+02 -0.20195226623E+01 -0.13746012651E+03  0.16066795750E+03  0.00000000000E+00 0.  1.
         13    1    4    4    0    0 -0.13246503131E+02 -0.16675697513E+02  0.15378714210E-01  0.21296689162E+02  0.00000000000E+00 0. -1.
         -3    1    1    2    0  502 -0.29489993325E+02  0.31802391856E+02 -0.10474045513E+02  0.44617905189E+02  0.00000000000E+00 0.  1.
<scales pt_clust_5="13000.00000" pt_clust_6="13000.00000" pt_clust_7="13000.00000" pt_clust_8="13000.00000" pt_clust_9="43.37109"></scales>
<clustering>
<clus scale="   43.371">  1  9  2 -1</clus>
<clus scale="   90.973">  5  6 -1 -1</clus>
<clus scale="   94.780">  7  8 -1 -1</clus>
<clus scale="  105.954">  2  5  1 -1</clus>
<clus scale="   43.371">  1  5  2 -1</clus>
</clustering>
</event>
<event>
 9    1  0.1321469E-005  0.1032366E+03  0.7546771E-02  0.1276563E+00
          2   -1    0    0  502    0 -0.00000000000E+00  0.00000000000E+00  0.22769735255E+03  0.22769735255E+03  0.00000000000E+00 0. -1.
         21   -1    0    0  501  502  0.00000000000E+00 -0.00000000000E+00 -0.80265447128E+02  0.80265447128E+02  0.00000000000E+00 0.  1.
         23    2    1    2    0    0 -0.38530465890E+02  0.13064198477E+02  0.13592057898E+03  0.16973340254E+03  0.93165197705E+02 0.  0.
         23    2    1    2    0    0  0.40359690079E+02 -0.41370963265E+02  0.24267698739E+02  0.10712724242E+03  0.86872686627E+02 0.  0.
        -13    1    4    4    0    0  0.59143653511E+02 -0.42783689778E+00  0.16622928367E+02  0.61436768654E+02  0.00000000000E+00 0.  1.
         13    1    4    4    0    0 -0.18783963433E+02 -0.40943126367E+02  0.76447703718E+01  0.45690473767E+02  0.00000000000E+00 0. -1.
        -13    1    3    3    0    0 -0.50555779568E+02 -0.28690492393E+02  0.74432646424E+02  0.94441781300E+02  0.00000000000E+00 0. -1.
         13    1    3    3    0    0  0.12025313678E+02  0.41754690869E+02  0.61487932553E+02  0.75291621236E+02  0.00000000000E+00 0.  1.
          2    1    1    2  501    0 -0.18292241882E+01  0.28306764788E+02 -0.12756372297E+02  0.31102154718E+02  0.00000000000E+00 0. -1.
<scales pt_clust_5="13000.00000" pt_clust_6="13000.00000" pt_clust_7="13000.00000" pt_clust_8="13000.00000" pt_clust_9="28.36581"></scales>
<clustering>
<clus scale="   28.366">  2  9  1 -1</clus>
<clus scale="   86.873">  5  6 -1 -1</clus>
<clus scale="   93.165">  7  8 -1 -1</clus>
<clus scale="   97.596">  2  5  1 -1</clus>
<clus scale="   28.366">  2  5  1 -1</clus>
</clustering>
</event>
<event>
 9    1  0.1321469E-005  0.9945755E+02  0.7546771E-02  0.1284565E+00
          1   -1    0    0  502    0 -0.00000000000E+00  0.00000000000E+00  0.11654574529E+03  0.11654574529E+03  0.00000000000E+00 0. -1.
         21   -1    0    0  501  502  0.00000000000E+00 -0.00000000000E+00 -0.17049530430E+03  0.17049530430E+03  0.00000000000E+00 0.  1.
         23    2    1    2    0    0  0.22571949932E+02  0.32259819400E+02  0.61163821399E+02  0.11221582070E+03  0.85446992313E+02 0.  0.
         23    2    1    2    0    0  0.74411644696E-01 -0.41510814456E+02 -0.67155119219E+02  0.12098812813E+03  0.91679680716E+02 0.  0.
        -13    1    4    4    0    0 -0.20727192870E+02 -0.39096092135E+02 -0.83448344881E+02  0.94455000968E+02  0.00000000000E+00 0.  1.
         13    1    4    4    0    0  0.20801604515E+02 -0.24147223211E+01  0.16293225663E+02  0.26533127158E+02  0.00000000000E+00 0. -1.
        -13    1    3    3    0    0  0.42054677418E+02  0.23903462142E+02  0.73274184249E+02  0.87801352338E+02  0.00000000000E+00 0.  1.
         13    1    3    3    0    0 -0.19482727486E+02  0.83563572576E+01 -0.12110362850E+02  0.24414468359E+02  0.00000000000E+00 0. -1.
          1    1    1    2  501    0 -0.22646361577E+02  0.92509950564E+01 -0.47958261196E+02  0.53837100769E+02  0.00000000000E+00 0. -1.
<scales pt_clust_5="13000.00000" pt_clust_6="13000.00000" pt_clust_7="13000.00000" pt_clust_8="13000.00000" pt_clust_9="24.46300"></scales>
<clustering>
<clus scale="   24.463">  2  9  1 -1</clus>
<clus scale="   85.447">  7  8 -1 -1</clus>
<clus scale="   91.680">  5  6 -1 -1</clus>
<clus scale="   93.743">  1  7  2 -1</clus>
<clus scale="   24.463">  2  5  1 -1</clus>
</clustering>
</event>
<event>
 9    1  0.1321469E-005  0.1424415E+03  0.7546771E-02  0.1212336E+00
          2   -1    0    0  502    0 -0.00000000000E+00  0.00000000000E+00  0.14440590625E+03  0.14440590625E+03  0.00000000000E+00 0. -1.
         21   -1    0    0  501  502  0.00000000000E+00 -0.00000000000E+00 -0.16444262682E+03  0.16444262682E+03  0.00000000000E+00 0.  1.
         23    2    1    2    0    0  0.10636853579E+03 -0.58155024451E+02  0.13851002041E+02  0.14446418278E+03  0.77341952227E+02 0.  0.
         23    2    1    2    0    0 -0.79530676548E+02  0.61070273891E+02 -0.26226180169E+02  0.13632247935E+03  0.88551109455E+02 0.  0.
        -11    1    3    3    0    0  0.52228457813E+02  0.10431733870E+02  0.19944245799E+02  0.56871836770E+02  0.00000000000E+00 0.  1.
         11    1    3    3    0    0  0.54140077975E+02 -0.68586758322E+02 -0.60932437574E+01  0.87592346011E+02  0.00000000000E+00 0. -1.
        -13    1    4    4    0    0 -0.29199130573E+02  0.53203387476E+02  0.23550392881E+02  0.65098469030E+02  0.00000000000E+00 0. -1.
         13    1    4    4    0    0 -0.50331545974E+02  0.78668864143E+01 -0.49776573050E+02  0.71224010324E+02  0.00000000000E+00 0.  1.
          2    1    1    2  501    0 -0.26837859240E+02 -0.29152494393E+01 -0.76615424450E+01  0.28061870937E+02  0.00000000000E+00 0. -1.
<scales pt_clust_5="13000.00000" pt_clust_6="13000.00000" pt_clust_7="13000.00000" pt_clust_8="13000.00000" pt_clust_9="26.99573"></scales>
<clustering>
<clus scale="   26.996">  2  9  1 -1</clus>
<clus scale="   77.342">  5  6 -1 -1</clus>
<clus scale="   88.551">  7  8 -1 -1</clus>
<clus scale="  135.757">  1  5  2 -1</clus>
<clus scale="   26.996">  2  5  1 -1</clus>
</clustering>
</event>
<event>
 9    1  0.1321469E-005  0.1100336E+03  0.7546771E-02  0.1261591E+00
         21   -1    0    0  501  502  0.00000000000E+00  0.00000000000E+00  0.45121735249E+02  0.45121735249E+02  0.00000000000E+00 0. -1.
          2   -1    0    0  502    0 -0.00000000000E+00 -0.00000000000E+00 -0.71536823891E+03  0.71536823891E+03  0.00000000000E+00 0. -1.
         23    2    1    2    0    0 -0.53254724019E+02  0.47693049921E+02 -0.36606601396E+03  0.38387770107E+03  0.90813380978E+02 0.  0.
         23    2    1    2    0    0  0.71831875693E+02  0.38444556100E+02 -0.23767217443E+03  0.26621230146E+03  0.87995026507E+02 0.  0.
        -11    1    3    3    0    0 -0.97870171097E+01  0.59934849016E+02 -0.12939872007E+03  0.14294054913E+03  0.00000000000E+00 0.  1.
         11    1    3    3    0    0 -0.43467706909E+02 -0.12241799094E+02 -0.23666729389E+03  0.24093715194E+03  0.00000000000E+00 0. -1.
        -13    1    4    4    0    0  0.50447887280E+02 -0.14360878920E+02 -0.60327269681E+02  0.79941251189E+02  0.00000000000E+00 0.  1.
         13    1    4    4    0    0  0.21383988413E+02  0.52805435020E+02 -0.17734490475E+03  0.18627105027E+03  0.00000000000E+00 0. -1.
          2    1    1    2  501    0 -0.18577151674E+02 -0.86137606021E+02 -0.66508315276E+02  0.11039997163E+03  0.00000000000E+00 0. -1.
<scales pt_clust_5="13000.00000" pt_clust_6="13000.00000" pt_clust_7="13000.00000" pt_clust_8="13000.00000" pt_clust_9="88.11809"></scales>
<clustering>
<clus scale="   87.995">  7  8 -1 -1</clus>
<clus scale="   88.118">  1  9  2 -1</clus>
<clus scale="   90.813">  5  6 -1 -1</clus>
<clus scale="  107.719">  1  7  2 -1</clus>
<clus scale="   88.118">  1  5  2 -1</clus>
</clustering>
</event>
<event>
 9    1  0.1321469E-005  0.1014698E+03  0.7546771E-02  0.1277657E+00
         21   -1    0    0  501  502  0.00000000000E+00  0.00000000000E+00  0.45008216647E+02  0.45008216647E+02  0.00000000000E+00 0. -1.
          4   -1    0    0  502    0 -0.00000000000E+00 -0.00000000000E+00 -0.43372858721E+03  0.43372858721E+03  0.00000000000E+00 0. -1.
         23    2    1    2    0    0  0.17800832269E+02  0.21125828804E+02 -0.18268055087E+03  0.20680029999E+03  0.92903229967E+02 0.  0.
         23    2    1    2    0    0 -0.38019839928E+02 -0.32736706370E+02 -0.22028122387E+03  0.24461548006E+03  0.93785475006E+02 0.  0.
        -11    1    3    3    0    0  0.49251706753E+02 -0.12568580713E+02 -0.96378311031E+02  0.10896090435E+03  0.00000000000E+00 0.  1.
         11    1    3    3    0    0 -0.31450874485E+02  0.33694409518E+02 -0.86302239841E+02  0.97839395645E+02  0.00000000000E+00 0. -1.
        -11    1    4    4    0    0 -0.55173140907E+02  0.68055529763E+01 -0.16742422115E+03  0.17641219022E+03  0.00000000000E+00 0. -1.
         11    1    4    4    0    0  0.17153300979E+02 -0.39542259347E+02 -0.52857002717E+02  0.68203289840E+02  0.00000000000E+00 0.  1.
          4    1    1    2  501    0  0.20219007659E+02  0.11610877566E+02  0.14241404182E+02  0.27321023803E+02  0.00000000000E+00 0. -1.
<scales pt_clust_5="13000.00000" pt_clust_6="13000.00000" pt_clust_7="13000.00000" pt_clust_8="13000.00000" pt_clust_9="23.31568"></scales>
<clustering>
<clus scale="   23.316">  1  9  2 -1</clus>
<clus scale="   92.903">  5  6 -1 -1</clus>
<clus scale="   93.785">  7  8 -1 -1</clus>
<clus scale="  100.655">  2  5  1 -1</clus>
<clus scale="   23.316">  1  5  2 -1</clus>
</clustering>
</event>
<event>
 9    1  0.1321469E-005  0.2748055E+03  0.7546771E-02  0.1098716E+00
         21   -1    0    0  501  502  0.00000000000E+00  0.00000000000E+00  0.52672229465E+03  0.52672229465E+03  0.00000000000E+00 0. -1.
          1   -1    0    0  502    0 -0.00000000000E+00 -0.00000000000E+00 -0.86255379749E+03  0.86255379749E+03  0.00000000000E+00 0. -1.
         23    2    1    2    0    0 -0.25366310908E+03  0.18135210310E+02 -0.59804490829E+03  0.65644034793E+03  0.92641023889E+02 0.  0.
         23    2    1    2    0    0  0.27121542042E+03  0.13586492643E+03 -0.10438292579E+03  0.33481941812E+03  0.95870564027E+02 0.  0.
        -11    1    4    4    0    0  0.18984405282E+03  0.13496460248E+03 -0.99516367852E+02  0.25329768215E+03  0.00000000000E+00 0. -1.
         11    1    4    4    0    0  0.81371367606E+02  0.90032394745E+00 -0.48665579333E+01  0.81521735969E+02  0.00000000000E+00 0.  1.
        -13    1    3    3    0    0 -0.31459540910E+02  0.58522564214E+01 -0.21809449348E+02  0.38724716918E+02  0.00000000000E+00 0.  1.
         13    1    3    3    0    0 -0.22220356817E+03  0.12282953888E+02 -0.57623545894E+03  0.61771563102E+03  0.00000000000E+00 0. -1.
          1    1    1    2  501    0 -0.17552311343E+02 -0.15400013674E+03  0.36659633123E+03  0.39801632608E+03  0.00000000000E+00 0. -1.
<scales pt_clust_5="13000.00000" pt_clust_6="13000.00000" pt_clust_7="13000.00000" pt_clust_8="13000.00000" pt_clust_9="154.99718"></scales>
<clustering>
<clus scale="   92.641">  7  8 -1 -1</clus>
<clus scale="   95.871">  5  6 -1 -1</clus>
<clus scale="  154.997">  1  9  2 -1</clus>
<clus scale="  273.696">  2  7  1 -1</clus>
<clus scale="  154.997">  1  5  2 -1</clus>
</clustering>
</event>
<event>
 9    1  0.1321469E-005  0.1599116E+03  0.7546771E-02  0.1189721E+00
         21   -1    0    0  501  502  0.00000000000E+00  0.00000000000E+00  0.96952864800E+02  0.96952864800E+02  0.00000000000E+00 0.  1.
          1   -1    0    0  502    0 -0.00000000000E+00 -0.00000000000E+00 -0.66897098747E+03  0.66897098747E+03  0.00000000000E+00 0. -1.
         23    2    1    2    0    0  0.11854508274E+03  0.35693536908E+02 -0.54756200658E+03  0.56905423040E+03  0.93121430755E+02 0.  0.
         23    2    1    2    0    0 -0.13153772433E+03 -0.53945974080E+02 -0.21701008281E+02  0.17429638956E+03  0.98468048686E+02 0.  0.
        -13    1    3    3    0    0  0.10228296395E+03  0.11754362611E+02 -0.51625085500E+03  0.52641705429E+03  0.00000000000E+00 0. -1.
         13    1    3    3    0    0  0.16262118792E+02  0.23939174297E+02 -0.31311151579E+02  0.42637176112E+02  0.00000000000E+00 0.  1.
        -13    1    4    4    0    0 -0.10527514981E+03 -0.16630716134E+02  0.24500030795E+02  0.10936036483E+03  0.00000000000E+00 0.  1.
         13    1    4    4    0    0 -0.26262574515E+02 -0.37315257946E+02 -0.46201039075E+02  0.64936024727E+02  0.00000000000E+00 0. -1.
          1    1    1    2  501    0  0.12992641587E+02  0.18252437172E+02 -0.27551078118E+01  0.22573232315E+02  0.00000000000E+00 0. -1.
<scales pt_clust_5="13000.00000" pt_clust_6="13000.00000" pt_clust_7="13000.00000" pt_clust_8="13000.00000" pt_clust_9="22.40447"></scales>
<clustering>
<clus scale="   22.404">  1  9  2 -1</clus>
<clus scale="   93.121">  5  6 -1 -1</clus>
<clus scale="   98.468">  7  8 -1 -1</clus>
<clus scale="  156.676">  2  5  1 -1</clus>
<clus scale="   22.404">  1  5  2 -1</clus>
</clustering>
</event>
<event>
 9    1  0.1321469E-005  0.9575089E+02  0.7546771E-02  0.1291379E+00
          1   -1    0    0  502    0 -0.00000000000E+00  0.00000000000E+00  0.34734500213E+03  0.34734500213E+03  0.00000000000E+00 0. -1.
         21   -1    0    0  501  502  0.00000000000E+00 -0.00000000000E+00 -0.11811102389E+03  0.11811102389E+03  0.00000000000E+00 0.  1.
         23    2    1    2    0    0  0.25289370647E+02  0.15974411483E+02  0.29607927943E+03  0.31108005416E+03  0.90626300230E+02 0.  0.
         23    2    1    2    0    0 -0.19228266841E+02 -0.48534548538E+02 -0.66242507021E+02  0.12125101352E+03  0.87111479707E+02 0.  0.
        -11    1    3    3    0    0 -0.33615435206E+02  0.55705960912E+00  0.85435951163E+02  0.91812905142E+02  0.00000000000E+00 0.  1.
         11    1    3    3    0    0  0.58904805853E+02  0.15417351874E+02  0.21064332827E+03  0.21926714901E+03  0.00000000000E+00 0. -1.
        -13    1    4    4    0    0 -0.55441550300E+01 -0.21510104678E+02 -0.83489292912E+02  0.86393774598E+02  0.00000000000E+00 0.  1.
         13    1    4    4    0    0 -0.13684111811E+02 -0.27024443860E+02  0.17246785891E+02  0.34857238927E+02  0.00000000000E+00 0. -1.
          1    1    1    2  501    0 -0.60611038053E+01  0.32560137055E+02 -0.60279417929E+00  0.33124958343E+02  0.00000000000E+00 0. -1.
<scales pt_clust_5="13000.00000" pt_clust_6="13000.00000" pt_clust_7="13000.00000" pt_clust_8="13000.00000" pt_clust_9="33.11947"></scales>
<clustering>
<clus scale="   33.119">  2  9  1 -1</clus>
<clus scale="   87.111">  7  8 -1 -1</clus>
<clus scale="   90.626">  5  6 -1 -1</clus>
<clus scale="   92.431">  2  7  1 -1</clus>
<clus scale="   33.119">  2  5  1 -1</clus>
</clustering>
</event>
<event>
 9    1  0.1321469E-005  0.1020221E+03  0.7546771E-02  0.1277546E+00
         21   -1    0    0  501  502  0.00000000000E+00  0.00000000000E+00  0.80998769688E+02  0.80998769688E+02  0.00000000000E+00 0. -1.
         -1   -1    0    0    0  501 -0.00000000000E+00 -0.00000000000E+00 -0.37698794400E+03  0.37698794400E+03  0.00000000000E+00 0.  1.
         23    2    1    2    0    0 -0.45020695762E+02  0.23851981664E+01 -0.30869159305E+03  0.32393278834E+03  0.87231872176E+02 0.  0.
         23    2    1    2    0    0  0.65056937954E+02 -0.10344699217E+02  0.11975230904E+02  0.11248233615E+03  0.90385019852E+02 0.  0.
        -11    1    3    3    0    0 -0.40356936463E+02 -0.37572344883E+02 -0.21523371982E+03  0.22218442242E+03  0.00000000000E+00 0.  1.
         11    1    3    3    0    0 -0.46637592991E+01  0.39957543049E+02 -0.93457873235E+02  0.10174836592E+03  0.00000000000E+00 0. -1.
        -11    1    4    4    0    0  0.82505445743E+01  0.35623993723E+02 -0.64211365472E+01  0.37126424675E+02  0.00000000000E+00 0. -1.
         11    1    4    4    0    0  0.56806393380E+02 -0.45968692941E+02  0.18396367451E+02  0.75355911480E+02  0.00000000000E+00 0.  1.
         -1    1    1    2    0  502 -0.20036242193E+02  0.79595010510E+01  0.72718783744E+00  0.21571589194E+02  0.00000000000E+00 0.  1.
<scales pt_clust_5="13000.00000" pt_clust_6="13000.00000" pt_clust_7="13000.00000" pt_clust_8="13000.00000" pt_clust_9="21.55933"></scales>
<clustering>
<clus scale="   21.559">  1  9  2 -1</clus>
<clus scale="   87.232">  5  6 -1 -1</clus>
<clus scale="   90.385">  7  8 -1 -1</clus>
<clus scale="   99.239">  2  5  1 -1</clus>
<clus scale="   21.559">  1  5  2 -1</clus>
</clustering>
</event>
<event>
 9    1  0.1321469E-005  0.1030964E+03  0.7546771E-02  0.1276740E+00
         21   -1    0    0  501  502  0.00000000000E+00  0.00000000000E+00  0.44729809962E+03  0.44729809962E+03  0.00000000000E+00 0.  1.
         -1   -1    0    0    0  501 -0.00000000000E+00 -0.00000000000E+00 -0.58061046619E+03  0.58061046619E+03  0.00000000000E+00 0.  1.
         23    2    1    2    0    0  0.55508839572E+02 -0.18338264057E+02 -0.31507400980E+03  0.33504921621E+03  0.97820357966E+02 0.  0.
         23    2    1    2    0    0  0.24531822412E+02  0.38330645225E+02 -0.24107885740E+03  0.26204582631E+03  0.92075789044E+02 0.  0.
        -11    1    4    4    0    0 -0.19920955968E+02  0.24213371371E+02 -0.22617443369E+02  0.38661099110E+02  0.00000000000E+00 0. -1.
         11    1    4    4    0    0  0.44452778381E+02  0.14117273853E+02 -0.21846141403E+03  0.22338472720E+03  0.00000000000E+00 0.  1.
        -13    1    3    3    0    0 -0.28253354888E+02 -0.13857580363E+01 -0.87435983915E+02  0.91897898077E+02  0.00000000000E+00 0. -1.
         13    1    3    3    0    0  0.83762194461E+02 -0.16952506020E+02 -0.22763802589E+03  0.24315131813E+03  0.00000000000E+00 0.  1.
         -1    1    1    2    0  502 -0.80040661984E+02 -0.19992381168E+02  0.42284050063E+03  0.43081352329E+03  0.00000000000E+00 0.  1.
<scales pt_clust_5="13000.00000" pt_clust_6="13000.00000" pt_clust_7="13000.00000" pt_clust_8="13000.00000" pt_clust_9="82.49971"></scales>
<clustering>
<clus scale="   82.500">  1  9  2 -1</clus>
<clus scale="   92.076">  5  6 -1 -1</clus>
<clus scale="   97.663">  1  5  2 -1</clus>
<clus scale="   97.820">  7  8 -1 -1</clus>
<clus scale="   82.500">  1  5  2 -1</clus>
</clustering>
</event>
<event>
 9    1  0.1321469E-005  0.1102438E+03  0.7546771E-02  0.1260330E+00
         21   -1    0    0  501  502  0.00000000000E+00  0.00000000000E+00  0.16526462454E+03  0.16526462454E+03  0.00000000000E+00 0.  1.
         -2   -1    0    0    0  501 -0.00000000000E+00 -0.00000000000E+00 -0.16029271006E+03  0.16029271006E+03  0.00000000000E+00 0.  1.
         23    2    1    2    0    0  0.47236977934E+02  0.68220108898E+02 -0.11927795893E+02  0.12340355840E+03  0.90558547745E+02 0.  0.
         23    2    1    2    0    0 -0.50444720337E+02  0.69432791181E+01  0.54830917578E+02  0.11790058047E+03  0.91111132245E+02 0.  0.
        -11    1    4    4    0    0  0.32097926382E+01 -0.34096721490E+02  0.31221459769E+02  0.46342946985E+02  0.00000000000E+00 0. -1.
         11    1    4    4    0    0 -0.53654512976E+02  0.41040000608E+02  0.23609457808E+02  0.71557633489E+02  0.00000000000E+00 0.  1.
        -13    1    3    3    0    0  0.63181791073E+02  0.21082621644E+02  0.12818618681E+02  0.67828700736E+02  0.00000000000E+00 0.  1.
         13    1    3    3    0    0 -0.15944813139E+02  0.47137487253E+02 -0.24746414574E+02  0.55574857669E+02  0.00000000000E+00 0. -1.
         -2    1    1    2    0  502  0.32077424033E+01 -0.75163388016E+02 -0.37931207209E+02  0.84253195724E+02  0.00000000000E+00 0.  1.
<scales pt_clust_5="13000.00000" pt_clust_6="13000.00000" pt_clust_7="13000.00000" pt_clust_8="13000.00000" pt_clust_9="75.23184"></scales>
<clustering>
<clus scale="   75.232">  1  9  2 -1</clus>
<clus scale="   90.559">  7  8 -1 -1</clus>
<clus scale="   91.111">  5  6 -1 -1</clus>
<clus scale="  109.788">  2  7  1 -1</clus>
<clus scale="   75.232">  1  5  2 -1</clus>
</clustering>
</event>
<event>
 9    1  0.1321469E-005  0.1404908E+03  0.7546771E-02  0.1218548E+00
          1   -1    0    0  502    0 -0.00000000000E+00  0.00000000000E+00  0.78356236264E+03  0.78356236264E+03  0.00000000000E+00 0. -1.
         21   -1    0    0  501  502  0.00000000000E+00 -0.00000000000E+00 -0.29785498415E+02  0.29785498415E+02  0.00000000000E+00 0. -1.
         23    2    1    2    0    0  0.37214322908E+02 -0.81410693254E+02  0.47096343555E+03  0.49257928263E+03  0.11320417502E+03 0.  0.
         23    2    1    2    0    0 -0.52909051973E+02  0.55331537097E+02  0.20780001963E+03  0.23981514464E+03  0.92029933504E+02 0.  0.
        -13    1    3    3    0    0  0.71210494786E+02 -0.61670481199E+02  0.40481288413E+03  0.41562922656E+03  0.00000000000E+00 0. -1.
         13    1    3    3    0    0 -0.33996171879E+02 -0.19740212055E+02  0.66150551425E+02  0.76950056064E+02  0.00000000000E+00 0.  1.
        -13    1    4    4    0    0 -0.44302072529E+02  0.77323704180E+02  0.12367005204E+03  0.15243329895E+03  0.00000000000E+00 0. -1.
         13    1    4    4    0    0 -0.86069794439E+01 -0.21992167083E+02  0.84129967594E+02  0.87381845686E+02  0.00000000000E+00 0.  1.
          1    1    1    2  501    0  0.15694729066E+02  0.26079156157E+02  0.75013409036E+02  0.80953433784E+02  0.00000000000E+00 0. -1.
<scales pt_clust_5="13000.00000" pt_clust_6="13000.00000" pt_clust_7="13000.00000" pt_clust_8="13000.00000" pt_clust_9="30.43759"></scales>
<clustering>
<clus scale="   30.438">  2  9  1 -1</clus>
<clus scale="   92.030">  7  8 -1 -1</clus>
<clus scale="  113.204">  5  6 -1 -1</clus>
<clus scale="  124.064">  2  7  1 -1</clus>
<clus scale="   30.438">  2  5  1 -1</clus>
</clustering>
</event>
<event>
 9    1  0.1321469E-005  0.8967899E+02  0.7546771E-02  0.1305808E+00
          3   -1    0    0  502    0 -0.00000000000E+00  0.00000000000E+00  0.49810104454E+02  0.49810104454E+02  0.00000000000E+00 0. -1.
         21   -1    0    0  501  502  0.00000000000E+00 -0.00000000000E+00 -0.51195579955E+03  0.51195579955E+03  0.00000000000E+00 0. -1.
         23    2    1    2    0    0  0.14420081952E+02 -0.40725011459E+01 -0.18932775415E+02  0.92312091073E+02  0.89098530539E+02 0.  0.
         23    2    1    2    0    0  0.50522365282E+01 -0.26303718255E+02 -0.15560442357E+03  0.17959085751E+03  0.85572944193E+02 0.  0.
        -11    1    4    4    0    0  0.40572828135E+02  0.64469299681E+01 -0.78488486229E+02  0.88589840046E+02  0.00000000000E+00 0.  1.
         11    1    4    4    0    0 -0.35520591607E+02 -0.32750648223E+02 -0.77115937345E+02  0.91001017465E+02  0.00000000000E+00 0. -1.
        -13    1    3    3    0    0 -0.15007853312E+02  0.33402308336E+02  0.81356805252E+01  0.37511853604E+02  0.00000000000E+00 0.  1.
         13    1    3    3    0    0  0.29427935264E+02 -0.37474809482E+02 -0.27068455940E+02  0.54800237469E+02  0.00000000000E+00 0. -1.
          3    1    1    2  501    0 -0.19472318480E+02  0.30376219401E+02 -0.28760849610E+03  0.28986295542E+03  0.00000000000E+00 0. -1.
<scales pt_clust_5="13000.00000" pt_clust_6="13000.00000" pt_clust_7="13000.00000" pt_clust_8="13000.00000" pt_clust_9="36.08166"></scales>
<clustering>
<clus scale="   36.082">  2  9  1 -1</clus>
<clus scale="   85.573">  5  6 -1 -1</clus>
<clus scale="   86.177">  2  5  1 -1</clus>
<clus scale="   89.099">  7  8 -1 -1</clus>
<clus scale="   36.082">  2  5  1 -1</clus>
</clustering>
</event>
<event>
 9    1  0.1321469E-005  0.1408300E+03  0.7546771E-02  0.1212311E+00
         21   -1    0    0  501  502  0.00000000000E+00  0.00000000000E+00  0.28847456853E+03  0.28847456853E+03  0.00000000000E+00 0. -1.
         -2   -1    0    0    0  501 -0.00000000000E+00 -0.00000000000E+00 -0.10212620254E+03  0.10212620254E+03  0.00000000000E+00 0.  1.
         23    2    1    2    0    0  0.10264536382E+03 -0.11434072130E+02  0.18323128025E+02  0.13866626763E+03  0.90696130226E+02 0.  0.
         23    2    1    2    0    0 -0.11651944127E+03 -0.20726929988E+02  0.11557128215E+03  0.18886123206E+03  0.91134284979E+02 0.  0.
        -11    1    3    3    0    0  0.56831209749E+02  0.33298708802E+02 -0.13385372598E+02  0.67214273849E+02  0.00000000000E+00 0.  1.
         11    1    3    3    0    0  0.45814154070E+02 -0.44732780933E+02  0.31708500623E+02  0.71451993778E+02  0.00000000000E+00 0. -1.
        -13    1    4    4    0    0 -0.66334354179E+02 -0.29907127475E+02  0.12466662162E+02  0.73824795859E+02  0.00000000000E+00 0. -1.
         13    1    4    4    0    0 -0.50185087090E+02  0.91801974867E+01  0.10310461998E+03  0.11503643620E+03  0.00000000000E+00 0.  1.
         -2    1    1    2    0  502  0.13874077451E+02  0.32161002118E+02  0.52453955821E+02  0.63073271388E+02  0.00000000000E+00 0.  1.
<scales pt_clust_5="13000.00000" pt_clust_6="13000.00000" pt_clust_7="13000.00000" pt_clust_8="13000.00000" pt_clust_9="35.02599"></scales>
<clustering>
<clus scale="   35.026">  1  9  2 -1</clus>
<clus scale="   90.696">  5  6 -1 -1</clus>
<clus scale="   91.134">  7  8 -1 -1</clus>
<clus scale="  140.547">  2  5  1 -1</clus>
<clus scale="   35.026">  1  5  2 -1</clus>
</clustering>
</event>
<event>
 9    1  0.1321469E-005  0.1125107E+03  0.7546771E-02  0.1256469E+00
          2   -1    0    0  502    0 -0.00000000000E+00  0.00000000000E+00  0.55032539672E+03  0.55032539672E+03  0.00000000000E+00 0. -1.
         21   -1    0    0  501  502  0.00000000000E+00 -0.00000000000E+00 -0.28301044829E+02  0.28301044829E+02  0.00000000000E+00 0.  1.
         23    2    1    2    0    0 -0.20903454945E+02  0.56724890801E+02  0.21570038940E+03  0.24150632128E+03  0.90243989082E+02 0.  0.
         23    2    1    2    0    0  0.74493283043E+01 -0.75039063926E+02  0.23621243832E+03  0.26341768963E+03  0.88916868953E+02 0.  0.
        -13    1    4    4    0    0  0.31556711716E+02 -0.84425233438E+02  0.17186362238E+03  0.19406326493E+03  0.00000000000E+00 0. -1.
         13    1    4    4    0    0 -0.24107383412E+02  0.93861695122E+01  0.64348815936E+02  0.69354424699E+02  0.00000000000E+00 0.  1.
        -13    1    3    3    0    0 -0.26949121401E+02  0.13339952391E+02  0.10760613659E+02  0.31937443236E+02  0.00000000000E+00 0.  1.
         13    1    3    3    0    0  0.60456664564E+01  0.43384938410E+02  0.20493977574E+03  0.20956887804E+03  0.00000000000E+00 0. -1.
          2    1    1    2  501    0  0.13454126641E+02  0.18314173125E+02  0.70111524170E+02  0.73702430640E+02  0.00000000000E+00 0. -1.
<scales pt_clust_5="13000.00000" pt_clust_6="13000.00000" pt_clust_7="13000.00000" pt_clust_8="13000.00000" pt_clust_9="22.72494"></scales>
<clustering>
<clus scale="   22.725">  2  9  1 -1</clus>
<clus scale="   88.917">  5  6 -1 -1</clus>
<clus scale="   90.244">  7  8 -1 -1</clus>
<clus scale="  111.449">  2  5  1 -1</clus>
<clus scale="   22.725">  2  5  1 -1</clus>
</clustering>
</event>
<event>
 9    1  0.1321469E-005  0.9904320E+02  0.7546771E-02  0.1283529E+00
         21   -1    0    0  501  502  0.00000000000E+00  0.00000000000E+00  0.60908532574E+02  0.60908532574E+02  0.00000000000E+00 0.  1.
          1   -1    0    0  502    0 -0.00000000000E+00 -0.00000000000E+00 -0.30237069540E+03  0.30237069540E+03  0.00000000000E+00 0. -1.
         23    2    1    2    0    0 -0.15860648674E+02 -0.30645929431E+02 -0.18346259960E+03  0.20906115710E+03  0.94113276368E+02 0.  0.
         23    2    1    2    0    0  0.39324671905E+02 -0.25609764078E+01 -0.53567013880E+02  0.11331689149E+03  0.91751318788E+02 0.  0.
        -11    1    4    4    0    0  0.47568263369E+02 -0.38881334223E+02 -0.24787082184E+02  0.66248753000E+02  0.00000000000E+00 0.  1.
         11    1    4    4    0    0 -0.82435914636E+01  0.36320357815E+02 -0.28779931696E+02  0.47068138485E+02  0.00000000000E+00 0. -1.
        -13    1    3    3    0    0 -0.45076267244E+02 -0.41244973943E+02 -0.15618175515E+03  0.16770735936E+03  0.00000000000E+00 0.  1.
         13    1    3    3    0    0  0.29215618570E+02  0.10599044512E+02 -0.27280844452E+02  0.41353797734E+02  0.00000000000E+00 0. -1.
          1    1    1    2  501    0 -0.23464023231E+02  0.33206905838E+02 -0.44325493440E+01  0.40901179387E+02  0.00000000000E+00 0. -1.
<scales pt_clust_5="13000.00000" pt_clust_6="13000.00000" pt_clust_7="13000.00000" pt_clust_8="13000.00000" pt_clust_9="40.66029"></scales>
<clustering>
<clus scale="   40.660">  1  9  2 -1</clus>
<clus scale="   91.751">  5  6 -1 -1</clus>
<clus scale="   94.113">  7  8 -1 -1</clus>
<clus scale="   96.802">  1  5  2 -1</clus>
<clus scale="   40.660">  1  5  2 -1</clus>
</clustering>
</event>
<event>
 9    1  0.1321469E-005  0.1011517E+03  0.7546771E-02  0.1278704E+00
         21   -1    0    0  501  502  0.00000000000E+00  0.00000000000E+00  0.53486955291E+03  0.53486955291E+03  0.00000000000E+00 0.  1.
          4   -1    0    0  502    0 -0.00000000000E+00 -0.00000000000E+00 -0.28270903631E+02  0.28270903631E+02  0.00000000000E+00 0. -1.
         23    2    1    2    0    0  0.32532432319E+02  0.27064082804E+01  0.14457095670E+03  0.17369193459E+03  0.90567338607E+02 0.  0.
         23    2    1    2    0    0 -0.52201223740E+02 -0.29740878656E+02  0.27609209582E+03  0.29723870287E+03  0.92274121434E+02 0.  0.
        -11    1    4    4    0    0  0.23172874596E+02 -0.25588172787E+02  0.92582539557E+02  0.98809226970E+02  0.00000000000E+00 0. -1.
         11    1    4    4    0    0 -0.75374098336E+02 -0.41527058687E+01  0.18350955626E+03  0.19842947590E+03  0.00000000000E+00 0.  1.
        -13    1    3    3    0    0  0.60325298429E+02  0.19927622038E+02  0.92945656891E+02  0.11258395483E+03  0.00000000000E+00 0. -1.
         13    1    3    3    0    0 -0.27792866110E+02 -0.17221213757E+02  0.51625299804E+02  0.61107979755E+02  0.00000000000E+00 0.  1.
          4    1    1    2  501    0  0.19668791421E+02  0.27034470375E+02  0.85935596765E+02  0.92209819085E+02  0.00000000000E+00 0. -1.
<scales pt_clust_5="13000.00000" pt_clust_6="13000.00000" pt_clust_7="13000.00000" pt_clust_8="13000.00000" pt_clust_9="33.43238"></scales>
<clustering>
<clus scale="   33.432">  1  9  2 -1</clus>
<clus scale="   90.567">  7  8 -1 -1</clus>
<clus scale="   92.274">  5  6 -1 -1</clus>
<clus scale="   99.597">  2  7  1 -1</clus>
<clus scale="   33.432">  1  5  2 -1</clus>
</clustering>
</event>
<event>
 9    1  0.1321469E-005  0.1045377E+03  0.7546771E-02  0.1271539E+00
          1   -1    0    0  502    0 -0.00000000000E+00  0.00000000000E+00  0.25375768144E+03  0.25375768144E+03  0.00000000000E+00 0. -1.
         21   -1    0    0  501  502  0.00000000000E+00 -0.00000000000E+00 -0.12236260924E+03  0.12236260924E+03  0.00000000000E+00 0. -1.
         23    2    1    2    0    0  0.30694470033E+02  0.35734797198E+02  0.11696343575E+03  0.15552603541E+03  0.91042716158E+02 0.  0.
         23    2    1    2    0    0 -0.72306323457E+02  0.12686754621E+02  0.69035779501E+02  0.13658350914E+03  0.92195216591E+02 0.  0.
        -11    1    3    3    0    0 -0.16801644377E+02  0.12423639320E+02 -0.59352320582E+01  0.21722546981E+02  0.00000000000E+00 0. -1.
         11    1    3    3    0    0  0.47496114410E+02  0.23311157878E+02  0.12289866781E+03  0.13380348843E+03  0.00000000000E+00 0.  1.
        -13    1    4    4    0    0 -0.67736033625E+01  0.29026027478E+02 -0.11079165680E+02  0.31798425839E+02  0.00000000000E+00 0.  1.
         13    1    4    4    0    0 -0.65532720094E+02 -0.16339272857E+02  0.80114945181E+02  0.10478508330E+03  0.00000000000E+00 0. -1.
          1    1    1    2  501    0  0.41611853424E+02 -0.48421551820E+02 -0.54604143063E+02  0.84010746132E+02  0.00000000000E+00 0. -1.
<scales pt_clust_5="13000.00000" pt_clust_6="13000.00000" pt_clust_7="13000.00000" pt_clust_8="13000.00000" pt_clust_9="63.84507"></scales>
<clustering>
<clus scale="   63.845">  2  9  1 -1</clus>
<clus scale="   91.043">  5  6 -1 -1</clus>
<clus scale="   92.195">  7  8 -1 -1</clus>
<clus scale="  103.523">  1  5  2 -1</clus>
<clus scale="   63.845">  2  5  1 -1</clus>
</clustering>
</event>
<event>
 9    1  0.1321469E-005  0.1235295E+03  0.7546771E-02  0.1237561E+00
         21   -1    0    0  501  502  0.00000000000E+00  0.00000000000E+00  0.27726241500E+03  0.27726241500E+03  0.00000000000E+00 0. -1.
          2   -1    0    0  502    0 -0.00000000000E+00 -0.00000000000E+00 -0.30721051830E+03  0.30721051830E+03  0.00000000000E+00 0. -1.
         23    2    1    2    0    0 -0.53097024611E+02  0.94968671119E+01 -0.78147974478E+02  0.13133584505E+03  0.90733201048E+02 0.  0.
         23    2    1    2    0    0  0.11290731219E+03  0.57039272782E+02 -0.16186227313E+03  0.22481618933E+03  0.91331176146E+02 0.  0.
        -11    1    4    4    0    0 -0.25291827962E+01  0.34585018398E+02 -0.59686369714E+02  0.69028856234E+02  0.00000000000E+00 0. -1.
         11    1    4    4    0    0  0.11543649498E+03  0.22454254384E+02 -0.10217590342E+03  0.15578733309E+03  0.00000000000E+00 0.  1.
        -13    1    3    3    0    0 -0.57111854321E+02  0.32181234807E+02 -0.84961974855E+02  0.10731231499E+03  0.00000000000E+00 0.  1.
         13    1    3    3    0    0  0.40148297100E+01 -0.22684367695E+02  0.68140003771E+01  0.24023530058E+02  0.00000000000E+00 0. -1.
          2    1    1    2  501    0 -0.59810287575E+02 -0.66536139894E+02  0.21006214431E+03  0.22832089892E+03  0.00000000000E+00 0. -1.
<scales pt_clust_5="13000.00000" pt_clust_6="13000.00000" pt_clust_7="13000.00000" pt_clust_8="13000.00000" pt_clust_9="89.46691"></scales>
<clustering>
<clus scale="   89.467">  1  9  2 -1</clus>
<clus scale="   90.733">  7  8 -1 -1</clus>
<clus scale="   91.331">  5  6 -1 -1</clus>
<clus scale="  123.088">  2  7  1 -1</clus>
<clus scale="   89.467">  1  5  2 -1</clus>
</clustering>
</event>
<event>
 9    1  0.1321469E-005  0.1364342E+03  0.7546771E-02  0.1232769E+00
         -1   -1    0    0    0  501 -0.00000000000E+00  0.00000000000E+00  0.12361614456E+03  0.12361614456E+03  0.00000000000E+00 0.  1.
         21   -1    0    0  501  502  0.00000000000E+00 -0.00000000000E+00 -0.90117590467E+03  0.90117590467E+03  0.00000000000E+00 0.  1.
         23    2    1    2    0    0 -0.25467337886E+02  0.38907582137E+02  0.75442411632E+02  0.12588786988E+03  0.89408126387E+02 0.  0.
         23    2    1    2    0    0  0.29592516971E+02  0.70332148328E+02 -0.16915542170E+03  0.20637496453E+03  0.90303605393E+02 0.  0.
        -11    1    3    3    0    0 -0.48630679480E+02  0.45640810932E+01  0.12299131693E+02  0.50369062562E+02  0.00000000000E+00 0.  1.
         11    1    3    3    0    0  0.23163341594E+02  0.34343501043E+02  0.63143279939E+02  0.75518807321E+02  0.00000000000E+00 0. -1.
        -13    1    4    4    0    0  0.27344338241E+02  0.92212449208E+02 -0.13534354990E+03  0.16603832426E+03  0.00000000000E+00 0.  1.
         13    1    4    4    0    0  0.22481787299E+01 -0.21880300880E+02 -0.33811871793E+02  0.40336640271E+02  0.00000000000E+00 0. -1.
         -1    1    1    2    0  502 -0.41251790851E+01 -0.10923973046E+03 -0.68384675005E+03  0.69252921481E+03  0.00000000000E+00 0.  1.
<scales pt_clust_5="13000.00000" pt_clust_6="13000.00000" pt_clust_7="13000.00000" pt_clust_8="13000.00000" pt_clust_9="102.27198"></scales>
<clustering>
<clus scale="   89.408">  5  6 -1 -1</clus>
<clus scale="   90.304">  7  8 -1 -1</clus>
<clus scale="  100.778">  1  5  2 -1</clus>
<clus scale="  102.272">  2  9  1 -1</clus>
<clus scale="  102.272">  2  5  1 -1</clus>
</clustering>
</event>
<event>
 9    1  0.1321469E-005  0.1260096E+03  0.7546771E-02  0.1235504E+00
         21   -1    0    0  501  502  0.00000000000E+00  0.00000000000E+00  0.39804642927E+03  0.39804642927E+03  0.00000000000E+00 0.  1.
          1   -1    0    0  502    0 -0.00000000000E+00 -0.00000000000E+00 -0.59658615467E+02  0.59658615467E+02  0.00000000000E+00 0. -1.
         23    2    1    2    0    0  0.71761348481E+02  0.31635121563E+02  0.10404981397E+03  0.16345894274E+03  0.98701520366E+02 0.  0.
         23    2    1    2    0    0 -0.85431020222E+02  0.13223541886E+02  0.19818660336E+03  0.23503391508E+03  0.92139514936E+02 0.  0.
        -11    1    4    4    0    0 -0.97425690626E+02  0.32427479797E+02  0.17290314225E+03  0.20109401593E+03  0.00000000000E+00 0.  1.
         11    1    4    4    0    0  0.11994670404E+02 -0.19203937911E+02  0.25283461101E+02  0.33939899155E+02  0.00000000000E+00 0. -1.
        -13    1    3    3    0    0  0.46317690887E+02  0.32862694107E+02  0.12044703710E+03  0.13316446185E+03  0.00000000000E+00 0.  1.
         13    1    3    3    0    0  0.25443657594E+02 -0.12275725444E+01 -0.16397223131E+02  0.30294480893E+02  0.00000000000E+00 0. -1.
          1    1    1    2  501    0  0.13669671741E+02 -0.44858663449E+02  0.36151396476E+02  0.59212186914E+02  0.00000000000E+00 0. -1.
<scales pt_clust_5="13000.00000" pt_clust_6="13000.00000" pt_clust_7="13000.00000" pt_clust_8="13000.00000" pt_clust_9="46.89522"></scales>
<clustering>
<clus scale="   46.895">  1  9  2 -1</clus>
<clus scale="   92.140">  5  6 -1 -1</clus>
<clus scale="   98.702">  7  8 -1 -1</clus>
<clus scale="  120.939">  1  5  2 -1</clus>
<clus scale="   46.895">  1  5  2 -1</clus>
</clustering>
</event>
<event>
 9    1  0.1321469E-005  0.1107886E+03  0.7546771E-02  0.1262394E+00
         21   -1    0    0  501  502  0.00000000000E+00  0.00000000000E+00  0.19197746056E+02  0.19197746056E+02  0.00000000000E+00 0.  1.
          2   -1    0    0  502    0 -0.00000000000E+00 -0.00000000000E+00 -0.75538089264E+03  0.75538089264E+03  0.00000000000E+00 0. -1.
         23    2    1    2    0    0 -0.63982813522E+02 -0.84301420559E+01 -0.39927401985E+03  0.41496860731E+03  0.92813438728E+02 0.  0.
         23    2    1    2    0    0  0.56773959328E+02 -0.10696058017E+02 -0.30508985961E+03  0.32179145303E+03  0.84452523311E+02 0.  0.
        -11    1    4    4    0    0  0.71155607034E+02  0.54032387092E+01 -0.27873081752E+03  0.28772067016E+03  0.00000000000E+00 0. -1.
         11    1    4    4    0    0 -0.14381647705E+02 -0.16099296726E+02 -0.26359042088E+02  0.34070782873E+02  0.00000000000E+00 0.  1.
        -11    1    3    3    0    0 -0.56775675995E+02 -0.47031744890E+02 -0.25453106218E+03  0.26499344148E+03  0.00000000000E+00 0.  1.
         11    1    3    3    0    0 -0.72071375264E+01  0.38601602834E+02 -0.14474295767E+03  0.14997516584E+03  0.00000000000E+00 0. -1.
          2    1    1    2  501    0  0.72088541932E+01  0.19126200073E+02 -0.31819267126E+02  0.37818578350E+02  0.00000000000E+00 0. -1.
<scales pt_clust_5="13000.00000" pt_clust_6="13000.00000" pt_clust_7="13000.00000" pt_clust_8="13000.00000" pt_clust_9="20.43965"></scales>
<clustering>
<clus scale="   20.440">  1  9  2 -1</clus>
<clus scale="   84.453">  5  6 -1 -1</clus>
<clus scale="   92.813">  7  8 -1 -1</clus>
<clus scale="  103.885">  1  5  2 -1</clus>
<clus scale="   20.440">  1  5  2 -1</clus>
</clustering>
</event>
<event>
 9    1  0.1321469E-005  0.1073286E+03  0.7546771E-02  0.1266337E+00
         -4   -1    0    0    0  501 -0.00000000000E+00  0.00000000000E+00  0.48852845711E+03  0.48852845711E+03  0.00000000000E+00 0.  1.
         21   -1    0    0  501  502  0.00000000000E+00 -0.00000000000E+00 -0.51891951384E+02  0.51891951384E+02  0.00000000000E+00 0.  1.
         23    2    1    2    0    0 -0.28179448186E+02 -0.39243630523E+02  0.32375990319E+03  0.33996959199E+03  0.91786190316E+02 0.  0.
         23    2    1    2    0    0  0.64868809803E+02  0.52557320403E+02  0.10286867287E+03  0.16015786116E+03  0.89990789633E+02 0.  0.
        -13    1    4    4    0    0  0.83274391166E+02  0.30877224201E+02  0.96235392144E+02  0.13095525152E+03  0.00000000000E+00 0.  1.
         13    1    4    4    0    0 -0.18405581363E+02  0.21680096202E+02  0.66332807286E+01  0.29202609642E+02  0.00000000000E+00 0. -1.
        -13    1    3    3    0    0 -0.70982176756E+01  0.30070769000E+02  0.83976434200E+02  0.89480038798E+02  0.00000000000E+00 0.  1.
         13    1    3    3    0    0 -0.21081230510E+02 -0.69314399523E+02  0.23978346899E+03  0.25048955320E+03  0.00000000000E+00 0. -1.
         -4    1    1    2    0  502 -0.36689361617E+02 -0.13313689880E+02  0.10007929669E+02  0.40292955344E+02  0.00000000000E+00 0.  1.
<scales pt_clust_5="13000.00000" pt_clust_6="13000.00000" pt_clust_7="13000.00000" pt_clust_8="13000.00000" pt_clust_9="39.03029"></scales>
<clustering>
<clus scale="   39.030">  2  9  1 -1</clus>
<clus scale="   89.991">  5  6 -1 -1</clus>
<clus scale="   91.786">  7  8 -1 -1</clus>
<clus scale="  105.797">  2  5  1 -1</clus>
<clus scale="   39.030">  2  5  1 -1</clus>
</clustering>
</event>
<event>
 9    1  0.1321469E-005  0.9403419E+02  0.7546771E-02  0.1295349E+00
         21   -1    0    0  501  502  0.00000000000E+00  0.00000000000E+00  0.32274214066E+03  0.32274214066E+03  0.00000000000E+00 0.  1.
          1   -1    0    0  502    0 -0.00000000000E+00 -0.00000000000E+00 -0.41527669121E+02  0.41527669121E+02  0.00000000000E+00 0. -1.
         23    2    1    2    0    0  0.78839212842E+01 -0.77182584900E+00  0.67595229065E+02  0.11590729118E+03  0.93822349289E+02 0.  0.
         23    2    1    2    0    0  0.16057216481E+02 -0.20373720609E+02  0.17019061633E+03  0.19445187233E+03  0.90408860596E+02 0.  0.
        -11    1    4    4    0    0  0.42591271548E+02  0.57718794625E+01  0.38870054513E+02  0.57950083196E+02  0.00000000000E+00 0. -1.
         11    1    4    4    0    0 -0.26534055067E+02 -0.26145600072E+02  0.13132056182E+03  0.13650178914E+03  0.00000000000E+00 0.  1.
        -13    1    3    3    0    0  0.36098721204E+02 -0.29938687037E+02  0.57291831995E+02  0.74039156312E+02  0.00000000000E+00 0.  1.
         13    1    3    3    0    0 -0.28214799919E+02  0.29166861188E+02  0.10303397070E+02  0.41868134867E+02  0.00000000000E+00 0. -1.
          1    1    1    2  501    0 -0.23941137765E+02  0.21145546458E+02  0.43428626143E+02  0.53910646270E+02  0.00000000000E+00 0. -1.
<scales pt_clust_5="13000.00000" pt_clust_6="13000.00000" pt_clust_7="13000.00000" pt_clust_8="13000.00000" pt_clust_9="31.94233"></scales>
<clustering>
<clus scale="   31.942">  1  9  2 -1</clus>
<clus scale="   90.409">  5  6 -1 -1</clus>
<clus scale="   90.629">  1  5  2 -1</clus>
<clus scale="   93.822">  7  8 -1 -1</clus>
<clus scale="   31.942">  1  5  2 -1</clus>
</clustering>
</event>
<event>
 9    1  0.1321469E-005  0.9622087E+02  0.7546771E-02  0.1289808E+00
          1   -1    0    0  502    0 -0.00000000000E+00  0.00000000000E+00  0.37953838066E+03  0.37953838066E+03  0.00000000000E+00 0. -1.
         21   -1    0    0  501  502  0.00000000000E+00 -0.00000000000E+00 -0.44238477529E+02  0.44238477529E+02  0.00000000000E+00 0. -1.
         23    2    1    2    0    0  0.98064518252E+01 -0.19054662251E+02  0.22967985679E+03  0.24949000483E+03  0.95043038891E+02 0.  0.
         23    2    1    2    0    0 -0.20028904748E+02 -0.16881791515E+02  0.95515910470E+02  0.13558257950E+03  0.92591548222E+02 0.  0.
        -11    1    4    4    0    0 -0.24414226898E+02  0.35743275236E+02  0.39499566860E+02  0.58599078336E+02  0.00000000000E+00 0.  1.
         11    1    4    4    0    0  0.43853221506E+01 -0.52625066751E+02  0.56016343610E+02  0.76983501169E+02  0.00000000000E+00 0. -1.
        -13    1    3    3    0    0 -0.29106378684E+02 -0.32943469692E+02  0.17787478983E+03  0.18322634727E+03  0.00000000000E+00 0.  1.
         13    1    3    3    0    0  0.38912830509E+02  0.13888807441E+02  0.51805066962E+02  0.66263657560E+02  0.00000000000E+00 0. -1.
          1    1    1    2  501    0  0.10222452923E+02  0.35936453766E+02  0.10104135867E+02  0.38704273855E+02  0.00000000000E+00 0. -1.
<scales pt_clust_5="13000.00000" pt_clust_6="13000.00000" pt_clust_7="13000.00000" pt_clust_8="13000.00000" pt_clust_9="37.36211"></scales>
<clustering>
<clus scale="   37.362">  2  9  1 -1</clus>
<clus scale="   92.592">  5  6 -1 -1</clus>
<clus scale="   93.800">  2  5  1 -1</clus>
<clus scale="   95.043">  7  8 -1 -1</clus>
<clus scale="   37.362">  2  5  1 -1</clus>
</clustering>
</event>
<event>
 9    1  0.1321469E-005  0.1038375E+03  0.7546771E-02  0.1273581E+00
          2   -1    0    0  502    0 -0.00000000000E+00  0.00000000000E+00  0.62185600419E+03  0.62185600419E+03  0.00000000000E+00 0. -1.
         21   -1    0    0  501  502  0.00000000000E+00 -0.00000000000E+00 -0.33627733623E+02  0.33627733623E+02  0.00000000000E+00 0.  1.
         23    2    1    2    0    0 -0.38478207471E+02  0.13837162356E+02  0.27675595171E+03  0.29434927815E+03  0.91518310878E+02 0.  0.
         23    2    1    2    0    0  0.37372046099E+02 -0.69488424835E+02  0.15693232867E+03  0.19687583683E+03  0.88921472835E+02 0.  0.
        -13    1    4    4    0    0  0.31484517222E+02 -0.14947817289E+02  0.13217084932E+03  0.13668886376E+03  0.00000000000E+00 0. -1.
         13    1    4    4    0    0  0.58875288774E+01 -0.54540607546E+02  0.24761479348E+02  0.60186973070E+02  0.00000000000E+00 0.  1.
        -13    1    3    3    0    0 -0.58252178692E+02 -0.16167324034E+02  0.13176023146E+03  0.14496709034E+03  0.00000000000E+00 0.  1.
         13    1    3    3    0    0  0.19773971221E+02  0.30004486389E+02  0.14499572025E+03  0.14938218781E+03  0.00000000000E+00 0. -1.
          2    1    1    2  501    0  0.11061613716E+01  0.55651262479E+02  0.15453999018E+03  0.16425862283E+03  0.00000000000E+00 0. -1.
<scales pt_clust_5="13000.00000" pt_clust_6="13000.00000" pt_clust_7="13000.00000" pt_clust_8="13000.00000" pt_clust_9="55.66228"></scales>
<clustering>
<clus scale="   55.662">  2  9  1 -1</clus>
<clus scale="   88.921">  5  6 -1 -1</clus>
<clus scale="   91.518">  7  8 -1 -1</clus>
<clus scale="  101.556">  2  5  1 -1</clus>
<clus scale="   55.662">  2  5  1 -1</clus>
</clustering>
</event>
<event>
 9    1  0.1321469E-005  0.2622489E+03  0.7546771E-02  0.1105902E+00
          2   -1    0    0  502    0 -0.00000000000E+00  0.00000000000E+00  0.10768041981E+04  0.10768041981E+04  0.00000000000E+00 0. -1.
         21   -1    0    0  501  502  0.00000000000E+00 -0.00000000000E+00 -0.10683773081E+03  0.10683773081E+03  0.00000000000E+00 0.  1.
         23    2    1    2    0    0  0.20036275899E+03  0.79247636702E+02  0.41824133247E+03  0.47945586331E+03  0.92340075586E+02 0.  0.
         23    2    1    2    0    0 -0.29819295151E+03 -0.80630028989E+02  0.32956121606E+03  0.46143214829E+03  0.94280403269E+02 0.  0.
        -11    1    4    4    0    0 -0.25190934489E+03 -0.94561937549E+02  0.30658236890E+03  0.40791301401E+03  0.00000000000E+00 0.  1.
         11    1    4    4    0    0 -0.46283606621E+02  0.13931908560E+02  0.22978847165E+02  0.53519134288E+02  0.00000000000E+00 0. -1.
        -11    1    3    3    0    0  0.94933255427E+02 -0.74421488081E+01  0.20844631722E+03  0.22916713492E+03  0.00000000000E+00 0.  1.
         11    1    3    3    0    0  0.10542950356E+03  0.86689785510E+02  0.20979501525E+03  0.25028872839E+03  0.00000000000E+00 0. -1.
          2    1    1    2  501    0  0.97830192524E+02  0.13823922874E+01  0.22216391880E+03  0.24275391736E+03  0.00000000000E+00 0. -1.
<scales pt_clust_5="13000.00000" pt_clust_6="13000.00000" pt_clust_7="13000.00000" pt_clust_8="13000.00000" pt_clust_9="97.84001"></scales>
<clustering>
<clus scale="   92.340">  7  8 -1 -1</clus>
<clus scale="   94.280">  5  6 -1 -1</clus>
<clus scale="   97.840">  2  9  1 -1</clus>
<clus scale="  261.558">  1  7  2 -1</clus>
<clus scale="   97.840">  2  5  1 -1</clus>
</clustering>
</event>
<event>
 9    1  0.1321469E-005  0.1326239E+03  0.7546771E-02  0.1243720E+00
         21   -1    0    0  501  502  0.00000000000E+00  0.00000000000E+00  0.47007494032E+02  0.47007494032E+02  0.00000000000E+00 0. -1.
          4   -1    0    0  502    0 -0.00000000000E+00 -0.00000000000E+00 -0.53930348456E+03  0.53930348456E+03  0.00000000000E+00 0. -1.
         23    2    1    2    0    0 -0.32347945215E+01 -0.11827835512E+02 -0.12854758757E+03  0.15565883662E+03  0.86918522529E+02 0.  0.
         23    2    1    2    0    0  0.93124066315E+02 -0.51923406948E+01 -0.26007200812E+03  0.29238225216E+03  0.95660231249E+02 0.  0.
        -11    1    4    4    0    0  0.29696096816E+02 -0.41230691352E+02 -0.55768935923E+02  0.75445359628E+02  0.00000000000E+00 0.  1.
         11    1    4    4    0    0  0.63427969499E+02  0.36038350657E+02 -0.20430307220E+03  0.21693689254E+03  0.00000000000E+00 0. -1.
        -13    1    3    3    0    0  0.41653440265E+02 -0.94136486656E+01 -0.58525595124E+02  0.72449093519E+02  0.00000000000E+00 0. -1.
         13    1    3    3    0    0 -0.44888234787E+02 -0.24141868468E+01 -0.70021992447E+02  0.83209743099E+02  0.00000000000E+00 0.  1.
          4    1    1    2  501    0 -0.89889271793E+02  0.17020176207E+02 -0.10367639483E+03  0.13826988981E+03  0.00000000000E+00 0. -1.
<scales pt_clust_5="13000.00000" pt_clust_6="13000.00000" pt_clust_7="13000.00000" pt_clust_8="13000.00000" pt_clust_9="91.85972"></scales>
<clustering>
<clus scale="   86.919">  7  8 -1 -1</clus>
<clus scale="   87.779">  2  7  1 -1</clus>
<clus scale="   91.860">  1  9  2 -1</clus>
<clus scale="   95.660">  5  6 -1 -1</clus>
<clus scale="   91.860">  1  5  2 -1</clus>
</clustering>
</event>
<event>
 9    1  0.1321469E-005  0.9757071E+02  0.7546771E-02  0.1295298E+00
          1   -1    0    0  502    0 -0.00000000000E+00  0.00000000000E+00  0.48878367189E+02  0.48878367189E+02  0.00000000000E+00 0. -1.
         21   -1    0    0  501  502  0.00000000000E+00 -0.00000000000E+00 -0.50206987122E+03  0.50206987122E+03  0.00000000000E+00 0. -1.
         23    2    1    2    0    0  0.17000682477E+02  0.24812438595E+02 -0.17789177729E+02  0.98203108733E+02  0.91775352937E+02 0.  0.
         23    2    1    2    0    0 -0.44542198952E+02 -0.24919889263E+02 -0.25875134386E+03  0.27396001767E+03  0.74140575712E+02 0.  0.
        -11    1    4    4    0    0 -0.24579759733E+02  0.12556653435E+02 -0.27936265289E+02  0.39271733502E+02  0.00000000000E+00 0. -1.
         11    1    4    4    0    0 -0.19962439219E+02 -0.37476542699E+02 -0.23081507857E+03  0.23468828417E+03  0.00000000000E+00 0.  1.
        -13    1    3    3    0    0 -0.28043426934E+02 -0.10380986122E+02 -0.27017308363E+02  0.40300541165E+02  0.00000000000E+00 0.  1.
         13    1    3    3    0    0  0.45044109411E+02  0.35193424716E+02  0.92281306338E+01  0.57902567567E+02  0.00000000000E+00 0. -1.
          1    1    1    2  501    0  0.27541516475E+02  0.10745066889E+00 -0.17665098245E+03  0.17878511201E+03  0.00000000000E+00 0. -1.
<scales pt_clust_5="13000.00000" pt_clust_6="13000.00000" pt_clust_7="13000.00000" pt_clust_8="13000.00000" pt_clust_9="27.54173"></scales>
<clustering>
<clus scale="   27.542">  2  9  1 -1</clus>
<clus scale="   74.141">  5  6 -1 -1</clus>
<clus scale="   81.204">  2  5  1 -1</clus>
<clus scale="   91.775">  7  8 -1 -1</clus>
<clus scale="   27.542">  2  5  1 -1</clus>
</clustering>
</event>
<event>
 9    1  0.1321469E-005  0.1073801E+03  0.7546771E-02  0.1266189E+00
         21   -1    0    0  501  502  0.00000000000E+00  0.00000000000E+00  0.30137812290E+02  0.30137812290E+02  0.00000000000E+00 0. -1.
         -1   -1    0    0    0  501 -0.00000000000E+00 -0.00000000000E+00 -0.56538598217E+03  0.56538598217E+03  0.00000000000E+00 0.  1.
         23    2    1    2    0    0 -0.51824822054E+02 -0.28056535921E+01 -0.28387656693E+03  0.30282093140E+03  0.91765611042E+02 0.  0.
         23    2    1    2    0    0  0.61522340697E+02  0.22674085931E+02 -0.13884134294E+03  0.17802132187E+03  0.90086402710E+02 0.  0.
        -11    1    3    3    0    0 -0.78134422335E+02  0.38461399572E+00 -0.19482219668E+03  0.20990670357E+03  0.00000000000E+00 0. -1.
         11    1    3    3    0    0  0.26309600280E+02 -0.31902675879E+01 -0.89054370246E+02  0.92914227835E+02  0.00000000000E+00 0.  1.
        -13    1    4    4    0    0  0.80669322325E+02  0.33265915507E+02 -0.12382890569E+03  0.15148517612E+03  0.00000000000E+00 0.  1.
         13    1    4    4    0    0 -0.19146981627E+02 -0.10591829576E+02 -0.15012437249E+02  0.26536145752E+02  0.00000000000E+00 0. -1.
         -1    1    1    2    0  502 -0.96975186434E+01 -0.19868432339E+02 -0.11253026001E+03  0.11468154118E+03  0.00000000000E+00 0.  1.
<scales pt_clust_5="13000.00000" pt_clust_6="13000.00000" pt_clust_7="13000.00000" pt_clust_8="13000.00000" pt_clust_9="22.10875"></scales>
<clustering>
<clus scale="   22.109">  1  9  2 -1</clus>
<clus scale="   90.086">  7  8 -1 -1</clus>
<clus scale="   91.766">  5  6 -1 -1</clus>
<clus scale="  105.949">  1  7  2 -1</clus>
<clus scale="   22.109">  1  5  2 -1</clus>
</clustering>
</event>
<event>
 9    1  0.1321469E-005  0.9110617E+02  0.7546771E-02  0.1300291E+00
         21   -1    0    0  501  502  0.00000000000E+00  0.00000000000E+00  0.52518379737E+02  0.52518379737E+02  0.00000000000E+00 0. -1.
         -3   -1    0    0    0  501 -0.00000000000E+00 -0.00000000000E+00 -0.41328141582E+03  0.41328141582E+03  0.00000000000E+00 0.  1.
         23    2    1    2    0    0 -0.82701220673E+01 -0.39976882976E+01 -0.29584553787E+03  0.30965900262E+03  0.90993072226E+02 0.  0.
         23    2    1    2    0    0 -0.21885098279E+02  0.57857113917E+01 -0.79299367061E+02  0.12268376838E+03  0.90832182753E+02 0.  0.
        -11    1    3    3    0    0  0.15130650233E+02 -0.35940356416E+02 -0.22626206335E+03  0.22959783777E+03  0.00000000000E+00 0. -1.
         11    1    3    3    0    0 -0.23400772301E+02  0.31942668119E+02 -0.69583474521E+02  0.80061164850E+02  0.00000000000E+00 0.  1.
        -11    1    4    4    0    0 -0.29923377672E+01  0.31425338571E+02  0.55521794843E+01  0.32052030928E+02  0.00000000000E+00 0. -1.
         11    1    4    4    0    0 -0.18892760512E+02 -0.25639627179E+02 -0.84851546545E+02  0.90631737448E+02  0.00000000000E+00 0.  1.
         -3    1    1    2    0  502  0.30155220346E+02 -0.17880230941E+01  0.14381868853E+02  0.33457024560E+02  0.00000000000E+00 0.  1.
<scales pt_clust_5="13000.00000" pt_clust_6="13000.00000" pt_clust_7="13000.00000" pt_clust_8="13000.00000" pt_clust_9="30.20818"></scales>
<clustering>
<clus scale="   30.208">  1  9  2 -1</clus>
<clus scale="   90.832">  7  8 -1 -1</clus>
<clus scale="   90.945">  1  7  2 -1</clus>
<clus scale="   90.993">  5  6 -1 -1</clus>
<clus scale="   30.208">  1  5  2 -1</clus>
</clustering>
</event>
<event>
 9    1  0.1321469E-005  0.9049983E+02  0.7546771E-02  0.1303885E+00
          2   -1    0    0  502    0 -0.00000000000E+00  0.00000000000E+00  0.36584648010E+03  0.36584648010E+03  0.00000000000E+00 0. -1.
         21   -1    0    0  501  502  0.00000000000E+00 -0.00000000000E+00 -0.16913616609E+03  0.16913616609E+03  0.00000000000E+00 0. -1.
         23    2    1    2    0    0  0.13555115347E+02  0.30638343003E+02  0.17187255155E+03  0.19539918681E+03  0.86707664109E+02 0.  0.
         23    2    1    2    0    0  0.90265510054E+01  0.48128140920E+02  0.15488143950E+03  0.18587773867E+03  0.90357494770E+02 0.  0.
        -11    1    4    4    0    0  0.40643954523E+02  0.50756405770E+02  0.13071690500E+03  0.14599675688E+03  0.00000000000E+00 0. -1.
         11    1    4    4    0    0 -0.31617403518E+02 -0.26282648502E+01  0.24164534498E+02  0.39880981794E+02  0.00000000000E+00 0.  1.
        -13    1    3    3    0    0 -0.54396591909E+01 -0.21435223092E+02  0.11053957956E+03  0.11273001965E+03  0.00000000000E+00 0.  1.
         13    1    3    3    0    0  0.18994774538E+02  0.52073566095E+02  0.61332971990E+02  0.82669167158E+02  0.00000000000E+00 0. -1.
          2    1    1    2  501    0 -0.22581666352E+02 -0.78766483923E+02 -0.13004367703E+03  0.15370572071E+03  0.00000000000E+00 0. -1.
<scales pt_clust_5="13000.00000" pt_clust_6="13000.00000" pt_clust_7="13000.00000" pt_clust_8="13000.00000" pt_clust_9="81.93955"></scales>
<clustering>
<clus scale="   81.940">  2  9  1 -1</clus>
<clus scale="   86.708">  7  8 -1 -1</clus>
<clus scale="   86.856">  1  7  2 -1</clus>
<clus scale="   90.357">  5  6 -1 -1</clus>
<clus scale="   81.940">  2  5  1 -1</clus>
</clustering>
</event>
<event>
 9    1  0.1321469E-005  0.2493896E+03  0.7546771E-02  0.1114372E+00
         21   -1    0    0  501  502  0.00000000000E+00  0.00000000000E+00  0.22667346171E+03  0.22667346171E+03  0.00000000000E+00 0. -1.
         -3   -1    0    0    0  501 -0.00000000000E+00 -0.00000000000E+00 -0.35466425833E+03  0.35466425833E+03  0.00000000000E+00 0.  1.
         23    2    1    2    0    0  0.23739016242E+03 -0.35581766563E+02 -0.18310440640E+03  0.31689632553E+03  0.96311505874E+02 0.  0.
         23    2    1    2    0    0 -0.20820783909E+03  0.27973438081E+02  0.37700004758E+02  0.22961714582E+03  0.84674233383E+02 0.  0.
        -11    1    4    4    0    0 -0.14313109481E+03  0.54160699264E+02  0.43866600394E+02  0.15919852473E+03  0.00000000000E+00 0.  1.
         11    1    4    4    0    0 -0.65076744280E+02 -0.26187261183E+02 -0.61665956360E+01  0.70418621089E+02  0.00000000000E+00 0. -1.
        -13    1    3    3    0    0  0.13192961845E+03  0.10462006279E+02 -0.14346973026E+03  0.19518822019E+03  0.00000000000E+00 0.  1.
         13    1    3    3    0    0  0.10546054397E+03 -0.46043772842E+02 -0.39634676137E+02  0.12170810534E+03  0.00000000000E+00 0. -1.
         -3    1    1    2    0  502 -0.29182323334E+02  0.76083284819E+01  0.17413605017E+02  0.34824248695E+02  0.00000000000E+00 0.  1.
<scales pt_clust_5="13000.00000" pt_clust_6="13000.00000" pt_clust_7="13000.00000" pt_clust_8="13000.00000" pt_clust_9="30.15783"></scales>
<clustering>
<clus scale="   30.158">  1  9  2 -1</clus>
<clus scale="   84.674">  5  6 -1 -1</clus>
<clus scale="   96.312">  7  8 -1 -1</clus>
<clus scale="  245.131">  1  5  2 -1</clus>
<clus scale="   30.158">  1  5  2 -1</clus>
</clustering>
</event>
<event>
 9    1  0.1321469E-005  0.9208782E+02  0.7546771E-02  0.1300250E+00
         21   -1    0    0  501  502  0.00000000000E+00  0.00000000000E+00  0.53789133532E+02  0.53789133532E+02  0.00000000000E+00 0.  1.
          3   -1    0    0  502    0 -0.00000000000E+00 -0.00000000000E+00 -0.30794845696E+03  0.30794845696E+03  0.00000000000E+00 0. -1.
         23    2    1    2    0    0  0.10756490762E+02 -0.22295012195E+02 -0.20159916428E+03  0.22056231576E+03  0.85981058576E+02 0.  0.
         23    2    1    2    0    0  0.18754731688E+02  0.10633895440E+02 -0.57620021008E+02  0.10904279745E+03  0.90030245816E+02 0.  0.
        -11    1    4    4    0    0  0.35681269599E+02  0.41874203034E+02 -0.23639722540E+02  0.59878530056E+02  0.00000000000E+00 0.  1.
         11    1    4    4    0    0 -0.16926537911E+02 -0.31240307594E+02 -0.33980298468E+02  0.49164267393E+02  0.00000000000E+00 0. -1.
        -13    1    3    3    0    0 -0.36929094682E+02 -0.72605709279E+01 -0.65132594986E+02  0.75224522955E+02  0.00000000000E+00 0. -1.
         13    1    3    3    0    0  0.47685585444E+02 -0.15034441267E+02 -0.13646656929E+03  0.14533779280E+03  0.00000000000E+00 0.  1.
          3    1    1    2  501    0 -0.29511222450E+02  0.11661116756E+02  0.50598618557E+01  0.32132477285E+02  0.00000000000E+00 0. -1.
<scales pt_clust_5="13000.00000" pt_clust_6="13000.00000" pt_clust_7="13000.00000" pt_clust_8="13000.00000" pt_clust_9="31.73159"></scales>
<clustering>
<clus scale="   31.732">  1  9  2 -1</clus>
<clus scale="   85.981">  7  8 -1 -1</clus>
<clus scale="   88.133">  2  7  1 -1</clus>
<clus scale="   90.030">  5  6 -1 -1</clus>
<clus scale="   31.732">  1  5  2 -1</clus>
</clustering>
</event>
<event>
 9    1  0.1321469E-005  0.9992596E+02  0.7546771E-02  0.1280693E+00
         21   -1    0    0  501  502  0.00000000000E+00  0.00000000000E+00  0.43976237854E+02  0.43976237854E+02  0.00000000000E+00 0. -1.
          2   -1    0    0  502    0 -0.00000000000E+00 -0.00000000000E+00 -0.47883289407E+03  0.47883289407E+03  0.00000000000E+00 0. -1.
         23    2    1    2    0    0 -0.21601134679E+02 -0.40536633524E+02 -0.26786727302E+03  0.28673998174E+03  0.91417249440E+02 0.  0.
         23    2    1    2    0    0  0.43115752592E+02  0.14300249593E+01 -0.16195680961E+03  0.19115220000E+03  0.91913776402E+02 0.  0.
        -11    1    3    3    0    0  0.27954080405E+02 -0.28369956500E+02 -0.18643097053E+03  0.19063785515E+03  0.00000000000E+00 0.  1.
         11    1    3    3    0    0 -0.49555215083E+02 -0.12166677024E+02 -0.81436302493E+02  0.96102126592E+02  0.00000000000E+00 0. -1.
        -13    1    4    4    0    0 -0.21395761065E+02 -0.18093109127E+02 -0.21356338032E+02  0.35231127765E+02  0.00000000000E+00 0.  1.
         13    1    4    4    0    0  0.64511513657E+02  0.19523134086E+02 -0.14060047157E+03  0.15592107223E+03  0.00000000000E+00 0. -1.
          2    1    1    2  501    0 -0.21514617914E+02  0.39106608564E+02 -0.50325735894E+01  0.44916950189E+02  0.00000000000E+00 0. -1.
<scales pt_clust_5="13000.00000" pt_clust_6="13000.00000" pt_clust_7="13000.00000" pt_clust_8="13000.00000" pt_clust_9="44.63413"></scales>
<clustering>
<clus scale="   44.634">  1  9  2 -1</clus>
<clus scale="   91.417">  5  6 -1 -1</clus>
<clus scale="   91.914">  7  8 -1 -1</clus>
<clus scale="   99.469">  2  5  1 -1</clus>
<clus scale="   44.634">  1  5  2 -1</clus>
</clustering>
</event>
<event>
 9    1  0.1321469E-005  0.2681921E+03  0.7546771E-02  0.1102383E+00
         21   -1    0    0  501  502  0.00000000000E+00  0.00000000000E+00  0.12640868160E+04  0.12640868160E+04  0.00000000000E+00 0. -1.
          3   -1    0    0  502    0 -0.00000000000E+00 -0.00000000000E+00 -0.18734048323E+03  0.18734048323E+03  0.00000000000E+00 0. -1.
         23    2    1    2    0    0  0.27390087468E+03 -0.99921289106E+02  0.64177397733E+02  0.31228985893E+03  0.91652956536E+02 0.  0.
         23    2    1    2    0    0 -0.16541053029E+03  0.13286518612E+03  0.16386357046E+03  0.28289200176E+03  0.90348291193E+02 0.  0.
        -13    1    3    3    0    0  0.60961950709E+02 -0.47350345750E+02 -0.15873049435E+02  0.78805890485E+02  0.00000000000E+00 0.  1.
         13    1    3    3    0    0  0.21293892397E+03 -0.52570943356E+02  0.80050447168E+02  0.23348396844E+03  0.00000000000E+00 0. -1.
        -13    1    4    4    0    0 -0.25392234083E+02  0.86158223261E+01  0.66897086584E+02  0.72070924370E+02  0.00000000000E+00 0. -1.
         13    1    4    4    0    0 -0.14001829621E+03  0.12424936379E+03  0.96966483872E+02  0.21082107739E+03  0.00000000000E+00 0.  1.
          3    1    1    2  501    0 -0.10849034439E+03 -0.32943897009E+02  0.84870536461E+03  0.85624543859E+03  0.00000000000E+00 0. -1.
<scales pt_clust_5="13000.00000" pt_clust_6="13000.00000" pt_clust_7="13000.00000" pt_clust_8="13000.00000" pt_clust_9="113.38190"></scales>
<clustering>
<clus scale="   90.348">  7  8 -1 -1</clus>
<clus scale="   91.653">  5  6 -1 -1</clus>
<clus scale="  113.382">  1  9  2 -1</clus>
<clus scale="  267.749">  1  7  2 -1</clus>
<clus scale="  113.382">  1  5  2 -1</clus>
</clustering>
</event>
<event>
 9    1  0.1321469E-005  0.1156185E+03  0.7546771E-02  0.1251310E+00
         21   -1    0    0  501  502  0.00000000000E+00  0.00000000000E+00  0.49795510077E+02  0.49795510077E+02  0.00000000000E+00 0.  1.
          2   -1    0    0  502    0 -0.00000000000E+00 -0.00000000000E+00 -0.54881556590E+03  0.54881556590E+03  0.00000000000E+00 0. -1.
         23    2    1    2    0    0  0.56344706035E+02  0.12840406295E+02 -0.35802538941E+03  0.37451399629E+03  0.93482362106E+02 0.  0.
         23    2    1    2    0    0 -0.81345076374E+02 -0.43365453235E+02 -0.12162534041E+03  0.18014292405E+03  0.95713978446E+02 0.  0.
        -11    1    4    4    0    0 -0.25478054473E+02 -0.67397513118E+02 -0.64512741592E+02  0.96713235195E+02  0.00000000000E+00 0.  1.
         11    1    4    4    0    0 -0.55867021901E+02  0.24032059883E+02 -0.57112598818E+02  0.83429688853E+02  0.00000000000E+00 0. -1.
        -13    1    3    3    0    0  0.58673940827E+01  0.30842403538E+02 -0.34772241691E+02  0.46848574808E+02  0.00000000000E+00 0.  1.
         13    1    3    3    0    0  0.50477311953E+02 -0.18001997243E+02 -0.32325314772E+03  0.32766542148E+03  0.00000000000E+00 0. -1.
          2    1    1    2  501    0  0.25000370339E+02  0.30525046940E+02 -0.19369326002E+02  0.43954155635E+02  0.00000000000E+00 0. -1.
<scales pt_clust_5="13000.00000" pt_clust_6="13000.00000" pt_clust_7="13000.00000" pt_clust_8="13000.00000" pt_clust_9="39.45627"></scales>
<clustering>
<clus scale="   39.456">  1  9  2 -1</clus>
<clus scale="   93.482">  7  8 -1 -1</clus>
<clus scale="   95.714">  5  6 -1 -1</clus>
<clus scale="  113.778">  2  7  1 -1</clus>
<clus scale="   39.456">  1  5  2 -1</clus>
</clustering>
</event>
<event>
 9    1  0.1321469E-005  0.1178608E+03  0.7546771E-02  0.1248085E+00
          3   -1    0    0  502    0 -0.00000000000E+00  0.00000000000E+00  0.19777388360E+03  0.19777388360E+03  0.00000000000E+00 0. -1.
         21   -1    0    0  501  502  0.00000000000E+00 -0.00000000000E+00 -0.21241648454E+03  0.21241648454E+03  0.00000000000E+00 0.  1.
         23    2    1    2    0    0  0.17755652392E+01  0.79179666781E+02  0.13428962656E+03  0.17951402745E+03  0.88988819460E+02 0.  0.
         23    2    1    2    0    0 -0.36947663204E+02 -0.42754254799E+02 -0.50800131819E+02  0.12025082137E+03  0.93201665900E+02 0.  0.
        -11    1    4    4    0    0  0.31440337273E+02 -0.90184206736E+01 -0.16527612088E+02  0.36646809965E+02  0.00000000000E+00 0. -1.
         11    1    4    4    0    0 -0.68388000477E+02 -0.33735834126E+02 -0.34272519731E+02  0.83604011400E+02  0.00000000000E+00 0.  1.
        -13    1    3    3    0    0  0.29063201973E+02  0.12175239173E+02  0.88379664436E+02  0.93828946726E+02  0.00000000000E+00 0. -1.
         13    1    3    3    0    0 -0.27287636734E+02  0.67004427608E+02  0.45909962120E+02  0.85685080729E+02  0.00000000000E+00 0.  1.
          3    1    1    2  501    0  0.35172097965E+02 -0.36425411981E+02 -0.98132095682E+02  0.11042551932E+03  0.00000000000E+00 0. -1.
<scales pt_clust_5="13000.00000" pt_clust_6="13000.00000" pt_clust_7="13000.00000" pt_clust_8="13000.00000" pt_clust_9="50.63484"></scales>
<clustering>
<clus scale="   50.635">  2  9  1 -1</clus>
<clus scale="   88.989">  7  8 -1 -1</clus>
<clus scale="   93.202">  5  6 -1 -1</clus>
<clus scale="  114.558">  1  7  2 -1</clus>
<clus scale="   50.635">  2  5  1 -1</clus>
</clustering>
</event>
<event>
 9    1  0.1321469E-005  0.1408768E+03  0.7546771E-02  0.1221942E+00
          1   -1    0    0  502    0 -0.00000000000E+00  0.00000000000E+00  0.13475362731E+03  0.13475362731E+03  0.00000000000E+00 0. -1.
         21   -1    0    0  501  502  0.00000000000E+00 -0.00000000000E+00 -0.28088558698E+03  0.28088558698E+03  0.00000000000E+00 0. -1.
         23    2    1    2    0    0  0.26405284018E+02 -0.61840221001E+02  0.27389593160E+01  0.11462083827E+03  0.92784603839E+02 0.  0.
         23    2    1    2    0    0 -0.98685388027E+02 -0.31558277246E+02 -0.46771484567E+02  0.14490307433E+03  0.89858769801E+02 0.  0.
        -11    1    3    3    0    0  0.43732670117E+02  0.33800316869E+01  0.14341097029E+02  0.46148002273E+02  0.00000000000E+00 0.  1.
         11    1    3    3    0    0 -0.17327386099E+02 -0.65220252688E+02 -0.11602137713E+02  0.68472835995E+02  0.00000000000E+00 0. -1.
        -13    1    4    4    0    0 -0.53827988375E+02  0.21725003781E+02 -0.47875818084E+02  0.75243086586E+02  0.00000000000E+00 0.  1.
         13    1    4    4    0    0 -0.44857399652E+02 -0.53283281027E+02  0.11043335166E+01  0.69659987748E+02  0.00000000000E+00 0. -1.
          1    1    1    2  501    0  0.72280104010E+02  0.93398498247E+02 -0.10209943443E+03  0.15611530169E+03  0.00000000000E+00 0. -1.
<scales pt_clust_5="13000.00000" pt_clust_6="13000.00000" pt_clust_7="13000.00000" pt_clust_8="13000.00000" pt_clust_9="108.49741"></scales>
<clustering>
<clus scale="   89.859">  7  8 -1 -1</clus>
<clus scale="   92.785">  5  6 -1 -1</clus>
<clus scale="  114.588">  1  5  2 -1</clus>
<clus scale="  108.497">  2  9  1 -1</clus>
<clus scale="  108.497">  2  5  1 -1</clus>
</clustering>
</event>
<event>
 9    1  0.1321469E-005  0.1377325E+03  0.7546771E-02  0.1216935E+00
         21   -1    0    0  501  502  0.00000000000E+00  0.00000000000E+00  0.66403670366E+02  0.66403670366E+02  0.00000000000E+00 0. -1.
          2   -1    0    0  502    0 -0.00000000000E+00 -0.00000000000E+00 -0.66017933359E+03  0.66017933359E+03  0.00000000000E+00 0. -1.
         23    2    1    2    0    0  0.17096945806E+02  0.94861346301E+02 -0.47423697492E+03  0.49211916541E+03  0.89384472920E+02 0.  0.
         23    2    1    2    0    0 -0.26213148563E+02 -0.13160018050E+03 -0.10707654136E+03  0.19461221126E+03  0.91666735488E+02 0.  0.
        -13    1    3    3    0    0  0.50792025081E+02  0.72566470781E+02 -0.27814769542E+03  0.29191071060E+03  0.00000000000E+00 0.  1.
         13    1    3    3    0    0 -0.33695079276E+02  0.22294875520E+02 -0.19608927950E+03  0.20020845481E+03  0.00000000000E+00 0. -1.
        -13    1    4    4    0    0  0.22976688396E+02 -0.12152669777E+02  0.12519502924E+01  0.26022739515E+02  0.00000000000E+00 0.  1.
         13    1    4    4    0    0 -0.49189836959E+02 -0.11944751073E+03 -0.10832849165E+03  0.16858947174E+03  0.00000000000E+00 0. -1.
          2    1    1    2  501    0  0.91162027575E+01  0.36738834201E+02 -0.12462146939E+02  0.39851627288E+02  0.00000000000E+00 0. -1.
<scales pt_clust_5="13000.00000" pt_clust_6="13000.00000" pt_clust_7="13000.00000" pt_clust_8="13000.00000" pt_clust_9="37.85297"></scales>
<clustering>
<clus scale="   37.853">  1  9  2 -1</clus>
<clus scale="   89.384">  5  6 -1 -1</clus>
<clus scale="   91.667">  7  8 -1 -1</clus>
<clus scale="  136.224">  2  5  1 -1</clus>
<clus scale="   37.853">  1  5  2 -1</clus>
</clustering>
</event>
<event>
 9    1  0.1321469E-005  0.1900231E+03  0.7546771E-02  0.1158848E+00
         21   -1    0    0  501  502  0.00000000000E+00  0.00000000000E+00  0.13599251977E+03  0.13599251977E+03  0.00000000000E+00 0.  1.
          1   -1    0    0  502    0 -0.00000000000E+00 -0.00000000000E+00 -0.36109132673E+03  0.36109132673E+03  0.00000000000E+00 0. -1.
         23    2    1    2    0    0  0.92486277439E+02  0.15288705654E+03 -0.16585405063E+03  0.26000970744E+03  0.90384281169E+02 0.  0.
         23    2    1    2    0    0 -0.79692616488E+02 -0.12622881274E+03 -0.86812692628E+02  0.19664728122E+03  0.94069566401E+02 0.  0.
        -13    1    3    3    0    0  0.66440690529E+02  0.12757809790E+03 -0.75117107942E+02  0.16227481729E+03  0.00000000000E+00 0.  1.
         13    1    3    3    0    0  0.26045586911E+02  0.25308958642E+02 -0.90736942686E+02  0.97734890152E+02  0.00000000000E+00 0. -1.
        -13    1    4    4    0    0 -0.72836598995E+02 -0.62501556552E+02 -0.91206565267E+02  0.13240185902E+03  0.00000000000E+00 0.  1.
         13    1    4    4    0    0 -0.68560174927E+01 -0.63727256188E+02  0.43938726395E+01  0.64245422202E+02  0.00000000000E+00 0. -1.
          1    1    1    2  501    0 -0.12793660952E+02 -0.26658243798E+02  0.27567936294E+02  0.40426857836E+02  0.00000000000E+00 0. -1.
<scales pt_clust_5="13000.00000" pt_clust_6="13000.00000" pt_clust_7="13000.00000" pt_clust_8="13000.00000" pt_clust_9="29.56924"></scales>
<clustering>
<clus scale="   29.569">  1  9  2 -1</clus>
<clus scale="   90.384">  5  6 -1 -1</clus>
<clus scale="   94.070">  7  8 -1 -1</clus>
<clus scale="  188.226">  2  5  1 -1</clus>
<clus scale="   29.569">  1  5  2 -1</clus>
</clustering>
</event>
<event>
 9    1  0.1321469E-005  0.1153908E+03  0.7546771E-02  0.1252175E+00
          1   -1    0    0  502    0 -0.00000000000E+00  0.00000000000E+00  0.30077059316E+03  0.30077059316E+03  0.00000000000E+00 0. -1.
         21   -1    0    0  501  502  0.00000000000E+00 -0.00000000000E+00 -0.87042908047E+02  0.87042908047E+02  0.00000000000E+00 0.  1.
         23    2    1    2    0    0  0.26922912446E+02 -0.65186006032E+02  0.22757723171E+03  0.25458734960E+03  0.89717688269E+02 0.  0.
         23    2    1    2    0    0 -0.36498675279E+02  0.45484652103E+02 -0.69616738759E+01  0.11026354350E+03  0.93319758081E+02 0.  0.
        -13    1    3    3    0    0 -0.20582156829E+02  0.52973314146E+01  0.93139128669E+02  0.95533157537E+02  0.00000000000E+00 0. -1.
         13    1    3    3    0    0  0.47505069276E+02 -0.70483337446E+02  0.13443810304E+03  0.15905419206E+03  0.00000000000E+00 0.  1.
        -13    1    4    4    0    0  0.15189814703E+02  0.51249848849E+02 -0.19264869993E+02  0.56819122606E+02  0.00000000000E+00 0.  1.
         13    1    4    4    0    0 -0.51688489982E+02 -0.57651967466E+01  0.12303196118E+02  0.53444420896E+02  0.00000000000E+00 0. -1.
          1    1    1    2  501    0  0.95757628324E+01  0.19701353929E+02 -0.68878727173E+01  0.22962608106E+02  0.00000000000E+00 0. -1.
<scales pt_clust_5="13000.00000" pt_clust_6="13000.00000" pt_clust_7="13000.00000" pt_clust_8="13000.00000" pt_clust_9="21.90522"></scales>
<clustering>
<clus scale="   21.905">  2  9  1 -1</clus>
<clus scale="   89.718">  5  6 -1 -1</clus>
<clus scale="   93.320">  7  8 -1 -1</clus>
<clus scale="  112.498">  1  5  2 -1</clus>
<clus scale="   21.905">  2  5  1 -1</clus>
</clustering>
</event>
<event>
 9    1  0.1321469E-005  0.1002609E+03  0.7546771E-02  0.1279793E+00
         21   -1    0    0  501  502  0.00000000000E+00  0.00000000000E+00  0.63542919410E+02  0.63542919410E+02  0.00000000000E+00 0.  1.
          2   -1    0    0  502    0 -0.00000000000E+00 -0.00000000000E+00 -0.37733958398E+03  0.37733958398E+03  0.00000000000E+00 0.  1.
         23    2    1    2    0    0  0.25057739123E+02 -0.14602001170E+02 -0.16596457155E+03  0.19169426018E+03  0.91440372088E+02 0.  0.
         23    2    1    2    0    0 -0.67704799324E+02 -0.35466108192E+02 -0.13849469179E+03  0.18275952668E+03  0.91534038778E+02 0.  0.
        -11    1    4    4    0    0 -0.83483125619E+02 -0.12284084402E+02 -0.73236636224E+02  0.11173153484E+03  0.00000000000E+00 0.  1.
         11    1    4    4    0    0  0.15778326295E+02 -0.23182023790E+02 -0.65258055570E+02  0.71027991837E+02  0.00000000000E+00 0. -1.
        -11    1    3    3    0    0 -0.12402178986E+02 -0.42433713169E+02 -0.50280693043E+02  0.66952088465E+02  0.00000000000E+00 0.  1.
         11    1    3    3    0    0  0.37459918108E+02  0.27831711999E+02 -0.11568387851E+03  0.12474217171E+03  0.00000000000E+00 0. -1.
          2    1    1    2  501    0  0.42647060202E+02  0.50068109362E+02 -0.93374012312E+01  0.66428716537E+02  0.00000000000E+00 0.  1.
<scales pt_clust_5="13000.00000" pt_clust_6="13000.00000" pt_clust_7="13000.00000" pt_clust_8="13000.00000" pt_clust_9="65.76920"></scales>
<clustering>
<clus scale="   65.769">  1  9  2 -1</clus>
<clus scale="   91.440">  7  8 -1 -1</clus>
<clus scale="   91.534">  5  6 -1 -1</clus>
<clus scale="  100.175">  2  7  1 -1</clus>
<clus scale="   65.769">  1  5  2 -1</clus>
</clustering>
</event>
<event>
 9    1  0.1321469E-005  0.9344474E+02  0.7546771E-02  0.1295143E+00
         -1   -1    0    0    0  501 -0.00000000000E+00  0.00000000000E+00  0.60494989234E+02  0.60494989234E+02  0.00000000000E+00 0.  1.
         21   -1    0    0  501  502  0.00000000000E+00 -0.00000000000E+00 -0.27571691525E+03  0.27571691525E+03  0.00000000000E+00 0. -1.
         23    2    1    2    0    0  0.25317115066E+01  0.10787595122E+02 -0.85771938323E+01  0.92925468202E+02  0.91862901189E+02 0.  0.
         23    2    1    2    0    0 -0.12951456635E+02 -0.31676695991E+02 -0.12531105517E+03  0.15866910567E+03  0.91114605020E+02 0.  0.
        -11    1    3    3    0    0  0.35633677560E+01  0.36680266965E+02  0.29266333150E+02  0.47060151194E+02  0.00000000000E+00 0.  1.
         11    1    3    3    0    0 -0.10316562494E+01 -0.25892671842E+02 -0.37843526982E+02  0.45865317008E+02  0.00000000000E+00 0. -1.
        -13    1    4    4    0    0 -0.38412225133E+02  0.98296616038E+01 -0.90522659897E+02  0.98825468588E+02  0.00000000000E+00 0. -1.
         13    1    4    4    0    0  0.25460768498E+02 -0.41506357594E+02 -0.34788395274E+02  0.59843637081E+02  0.00000000000E+00 0.  1.
         -1    1    1    2    0  502  0.10419745128E+02  0.20889100868E+02 -0.81333677016E+02  0.84617330616E+02  0.00000000000E+00 0.  1.
<scales pt_clust_5="13000.00000" pt_clust_6="13000.00000" pt_clust_7="13000.00000" pt_clust_8="13000.00000" pt_clust_9="23.34364"></scales>
<clustering>
<clus scale="   23.344">  2  9  1 -1</clus>
<clus scale="   91.115">  7  8 -1 -1</clus>
<clus scale="   91.863">  5  6 -1 -1</clus>
<clus scale="   92.709">  2  7  1 -1</clus>
<clus scale="   23.344">  2  5  1 -1</clus>
</clustering>
</event>
<event>
 9    1  0.1321469E-005  0.1107275E+03  0.7546771E-02  0.1259617E+00
          2   -1    0    0  502    0 -0.00000000000E+00  0.00000000000E+00  0.37232290367E+03  0.37232290367E+03  0.00000000000E+00 0. -1.
         21   -1    0    0  501  502  0.00000000000E+00 -0.00000000000E+00 -0.81597797011E+02  0.81597797011E+02  0.00000000000E+00 0.  1.
         23    2    1    2    0    0  0.37931196808E+00 -0.54999254621E+02  0.26187993054E+03  0.28323673997E+03  0.92827210265E+02 0.  0.
         23    2    1    2    0    0  0.11593074627E+02  0.71541720888E+02  0.60434081531E+02  0.13306946648E+03  0.93822105567E+02 0.  0.
        -11    1    3    3    0    0 -0.14893445918E+02 -0.72041092930E+02  0.24196421849E+03  0.25290001350E+03  0.00000000000E+00 0. -1.
         11    1    3    3    0    0  0.15272757886E+02  0.17041838309E+02  0.19915712049E+02  0.30336726468E+02  0.00000000000E+00 0.  1.
        -13    1    4    4    0    0 -0.86583985309E+01  0.74422770271E+02  0.62877175147E+01  0.75188110705E+02  0.00000000000E+00 0.  1.
         13    1    4    4    0    0  0.20251473158E+02 -0.28810493833E+01  0.54146364016E+02  0.57881355778E+02  0.00000000000E+00 0. -1.
          2    1    1    2  501    0 -0.11972386595E+02 -0.16542466267E+02 -0.31588905408E+02  0.37614494226E+02  0.00000000000E+00 0. -1.
<scales pt_clust_5="13000.00000" pt_clust_6="13000.00000" pt_clust_7="13000.00000" pt_clust_8="13000.00000" pt_clust_9="20.42036"></scales>
<clustering>
<clus scale="   20.420">  2  9  1 -1</clus>
<clus scale="   92.827">  5  6 -1 -1</clus>
<clus scale="   93.822">  7  8 -1 -1</clus>
<clus scale="  109.886">  1  5  2 -1</clus>
<clus scale="   20.420">  2  5  1 -1</clus>
</clustering>
</event>
<event>
 9    1  0.1321469E-005  0.1023708E+03  0.7546771E-02  0.1277401E+00
          2   -1    0    0  502    0 -0.00000000000E+00  0.00000000000E+00  0.67796957498E+02  0.67796957498E+02  0.00000000000E+00 0. -1.
         21   -1    0    0  501  502  0.00000000000E+00 -0.00000000000E+00 -0.22708607316E+03  0.22708607316E+03  0.00000000000E+00 0.  1.
         23    2    1    2    0    0  0.19351649433E+02  0.30797148764E+02 -0.41596196614E+02  0.10884375924E+03  0.93775101409E+02 0.  0.
         23    2    1    2    0    0  0.64357149832E+01 -0.51835219647E+02 -0.60926306012E+02  0.12023625519E+03  0.89534540117E+02 0.  0.
        -11    1    4    4    0    0 -0.23253927369E+02 -0.61027976745E+02 -0.18942096992E+02  0.67999721485E+02  0.00000000000E+00 0.  1.
         11    1    4    4    0    0  0.29689642352E+02  0.91927570980E+01 -0.41984209021E+02  0.52236533701E+02  0.00000000000E+00 0. -1.
        -11    1    3    3    0    0 -0.94964256265E+01  0.33759820114E+02  0.20278115134E+02  0.40510609811E+02  0.00000000000E+00 0. -1.
         11    1    3    3    0    0  0.28848075060E+02 -0.29626713507E+01 -0.61874311748E+02  0.68333149426E+02  0.00000000000E+00 0.  1.
          2    1    1    2  501    0 -0.25787364417E+02  0.21038070883E+02 -0.56766613038E+02  0.65803016237E+02  0.00000000000E+00 0. -1.
<scales pt_clust_5="13000.00000" pt_clust_6="13000.00000" pt_clust_7="13000.00000" pt_clust_8="13000.00000" pt_clust_9="33.28045"></scales>
<clustering>
<clus scale="   33.280">  2  9  1 -1</clus>
<clus scale="   89.535">  5  6 -1 -1</clus>
<clus scale="   93.775">  7  8 -1 -1</clus>
<clus scale="   98.501">  2  5  1 -1</clus>
<clus scale="   33.280">  2  5  1 -1</clus>
</clustering>
</event>
<event>
 9    1  0.1321469E-005  0.1071141E+03  0.7546771E-02  0.1266182E+00
          1   -1    0    0  502    0 -0.00000000000E+00  0.00000000000E+00  0.72066925867E+02  0.72066925867E+02  0.00000000000E+00 0. -1.
         21   -1    0    0  501  502  0.00000000000E+00 -0.00000000000E+00 -0.21895556403E+03  0.21895556403E+03  0.00000000000E+00 0.  1.
         23    2    1    2    0    0  0.28463925069E+02  0.57855960309E+02 -0.19223499829E+02  0.11262902659E+03  0.90323017619E+02 0.  0.
         23    2    1    2    0    0 -0.27101637509E+02 -0.34598782241E+02 -0.97310114829E+02  0.14012886333E+03  0.90748363081E+02 0.  0.
        -11    1    4    4    0    0 -0.16529475156E+02  0.26620692354E+02 -0.59921965441E+02  0.67620461050E+02  0.00000000000E+00 0.  1.
         11    1    4    4    0    0 -0.10572162354E+02 -0.61219474595E+02 -0.37388149388E+02  0.72508402280E+02  0.00000000000E+00 0. -1.
        -11    1    3    3    0    0 -0.20823997169E+02  0.57455286156E+02 -0.16319259870E+02  0.63253988080E+02  0.00000000000E+00 0.  1.
         11    1    3    3    0    0  0.49287922238E+02  0.40067415366E+00 -0.29042399585E+01  0.49375038512E+02  0.00000000000E+00 0. -1.
          1    1    1    2  501    0 -0.13622875600E+01 -0.23257178068E+02 -0.30355023502E+02  0.38264599971E+02  0.00000000000E+00 0. -1.
<scales pt_clust_5="13000.00000" pt_clust_6="13000.00000" pt_clust_7="13000.00000" pt_clust_8="13000.00000" pt_clust_9="23.29704"></scales>
<clustering>
<clus scale="   23.297">  2  9  1 -1</clus>
<clus scale="   90.323">  7  8 -1 -1</clus>
<clus scale="   90.748">  5  6 -1 -1</clus>
<clus scale="  106.754">  1  7  2 -1</clus>
<clus scale="   23.297">  2  5  1 -1</clus>
</clustering>
</event>
<event>
 9    1  0.1321469E-005  0.1431326E+03  0.7546771E-02  0.1227631E+00
          2   -1    0    0  502    0 -0.00000000000E+00  0.00000000000E+00  0.25899738510E+03  0.25899738510E+03  0.00000000000E+00 0. -1.
         21   -1    0    0  501  502  0.00000000000E+00 -0.00000000000E+00 -0.15979305316E+03  0.15979305316E+03  0.00000000000E+00 0.  1.
         23    2    1    2    0    0  0.25478583986E+02  0.11018278943E+02  0.96369039614E+02  0.13676671092E+03  0.92992369086E+02 0.  0.
         23    2    1    2    0    0  0.67995203307E+02  0.53306867830E+02  0.74175095106E+02  0.14799223522E+03  0.94524002881E+02 0.  0.
        -13    1    4    4    0    0  0.51513573356E+02  0.80509737176E+02  0.62041973611E+02  0.11395030719E+03  0.00000000000E+00 0.  1.
         13    1    4    4    0    0  0.16481629951E+02 -0.27202869346E+02  0.12133121494E+02  0.34041928025E+02  0.00000000000E+00 0. -1.
        -13    1    3    3    0    0 -0.75364213800E+01  0.46430934669E+02  0.35173449138E+02  0.58735005454E+02  0.00000000000E+00 0.  1.
         13    1    3    3    0    0  0.33015005366E+02 -0.35412655726E+02  0.61195590477E+02  0.78031705470E+02  0.00000000000E+00 0. -1.
          2    1    1    2  501    0 -0.93473787292E+02 -0.64325146773E+02 -0.71339802780E+02  0.13403149212E+03  0.00000000000E+00 0. -1.
<scales pt_clust_5="13000.00000" pt_clust_6="13000.00000" pt_clust_7="13000.00000" pt_clust_8="13000.00000" pt_clust_9="107.48096"></scales>
<clustering>
<clus scale="   92.992">  7  8 -1 -1</clus>
<clus scale="   94.524">  5  6 -1 -1</clus>
<clus scale="   97.047">  1  7  2 -1</clus>
<clus scale="  107.481">  2  9  1 -1</clus>
<clus scale="  107.481">  2  5  1 -1</clus>
</clustering>
</event>
<event>
 9    1  0.1683527E-005  0.1181280E+03  0.7546771E-02  0.1247638E+00
         -1   -1    0    0    0  501 -0.00000000000E+00  0.00000000000E+00  0.35667783501E+03  0.35667783501E+03  0.00000000000E+00 0.  1.
         21   -1    0    0  501  502  0.00000000000E+00 -0.00000000000E+00 -0.15775680660E+03  0.15775680660E+03  0.00000000000E+00 0.  1.
         23    2    1    2    0    0  0.69551923045E+02  0.31673155532E+02  0.22044035370E+03  0.25045018930E+03  0.91053220699E+02 0.  0.
         23    2    1    2    0    0 -0.57166234594E+02 -0.15331248295E+02  0.94221891736E+02  0.14644087517E+03  0.95205774437E+02 0.  0.
        -13    1    4    4    0    0 -0.71283638465E+01 -0.44341701850E+02  0.71215015104E+02  0.84193696143E+02  0.00000000000E+00 0.  1.
         13    1    4    4    0    0 -0.50037870747E+02  0.29010453555E+02  0.23006876632E+02  0.62247179026E+02  0.00000000000E+00 0. -1.
        -13    1    3    3    0    0  0.66732463298E+02 -0.48580826784E+01  0.19414484882E+03  0.20535102860E+03  0.00000000000E+00 0.  1.
         13    1    3    3    0    0  0.28194597466E+01  0.36531238210E+02  0.26295504878E+02  0.45099160693E+02  0.00000000000E+00 0. -1.
         -1    1    1    2    0  502 -0.12385688451E+02 -0.16341907237E+02 -0.11574121702E+03  0.11754357715E+03  0.00000000000E+00 0.  1.
<scales pt_clust_5="13000.00000" pt_clust_6="13000.00000" pt_clust_7="13000.00000" pt_clust_8="13000.00000" pt_clust_9="20.50520"></scales>
<clustering>
<clus scale="   20.505">  2  9  1 -1</clus>
<clus scale="   91.053">  7  8 -1 -1</clus>
<clus scale="   95.206">  5  6 -1 -1</clus>
<clus scale="  114.808">  1  7  2 -1</clus>
<clus scale="   20.505">  2  5  1 -1</clus>
</clustering>
</event>
<event>
 9    1  0.1321469E-005  0.2139866E+03  0.7546771E-02  0.1138913E+00
         21   -1    0    0  501  502  0.00000000000E+00  0.00000000000E+00  0.18848380345E+03  0.18848380345E+03  0.00000000000E+00 0. -1.
          2   -1    0    0  502    0 -0.00000000000E+00 -0.00000000000E+00 -0.58089291111E+03  0.58089291111E+03  0.00000000000E+00 0. -1.
         23    2    1    2    0    0  0.40070863304E+02 -0.24314810309E+03 -0.38795373870E+03  0.46857814318E+03  0.91272661693E+02 0.  0.
         23    2    1    2    0    0 -0.60288153803E+02  0.11033083080E+03 -0.48208708007E+02  0.15950624556E+03  0.85502100159E+02 0.  0.
        -11    1    3    3    0    0  0.57312930226E+02 -0.81635197844E+02 -0.13229406186E+03  0.16568281837E+03  0.00000000000E+00 0. -1.
         11    1    3    3    0    0 -0.17242066921E+02 -0.16151290525E+03 -0.25565967684E+03  0.30289532482E+03  0.00000000000E+00 0.  1.
        -13    1    4    4    0    0  0.10474423851E+02  0.62118835424E+02 -0.39520797468E+01  0.63119586531E+02  0.00000000000E+00 0.  1.
         13    1    4    4    0    0 -0.70762577654E+02  0.48211995377E+02 -0.44256628260E+02  0.96386659032E+02  0.00000000000E+00 0. -1.
          2    1    1    2  501    0  0.20217290498E+02  0.13281727229E+03  0.43753339053E+02  0.14129232581E+03  0.00000000000E+00 0. -1.
<scales pt_clust_5="13000.00000" pt_clust_6="13000.00000" pt_clust_7="13000.00000" pt_clust_8="13000.00000" pt_clust_9="134.34719"></scales>
<clustering>
<clus scale="   85.502">  7  8 -1 -1</clus>
<clus scale="   91.273">  5  6 -1 -1</clus>
<clus scale="  134.347">  1  9  2 -1</clus>
<clus scale="  211.590">  1  7  2 -1</clus>
<clus scale="  134.347">  1  5  2 -1</clus>
</clustering>
</event>
<event>
 9    1  0.1321469E-005  0.1031501E+03  0.7546771E-02  0.1275992E+00
         21   -1    0    0  501  502  0.00000000000E+00  0.00000000000E+00  0.12279180130E+03  0.12279180130E+03  0.00000000000E+00 0. -1.
         -3   -1    0    0    0  501 -0.00000000000E+00 -0.00000000000E+00 -0.22941735897E+03  0.22941735897E+03  0.00000000000E+00 0.  1.
         23    2    1    2    0    0  0.12566504550E+02 -0.57350413944E+01 -0.14873942988E+03  0.18072332154E+03  0.10171869646E+03 0.  0.
         23    2    1    2    0    0  0.86190093233E+01  0.47991842551E+02  0.11717518087E+01  0.10895008524E+03  0.97423014722E+02 0.  0.
        -11    1    3    3    0    0 -0.42976570049E+02 -0.14852537996E+02 -0.54760778859E+02  0.71178131187E+02  0.00000000000E+00 0. -1.
         11    1    3    3    0    0  0.55543074599E+02  0.91174966015E+01 -0.93978651024E+02  0.10954519035E+03  0.00000000000E+00 0.  1.
        -13    1    4    4    0    0 -0.17276854438E+02 -0.24042217608E+02  0.11394594983E+02  0.31723094452E+02  0.00000000000E+00 0.  1.
         13    1    4    4    0    0  0.25895863761E+02  0.72034060159E+02 -0.10222843175E+02  0.77226990784E+02  0.00000000000E+00 0. -1.
         -3    1    1    2    0  502 -0.21185513874E+02 -0.42256801157E+02  0.40942120404E+02  0.62535753496E+02  0.00000000000E+00 0.  1.
<scales pt_clust_5="13000.00000" pt_clust_6="13000.00000" pt_clust_7="13000.00000" pt_clust_8="13000.00000" pt_clust_9="47.27011"></scales>
<clustering>
<clus scale="   47.270">  1  9  2 -1</clus>
<clus scale="   97.423">  7  8 -1 -1</clus>
<clus scale="   98.917">  1  7  2 -1</clus>
<clus scale="  101.719">  5  6 -1 -1</clus>
<clus scale="   47.270">  1  5  2 -1</clus>
</clustering>
</event>
<event>
 9    1  0.1321469E-005  0.9420426E+02  0.7546771E-02  0.1293145E+00
          1   -1    0    0  502    0 -0.00000000000E+00  0.00000000000E+00  0.13311129792E+03  0.13311129792E+03  0.00000000000E+00 0. -1.
         21   -1    0    0  501  502  0.00000000000E+00 -0.00000000000E+00 -0.11206312339E+03  0.11206312339E+03  0.00000000000E+00 0.  1.
         23    2    1    2    0    0 -0.17707025006E+02 -0.23026199242E+02  0.51096179081E+02  0.10911549764E+03  0.91932734767E+02 0.  0.
         23    2    1    2    0    0  0.12147126563E+02 -0.64085957028E+00  0.59406566763E+01  0.92628221633E+02  0.91633687345E+02 0.  0.
        -11    1    4    4    0    0  0.55602887881E+01  0.45491146472E+02  0.35530191408E+01  0.45967218360E+02  0.00000000000E+00 0.  1.
         11    1    4    4    0    0  0.65868377754E+01 -0.46132006043E+02  0.23876375355E+01  0.46661003273E+02  0.00000000000E+00 0. -1.
        -13    1    3    3    0    0  0.23403928057E+02  0.24060532575E+02  0.22263947433E+02  0.40278237692E+02  0.00000000000E+00 0.  1.
         13    1    3    3    0    0 -0.41110953063E+02 -0.47086731817E+02  0.28832231648E+02  0.68837259945E+02  0.00000000000E+00 0. -1.
          1    1    1    2  501    0  0.55598984427E+01  0.23667058812E+02 -0.35988661226E+02  0.43430702047E+02  0.00000000000E+00 0. -1.
<scales pt_clust_5="13000.00000" pt_clust_6="13000.00000" pt_clust_7="13000.00000" pt_clust_8="13000.00000" pt_clust_9="24.31136"></scales>
<clustering>
<clus scale="   24.311">  2  9  1 -1</clus>
<clus scale="   91.634">  5  6 -1 -1</clus>
<clus scale="   91.933">  7  8 -1 -1</clus>
<clus scale="   93.912">  2  5  1 -1</clus>
<clus scale="   24.311">  2  5  1 -1</clus>
</clustering>
</event>
<event>
 9    1  0.1321469E-005  0.9341424E+02  0.7546771E-02  0.1296247E+00
         21   -1    0    0  501  502  0.00000000000E+00  0.00000000000E+00  0.33471274669E+02  0.33471274669E+02  0.00000000000E+00 0. -1.
          1   -1    0    0  502    0 -0.00000000000E+00 -0.00000000000E+00 -0.45710480261E+03  0.45710480261E+03  0.00000000000E+00 0. -1.
         23    2    1    2    0    0  0.30613594071E+02  0.40496378306E+01 -0.17551861741E+03  0.19974933461E+03  0.90218733711E+02 0.  0.
         23    2    1    2    0    0  0.17461208134E+02  0.21843667294E+02 -0.16668026036E+03  0.19277954941E+03  0.92734060010E+02 0.  0.
        -11    1    4    4    0    0  0.72386026750E+01 -0.31349861901E+02 -0.23930574132E+02  0.40098423762E+02  0.00000000000E+00 0.  1.
         11    1    4    4    0    0  0.10222605459E+02  0.53193529194E+02 -0.14274968623E+03  0.15268112564E+03  0.00000000000E+00 0. -1.
        -11    1    3    3    0    0  0.55214680348E+02 -0.11206024037E+02 -0.15309509701E+03  0.16313290480E+03  0.00000000000E+00 0.  1.
         11    1    3    3    0    0 -0.24601086278E+02  0.15255661868E+02 -0.22423520403E+02  0.36616429814E+02  0.00000000000E+00 0. -1.
          1    1    1    2  501    0 -0.48074802204E+02 -0.25893305124E+02 -0.81434650174E+02  0.98047193260E+02  0.00000000000E+00 0. -1.
<scales pt_clust_5="13000.00000" pt_clust_6="13000.00000" pt_clust_7="13000.00000" pt_clust_8="13000.00000" pt_clust_9="54.60449"></scales>
<clustering>
<clus scale="   54.604">  1  9  2 -1</clus>
<clus scale="   90.219">  7  8 -1 -1</clus>
<clus scale="   90.918">  2  7  1 -1</clus>
<clus scale="   92.734">  5  6 -1 -1</clus>
<clus scale="   54.604">  1  5  2 -1</clus>
</clustering>
</event>
<event>
 9    1  0.1321469E-005  0.1323757E+03  0.7546771E-02  0.1224589E+00
          1   -1    0    0  502    0 -0.00000000000E+00  0.00000000000E+00  0.11341395634E+04  0.11341395634E+04  0.00000000000E+00 0. -1.
         21   -1    0    0  501  502  0.00000000000E+00 -0.00000000000E+00 -0.96454993055E+02  0.96454993055E+02  0.00000000000E+00 0. -1.
         23    2    1    2    0    0 -0.26813092795E+02  0.57581760478E+02  0.48817655105E+03  0.50091710640E+03  0.92558097490E+02 0.  0.
         23    2    1    2    0    0  0.62083737679E+02 -0.15804318665E+03  0.58631283331E+03  0.61702261935E+03  0.90122888049E+02 0.  0.
        -11    1    4    4    0    0 -0.18176645707E+02 -0.18976810568E+02  0.42195087226E+02  0.49708502034E+02  0.00000000000E+00 0.  1.
         11    1    4    4    0    0  0.80260383386E+02 -0.13906637608E+03  0.54411774608E+03  0.56731411731E+03  0.00000000000E+00 0. -1.
        -13    1    3    3    0    0 -0.58422425165E+02  0.17599856827E+02  0.24848613159E+03  0.25586772425E+03  0.00000000000E+00 0.  1.
         13    1    3    3    0    0  0.31609332370E+02  0.39981903651E+02  0.23969041946E+03  0.24504938215E+03  0.00000000000E+00 0. -1.
          1    1    1    2  501    0 -0.35270644884E+02  0.10046142617E+03 -0.36804814041E+02  0.11265483068E+03  0.00000000000E+00 0. -1.
<scales pt_clust_5="13000.00000" pt_clust_6="13000.00000" pt_clust_7="13000.00000" pt_clust_8="13000.00000" pt_clust_9="106.47308"></scales>
<clustering>
<clus scale="   90.123">  5  6 -1 -1</clus>
<clus scale="   92.558">  7  8 -1 -1</clus>
<clus scale="  106.473">  2  9  1 -1</clus>
<clus scale="  130.685">  2  5  1 -1</clus>
<clus scale="  106.473">  2  5  1 -1</clus>
</clustering>
</event>
<event>
 9    1  0.1321469E-005  0.1099787E+03  0.7546771E-02  0.1262275E+00
          2   -1    0    0  502    0 -0.00000000000E+00  0.00000000000E+00  0.40042996012E+03  0.40042996012E+03  0.00000000000E+00 0. -1.
         21   -1    0    0  501  502  0.00000000000E+00 -0.00000000000E+00 -0.75118257786E+02  0.75118257786E+02  0.00000000000E+00 0. -1.
         23    2    1    2    0    0 -0.69354934565E+02 -0.18380727820E+01  0.27886959066E+03  0.30159879957E+03  0.91542896210E+02 0.  0.
         23    2    1    2    0    0  0.57096973391E+01 -0.24027698522E+02  0.31210464110E+02  0.10358069350E+03  0.95629159030E+02 0.  0.
        -11    1    3    3    0    0 -0.49671488205E+02 -0.31804891612E+02  0.24595533130E+03  0.25292851335E+03  0.00000000000E+00 0. -1.
         11    1    3    3    0    0 -0.19683446361E+02  0.29966818830E+02  0.32914259362E+02  0.48670286220E+02  0.00000000000E+00 0.  1.
        -13    1    4    4    0    0 -0.29915438449E+02 -0.43788827030E+02  0.33585899387E+02  0.62772664973E+02  0.00000000000E+00 0. -1.
         13    1    4    4    0    0  0.35625135788E+02  0.19761128508E+02 -0.23754352764E+01  0.40808028531E+02  0.00000000000E+00 0.  1.
          2    1    1    2  501    0  0.63645237226E+02  0.25865771304E+02  0.15231647561E+02  0.70368724830E+02  0.00000000000E+00 0. -1.
<scales pt_clust_5="13000.00000" pt_clust_6="13000.00000" pt_clust_7="13000.00000" pt_clust_8="13000.00000" pt_clust_9="68.70047"></scales>
<clustering>
<clus scale="   68.700">  2  9  1 -1</clus>
<clus scale="   91.543">  5  6 -1 -1</clus>
<clus scale="   95.629">  7  8 -1 -1</clus>
<clus scale="  106.445">  1  5  2 -1</clus>
<clus scale="   68.700">  2  5  1 -1</clus>
</clustering>
</event>
<event>
 9    1  0.1321469E-005  0.9335887E+02  0.7546771E-02  0.1296435E+00
         21   -1    0    0  501  502  0.00000000000E+00  0.00000000000E+00  0.32562251602E+03  0.32562251602E+03  0.00000000000E+00 0.  1.
          1   -1    0    0  502    0 -0.00000000000E+00 -0.00000000000E+00 -0.37822802226E+02  0.37822802226E+02  0.00000000000E+00 0. -1.
         23    2    1    2    0    0  0.42762936812E+01  0.36255653192E+01  0.69003520781E+02  0.11618152705E+03  0.93301821713E+02 0.  0.
         23    2    1    2    0    0  0.17118774225E+02  0.32445471732E+01  0.16789550941E+03  0.19162363513E+03  0.90703560805E+02 0.  0.
        -13    1    4    4    0    0  0.11956944215E+02 -0.28536325721E+02  0.15309015699E+03  0.15618542367E+03  0.00000000000E+00 0.  1.
         13    1    4    4    0    0  0.51618300096E+01  0.31780872894E+02  0.14805352420E+02  0.35438211456E+02  0.00000000000E+00 0. -1.
        -13    1    3    3    0    0 -0.33732605602E+02  0.16824747073E+02  0.65782222143E+02  0.75817290541E+02  0.00000000000E+00 0.  1.
         13    1    3    3    0    0  0.38008899284E+02 -0.13199181754E+02  0.32212986376E+01  0.40364236505E+02  0.00000000000E+00 0. -1.
          1    1    1    2  501    0 -0.21395067906E+02 -0.68701124924E+01  0.50900683609E+02  0.55640156077E+02  0.00000000000E+00 0. -1.
<scales pt_clust_5="13000.00000" pt_clust_6="13000.00000" pt_clust_7="13000.00000" pt_clust_8="13000.00000" pt_clust_9="22.47103"></scales>
<clustering>
<clus scale="   22.471">  1  9  2 -1</clus>
<clus scale="   90.704">  5  6 -1 -1</clus>
<clus scale="   90.762">  1  5  2 -1</clus>
<clus scale="   93.302">  7  8 -1 -1</clus>
<clus scale="   22.471">  1  5  2 -1</clus>
</clustering>
</event>
<event>
 9    1  0.1321469E-005  0.9617376E+02  0.7546771E-02  0.1289583E+00
         21   -1    0    0  501  502  0.00000000000E+00  0.00000000000E+00  0.22128027145E+03  0.22128027145E+03  0.00000000000E+00 0.  1.
         -1   -1    0    0    0  501 -0.00000000000E+00 -0.00000000000E+00 -0.69762013989E+02  0.69762013989E+02  0.00000000000E+00 0.  1.
         23    2    1    2    0    0 -0.29244785539E+02  0.14011676826E+02  0.26973192853E+02  0.99517325797E+02  0.90136343571E+02 0.  0.
         23    2    1    2    0    0 -0.72650109274E+01 -0.38032944806E+02  0.10032241815E+03  0.14155773884E+03  0.92058245519E+02 0.  0.
        -11    1    3    3    0    0 -0.13173104908E+02  0.52473624150E+02  0.14703228893E+02  0.56064220892E+02  0.00000000000E+00 0.  1.
         11    1    3    3    0    0 -0.16071680631E+02 -0.38461947325E+02  0.12269963960E+02  0.43453104905E+02  0.00000000000E+00 0. -1.
        -13    1    4    4    0    0 -0.36932849974E+02  0.12455996016E+02  0.55468291434E+02  0.67793204663E+02  0.00000000000E+00 0.  1.
         13    1    4    4    0    0  0.29667839047E+02 -0.50488940822E+02  0.44854126712E+02  0.73764534175E+02  0.00000000000E+00 0. -1.
         -1    1    1    2    0  502  0.36509796466E+02  0.24021267980E+02  0.24222646467E+02  0.49967220807E+02  0.00000000000E+00 0.  1.
<scales pt_clust_5="13000.00000" pt_clust_6="13000.00000" pt_clust_7="13000.00000" pt_clust_8="13000.00000" pt_clust_9="43.70341"></scales>
<clustering>
<clus scale="   43.703">  1  9  2 -1</clus>
<clus scale="   90.136">  5  6 -1 -1</clus>
<clus scale="   92.058">  7  8 -1 -1</clus>
<clus scale="   94.336">  2  5  1 -1</clus>
<clus scale="   43.703">  1  5  2 -1</clus>
</clustering>
</event>
<event>
 9    1  0.1321469E-005  0.9365886E+02  0.7546771E-02  0.1296368E+00
         21   -1    0    0  501  502  0.00000000000E+00  0.00000000000E+00  0.66112477987E+02  0.66112477987E+02  0.00000000000E+00 0. -1.
          2   -1    0    0  502    0 -0.00000000000E+00 -0.00000000000E+00 -0.27550065757E+03  0.27550065757E+03  0.00000000000E+00 0. -1.
         23    2    1    2    0    0 -0.45629260795E+01 -0.17546394092E+02 -0.14321833595E+03  0.16943124429E+03  0.88694749277E+02 0.  0.
         23    2    1    2    0    0 -0.17655568433E+02  0.10369059178E+02 -0.95660934569E+02  0.13456673369E+03  0.92401054801E+02 0.  0.
        -11    1    4    4    0    0 -0.27907800404E+02  0.37230174468E+02 -0.14924577804E+02  0.48863833629E+02  0.00000000000E+00 0.  1.
         11    1    4    4    0    0  0.10252231971E+02 -0.26861115291E+02 -0.80736356765E+02  0.85702900060E+02  0.00000000000E+00 0. -1.
        -13    1    3    3    0    0  0.25688796864E+02  0.98995354465E+01 -0.87368713952E+01  0.28883351748E+02  0.00000000000E+00 0.  1.
         13    1    3    3    0    0 -0.30251722944E+02 -0.27445929539E+02 -0.13448146456E+03  0.14054789254E+03  0.00000000000E+00 0. -1.
          2    1    1    2  501    0  0.22218494512E+02  0.71773349145E+01  0.29491090937E+02  0.37615157577E+02  0.00000000000E+00 0. -1.
<scales pt_clust_5="13000.00000" pt_clust_6="13000.00000" pt_clust_7="13000.00000" pt_clust_8="13000.00000" pt_clust_9="23.34900"></scales>
<clustering>
<clus scale="   23.349">  1  9  2 -1</clus>
<clus scale="   88.695">  7  8 -1 -1</clus>
<clus scale="   90.004">  2  7  1 -1</clus>
<clus scale="   92.401">  5  6 -1 -1</clus>
<clus scale="   23.349">  1  5  2 -1</clus>
</clustering>
</event>
<event>
 9    1  0.1321469E-005  0.1053129E+03  0.7546771E-02  0.1270314E+00
          2   -1    0    0  502    0 -0.00000000000E+00  0.00000000000E+00  0.46313579373E+03  0.46313579373E+03  0.00000000000E+00 0.  1.
         21   -1    0    0  501  502  0.00000000000E+00 -0.00000000000E+00 -0.49083530843E+02  0.49083530843E+02  0.00000000000E+00 0. -1.
         23    2    1    2    0    0 -0.27432120948E+02  0.64759126538E+02  0.25564523118E+03  0.28075324148E+03  0.92312689538E+02 0.  0.
         23    2    1    2    0    0  0.41207767792E+02  0.21007135761E+01  0.10667441134E+03  0.14581405056E+03  0.90442325172E+02 0.  0.
        -11    1    3    3    0    0 -0.55024866850E+02  0.14654178149E+02  0.15289562843E+03  0.16315500024E+03  0.00000000000E+00 0.  1.
         11    1    3    3    0    0  0.27592745902E+02  0.50104948389E+02  0.10274960274E+03  0.11759824124E+03  0.00000000000E+00 0. -1.
        -11    1    4    4    0    0  0.22205589036E+02 -0.50475311710E+01 -0.11775762677E+02  0.25636582104E+02  0.00000000000E+00 0. -1.
         11    1    4    4    0    0  0.19002178755E+02  0.71482447472E+01  0.11845017401E+03  0.12017746845E+03  0.00000000000E+00 0.  1.
          2    1    1    2  501    0 -0.13775646844E+02 -0.66859840114E+02  0.51732620372E+02  0.85652032530E+02  0.00000000000E+00 0.  1.
<scales pt_clust_5="13000.00000" pt_clust_6="13000.00000" pt_clust_7="13000.00000" pt_clust_8="13000.00000" pt_clust_9="68.26424"></scales>
<clustering>
<clus scale="   68.264">  2  9  1 -1</clus>
<clus scale="   90.442">  7  8 -1 -1</clus>
<clus scale="   92.313">  5  6 -1 -1</clus>
<clus scale="  103.677">  2  7  1 -1</clus>
<clus scale="   68.264">  2  5  1 -1</clus>
</clustering>
</event>
<event>
 9    1  0.1321469E-005  0.9902006E+02  0.7546771E-02  0.1283081E+00
         21   -1    0    0  501  502  0.00000000000E+00  0.00000000000E+00  0.62278358245E+03  0.62278358245E+03  0.00000000000E+00 0. -1.
         -3   -1    0    0    0  501 -0.00000000000E+00 -0.00000000000E+00 -0.38406792929E+02  0.38406792929E+02  0.00000000000E+00 0.  1.
         23    2    1    2    0    0  0.36470695686E+02 -0.13311840307E+02  0.76406851868E+02  0.12505592710E+03  0.91069540215E+02 0.  0.
         23    2    1    2    0    0 -0.31821441753E+02 -0.47849971617E+02  0.29275939265E+03  0.31235339125E+03  0.92489756762E+02 0.  0.
        -13    1    3    3    0    0  0.51728166804E+02 -0.37635949291E+02  0.71476076645E+02  0.95922351163E+02  0.00000000000E+00 0. -1.
         13    1    3    3    0    0 -0.15257471118E+02  0.24324108984E+02  0.49307752229E+01  0.29133575941E+02  0.00000000000E+00 0.  1.
        -13    1    4    4    0    0  0.11451287303E+02 -0.44112207154E+02  0.23867672259E+03  0.24298888186E+03  0.00000000000E+00 0. -1.
         13    1    4    4    0    0 -0.43272729056E+02 -0.37377644630E+01  0.54082670059E+02  0.69364509397E+02  0.00000000000E+00 0.  1.
         -3    1    1    2    0  502 -0.46492539326E+01  0.61161811924E+02  0.21521054501E+03  0.22378105703E+03  0.00000000000E+00 0.  1.
<scales pt_clust_5="13000.00000" pt_clust_6="13000.00000" pt_clust_7="13000.00000" pt_clust_8="13000.00000" pt_clust_9="61.33827"></scales>
<clustering>
<clus scale="   61.338">  1  9  2 -1</clus>
<clus scale="   91.070">  5  6 -1 -1</clus>
<clus scale="   92.490">  7  8 -1 -1</clus>
<clus scale="   97.695">  2  5  1 -1</clus>
<clus scale="   61.338">  1  5  2 -1</clus>
</clustering>
</event>
<event>
 9    1  0.1321469E-005  0.2074187E+03  0.7546771E-02  0.1176827E+00
          1   -1    0    0  502    0 -0.00000000000E+00  0.00000000000E+00  0.19403061055E+03  0.19403061055E+03  0.00000000000E+00 0. -1.
         21   -1    0    0  501  502  0.00000000000E+00 -0.00000000000E+00 -0.50751505166E+03  0.50751505166E+03  0.00000000000E+00 0. -1.
         23    2    1    2    0    0  0.64535706227E+01 -0.26255591407E+02 -0.12967674460E+03  0.16121215630E+03  0.91881970995E+02 0.  0.
         23    2    1    2    0    0 -0.10892101916E+03 -0.13343779690E+03  0.84144633668E+02  0.21200439127E+03  0.90532361539E+02 0.  0.
        -11    1    3    3    0    0 -0.50051043731E+01  0.20005618572E+02  0.24361967918E+01  0.20765618196E+02  0.00000000000E+00 0.  1.
         11    1    3    3    0    0  0.11458674996E+02 -0.46261209979E+02 -0.13211294139E+03  0.14044653810E+03  0.00000000000E+00 0. -1.
        -13    1    4    4    0    0 -0.91999566767E+02 -0.72132079342E+02  0.14680757622E+02  0.11782394408E+03  0.00000000000E+00 0.  1.
         13    1    4    4    0    0 -0.16921452393E+02 -0.61305717560E+02  0.69463876046E+02  0.94180447185E+02  0.00000000000E+00 0. -1.
          1    1    1    2  501    0  0.10246744854E+03  0.15969338831E+03 -0.26795233017E+03  0.32832911465E+03  0.00000000000E+00 0. -1.
<scales pt_clust_5="13000.00000" pt_clust_6="13000.00000" pt_clust_7="13000.00000" pt_clust_8="13000.00000" pt_clust_9="186.61832"></scales>
<clustering>
<clus scale="   90.532">  7  8 -1 -1</clus>
<clus scale="   91.882">  5  6 -1 -1</clus>
<clus scale="   95.777">  1  5  2 -1</clus>
<clus scale="  186.618">  2  9  1 -1</clus>
<clus scale="  186.618">  2  5  1 -1</clus>
</clustering>
</event>
<event>
 9    1  0.1321469E-005  0.9507340E+02  0.7546771E-02  0.1291567E+00
         21   -1    0    0  501  502  0.00000000000E+00  0.00000000000E+00  0.17023619686E+03  0.17023619686E+03  0.00000000000E+00 0. -1.
          4   -1    0    0  502    0 -0.00000000000E+00 -0.00000000000E+00 -0.19264290612E+03  0.19264290612E+03  0.00000000000E+00 0. -1.
         23    2    1    2    0    0 -0.11878441894E+02 -0.36316605448E+02 -0.12083226174E+03  0.15523202225E+03  0.89646818362E+02 0.  0.
         23    2    1    2    0    0  0.15422545300E+02 -0.39645029410E+02  0.82937064929E+02  0.13004151465E+03  0.90678859356E+02 0.  0.
        -11    1    4    4    0    0 -0.36085775560E+02 -0.15919207544E+01  0.29910422868E+02  0.46897236652E+02  0.00000000000E+00 0.  1.
         11    1    4    4    0    0  0.51508320860E+02 -0.38053108655E+02  0.53026642061E+02  0.83144278002E+02  0.00000000000E+00 0. -1.
        -13    1    3    3    0    0  0.12959871820E+02  0.23891646470E+02 -0.15219502276E+02  0.31151280843E+02  0.00000000000E+00 0.  1.
         13    1    3    3    0    0 -0.24838313714E+02 -0.60208251918E+02 -0.10561275946E+03  0.12408074141E+03  0.00000000000E+00 0. -1.
          4    1    1    2  501    0 -0.35441034055E+01  0.75961634857E+02  0.15488487541E+02  0.77605566073E+02  0.00000000000E+00 0. -1.
<scales pt_clust_5="13000.00000" pt_clust_6="13000.00000" pt_clust_7="13000.00000" pt_clust_8="13000.00000" pt_clust_9="76.04427"></scales>
<clustering>
<clus scale="   76.044">  1  9  2 -1</clus>
<clus scale="   89.647">  7  8 -1 -1</clus>
<clus scale="   90.679">  5  6 -1 -1</clus>
<clus scale="   94.090">  2  7  1 -1</clus>
<clus scale="   76.044">  1  5  2 -1</clus>
</clustering>
</event>
<event>
 9    1  0.1321469E-005  0.9689492E+02  0.7546771E-02  0.1289476E+00
         -1   -1    0    0    0  501 -0.00000000000E+00  0.00000000000E+00  0.12900491065E+03  0.12900491065E+03  0.00000000000E+00 0.  1.
         21   -1    0    0  501  502  0.00000000000E+00 -0.00000000000E+00 -0.10065013258E+03  0.10065013258E+03  0.00000000000E+00 0. -1.
         23    2    1    2    0    0 -0.11785880785E+02 -0.30061682599E+02  0.55179187165E+02  0.11098013595E+03  0.90715137282E+02 0.  0.
         23    2    1    2    0    0 -0.54502662524E+01  0.40800149958E+02 -0.22844318607E+02  0.97980933134E+02  0.85930452846E+02 0.  0.
        -13    1    4    4    0    0 -0.31143584295E+02  0.53199013134E+02 -0.30017153499E+02  0.68564475827E+02  0.00000000000E+00 0.  1.
         13    1    4    4    0    0  0.25693318043E+02 -0.12398863176E+02  0.71728348924E+01  0.29416457307E+02  0.00000000000E+00 0. -1.
        -13    1    3    3    0    0 -0.26163159359E+02 -0.53609062722E+02  0.58056881036E+02  0.83240879074E+02  0.00000000000E+00 0.  1.
         13    1    3    3    0    0  0.14377278574E+02  0.23547380123E+02 -0.28776938706E+01  0.27739256873E+02  0.00000000000E+00 0. -1.
         -1    1    1    2    0  502  0.17236147037E+02 -0.10738467360E+02 -0.39800904814E+01  0.20693974151E+02  0.00000000000E+00 0.  1.
<scales pt_clust_5="13000.00000" pt_clust_6="13000.00000" pt_clust_7="13000.00000" pt_clust_8="13000.00000" pt_clust_9="20.30762"></scales>
<clustering>
<clus scale="   20.308">  2  9  1 -1</clus>
<clus scale="   85.930">  5  6 -1 -1</clus>
<clus scale="   90.715">  7  8 -1 -1</clus>
<clus scale="   92.431">  2  5  1 -1</clus>
<clus scale="   20.308">  2  5  1 -1</clus>
</clustering>
</event>
<event>
 9    1  0.1321469E-005  0.2604362E+03  0.7546771E-02  0.1106925E+00
          1   -1    0    0  502    0 -0.00000000000E+00  0.00000000000E+00  0.94246865651E+03  0.94246865651E+03  0.00000000000E+00 0. -1.
         21   -1    0    0  501  502  0.00000000000E+00 -0.00000000000E+00 -0.10930756884E+03  0.10930756884E+03  0.00000000000E+00 0. -1.
         23    2    1    2    0    0 -0.17595776007E+03  0.22267382108E+03  0.45788122615E+03  0.54630922973E+03  0.90850389671E+02 0.  0.
         23    2    1    2    0    0  0.12740398970E+03 -0.14570004581E+03  0.14552674139E+03  0.25834571587E+03  0.90023310928E+02 0.  0.
        -11    1    3    3    0    0 -0.71069372370E+02  0.14452736558E+03  0.19684756663E+03  0.25433831717E+03  0.00000000000E+00 0. -1.
         11    1    3    3    0    0 -0.10488838770E+03  0.78146455504E+02  0.26103365951E+03  0.29197091256E+03  0.00000000000E+00 0.  1.
        -11    1    4    4    0    0  0.89439685403E+02 -0.37759201892E+02  0.84279765045E+02  0.12856241071E+03  0.00000000000E+00 0.  1.
         11    1    4    4    0    0  0.37964304292E+02 -0.10794084392E+03  0.61246976342E+02  0.12978330516E+03  0.00000000000E+00 0. -1.
          1    1    1    2  501    0  0.48553770377E+02 -0.76973775269E+02  0.22975312013E+03  0.24712127975E+03  0.00000000000E+00 0. -1.
<scales pt_clust_5="13000.00000" pt_clust_6="13000.00000" pt_clust_7="13000.00000" pt_clust_8="13000.00000" pt_clust_9="91.00791"></scales>
<clustering>
<clus scale="   90.023">  7  8 -1 -1</clus>
<clus scale="   90.850">  5  6 -1 -1</clus>
<clus scale="   91.008">  2  9  1 -1</clus>
<clus scale="  260.149">  2  7  1 -1</clus>
<clus scale="   91.008">  2  5  1 -1</clus>
</clustering>
</event>
<event>
 9    1  0.1321469E-005  0.1060937E+03  0.7546771E-02  0.1268733E+00
         21   -1    0    0  501  502  0.00000000000E+00  0.00000000000E+00  0.42989747707E+02  0.42989747707E+02  0.00000000000E+00 0.  1.
          3   -1    0    0  502    0 -0.00000000000E+00 -0.00000000000E+00 -0.54565075734E+03  0.54565075734E+03  0.00000000000E+00 0. -1.
         23    2    1    2    0    0  0.42691898466E+02  0.16427128606E+02 -0.29193314448E+03  0.30903691582E+03  0.90478758511E+02 0.  0.
         23    2    1    2    0    0 -0.43131742628E+02 -0.53401151237E+02 -0.21352731948E+03  0.24252113034E+03  0.92252654818E+02 0.  0.
        -11    1    3    3    0    0 -0.27594773507E+02 -0.46645410942E+01 -0.83023760838E+02  0.87613779351E+02  0.00000000000E+00 0.  1.
         11    1    3    3    0    0  0.70286671973E+02  0.21091669701E+02 -0.20890938365E+03  0.22142313647E+03  0.00000000000E+00 0. -1.
        -13    1    4    4    0    0 -0.44128493078E+02 -0.74262921582E+02 -0.12759370074E+03  0.15408587830E+03  0.00000000000E+00 0.  1.
         13    1    4    4    0    0  0.99675045020E+00  0.20861770345E+02 -0.85933618737E+02  0.88435252036E+02  0.00000000000E+00 0. -1.
          3    1    1    2  501    0  0.43984416173E+00  0.36974022631E+02  0.27994543346E+01  0.37082458885E+02  0.00000000000E+00 0. -1.
<scales pt_clust_5="13000.00000" pt_clust_6="13000.00000" pt_clust_7="13000.00000" pt_clust_8="13000.00000" pt_clust_9="36.97664"></scales>
<clustering>
<clus scale="   36.977">  1  9  2 -1</clus>
<clus scale="   90.479">  5  6 -1 -1</clus>
<clus scale="   92.253">  7  8 -1 -1</clus>
<clus scale="  104.555">  2  5  1 -1</clus>
<clus scale="   36.977">  1  5  2 -1</clus>
</clustering>
</event>
<event>
 9    1  0.1321469E-005  0.1348695E+03  0.7546771E-02  0.1220919E+00
         21   -1    0    0  501  502  0.00000000000E+00  0.00000000000E+00  0.13365286193E+03  0.13365286193E+03  0.00000000000E+00 0.  1.
          1   -1    0    0  502    0 -0.00000000000E+00 -0.00000000000E+00 -0.29168760775E+03  0.29168760775E+03  0.00000000000E+00 0. -1.
         23    2    1    2    0    0  0.90960467192E+02  0.19954472056E+02 -0.16025216250E+03  0.20635581051E+03  0.90719222883E+02 0.  0.
         23    2    1    2    0    0 -0.12357986379E+03 -0.40664367813E+02  0.42657577455E+02  0.16305317053E+03  0.88549951788E+02 0.  0.
        -11    1    3    3    0    0  0.70528768910E+02  0.53249462742E+02 -0.12880480678E+03  0.15620656445E+03  0.00000000000E+00 0.  1.
         11    1    3    3    0    0  0.20431698283E+02 -0.33294990686E+02 -0.31447355713E+02  0.50149246064E+02  0.00000000000E+00 0. -1.
        -13    1    4    4    0    0 -0.83439477320E+02 -0.14126198555E+02  0.68096863042E+02  0.10862264321E+03  0.00000000000E+00 0.  1.
         13    1    4    4    0    0 -0.40140386475E+02 -0.26538169258E+02 -0.25439285587E+02  0.54430527327E+02  0.00000000000E+00 0. -1.
          1    1    1    2  501    0  0.32619396602E+02  0.20709895757E+02 -0.40440160776E+02  0.55931488632E+02  0.00000000000E+00 0. -1.
<scales pt_clust_5="13000.00000" pt_clust_6="13000.00000" pt_clust_7="13000.00000" pt_clust_8="13000.00000" pt_clust_9="38.63840"></scales>
<clustering>
<clus scale="   38.638">  1  9  2 -1</clus>
<clus scale="   88.550">  7  8 -1 -1</clus>
<clus scale="   90.719">  5  6 -1 -1</clus>
<clus scale="  133.420">  1  7  2 -1</clus>
<clus scale="   38.638">  1  5  2 -1</clus>
</clustering>
</event>
<event>
 9    1  0.1321469E-005  0.1477659E+03  0.7546771E-02  0.1203404E+00
          4   -1    0    0  502    0 -0.00000000000E+00  0.00000000000E+00  0.60088642369E+03  0.60088642369E+03  0.00000000000E+00 0. -1.
         21   -1    0    0  501  502  0.00000000000E+00 -0.00000000000E+00 -0.14129175330E+03  0.14129175330E+03  0.00000000000E+00 0. -1.
         23    2    1    2    0    0 -0.61859754052E+01  0.96025042708E+02  0.27808349052E+03  0.30783463246E+03  0.90402755047E+02 0.  0.
         23    2    1    2    0    0 -0.90923930094E+02 -0.16737582827E+03  0.22277251486E+03  0.30697099603E+03  0.91223736344E+02 0.  0.
        -11    1    4    4    0    0 -0.30213828705E+02 -0.13836916118E+03  0.17123673622E+03  0.22221818117E+03  0.00000000000E+00 0. -1.
         11    1    4    4    0    0 -0.60710101389E+02 -0.29006667087E+02  0.51535778636E+02  0.84752814855E+02  0.00000000000E+00 0.  1.
        -13    1    3    3    0    0  0.40420771150E+02  0.36846694442E+02  0.91237727768E+02  0.10637593995E+03  0.00000000000E+00 0.  1.
         13    1    3    3    0    0 -0.46606746556E+02  0.59178348267E+02  0.18684576276E+03  0.20145869251E+03  0.00000000000E+00 0. -1.
          4    1    1    2  501    0  0.97109905499E+02  0.71350785558E+02 -0.41261335001E+02  0.12737254850E+03  0.00000000000E+00 0. -1.
<scales pt_clust_5="13000.00000" pt_clust_6="13000.00000" pt_clust_7="13000.00000" pt_clust_8="13000.00000" pt_clust_9="120.50423"></scales>
<clustering>
<clus scale="   90.403">  7  8 -1 -1</clus>
<clus scale="   91.224">  5  6 -1 -1</clus>
<clus scale="  120.504">  2  9  1 -1</clus>
<clus scale="  147.260">  1  7  2 -1</clus>
<clus scale="  120.504">  2  5  1 -1</clus>
</clustering>
</event>
<event>
 9    1  0.1321469E-005  0.9603072E+02  0.7546771E-02  0.1303596E+00
          2   -1    0    0  502    0 -0.00000000000E+00  0.00000000000E+00  0.43528061928E+03  0.43528061928E+03  0.00000000000E+00 0. -1.
         21   -1    0    0  501  502  0.00000000000E+00 -0.00000000000E+00 -0.91093348135E+02  0.91093348135E+02  0.00000000000E+00 0. -1.
         23    2    1    2    0    0 -0.12085869743E+02  0.33864621012E+02  0.25267128649E+03  0.26405725980E+03  0.67753794248E+02 0.  0.
         23    2    1    2    0    0  0.47522031074E+01 -0.77781367376E+01  0.16214384050E+03  0.18666896246E+03  0.92041260804E+02 0.  0.
        -11    1    4    4    0    0 -0.33052187803E+02 -0.23526107296E+02  0.36690104779E+02  0.54699987493E+02  0.00000000000E+00 0.  1.
         11    1    4    4    0    0  0.37804390911E+02  0.15747970558E+02  0.12545373572E+03  0.13196897497E+03  0.00000000000E+00 0. -1.
        -11    1    3    3    0    0  0.10144548550E+02  0.47876938104E+02  0.18764395266E+03  0.19392103042E+03  0.00000000000E+00 0. -1.
         11    1    3    3    0    0 -0.22230418293E+02 -0.14012317092E+02  0.65027333826E+02  0.70136229384E+02  0.00000000000E+00 0.  1.
          2    1    1    2  501    0  0.73336666359E+01 -0.26086484274E+02 -0.70627855831E+02  0.75647745158E+02  0.00000000000E+00 0. -1.
<scales pt_clust_5="13000.00000" pt_clust_6="13000.00000" pt_clust_7="13000.00000" pt_clust_8="13000.00000" pt_clust_9="27.09774"></scales>
<clustering>
<clus scale="   27.098">  2  9  1 -1</clus>
<clus scale="   67.754">  7  8 -1 -1</clus>
<clus scale="   73.081">  1  7  2 -1</clus>
<clus scale="   92.041">  5  6 -1 -1</clus>
<clus scale="   27.098">  2  5  1 -1</clus>
</clustering>
</event>
<event>
 9    1  0.1452624E-005  0.1073672E+03  0.7546771E-02  0.1270760E+00
         21   -1    0    0  501  502  0.00000000000E+00  0.00000000000E+00  0.27206244131E+03  0.27206244131E+03  0.00000000000E+00 0.  1.
          2   -1    0    0  502    0 -0.00000000000E+00 -0.00000000000E+00 -0.11968818035E+03  0.11968818035E+03  0.00000000000E+00 0. -1.
         23    2    1    2    0    0 -0.26587257159E+02 -0.12841649906E+02 -0.73299749207E+02  0.12969822865E+03  0.10284448000E+03 0.  0.
         23    2    1    2    0    0  0.22350266398E+02  0.41907911580E+02  0.18303417561E+03  0.21027445224E+03  0.91967539727E+02 0.  0.
        -11    1    4    4    0    0  0.20631841141E+02  0.70785169417E+02  0.11869291271E+03  0.13972909720E+03  0.00000000000E+00 0.  1.
         11    1    4    4    0    0  0.17184252566E+01 -0.28877257838E+02  0.64341262906E+02  0.70545355041E+02  0.00000000000E+00 0. -1.
        -13    1    3    3    0    0  0.37753920655E+02  0.84879756895E+01 -0.20600528855E+02  0.43838180223E+02  0.00000000000E+00 0.  1.
         13    1    3    3    0    0 -0.64341177814E+02 -0.21329625595E+02 -0.52699220352E+02  0.85860048429E+02  0.00000000000E+00 0. -1.
          2    1    1    2  501    0  0.42369907615E+01 -0.29066261674E+02  0.42639834557E+02  0.51777940761E+02  0.00000000000E+00 0. -1.
<scales pt_clust_5="13000.00000" pt_clust_6="13000.00000" pt_clust_7="13000.00000" pt_clust_8="13000.00000" pt_clust_9="29.37345"></scales>
<clustering>
<clus scale="   29.373">  1  9  2 -1</clus>
<clus scale="   91.968">  5  6 -1 -1</clus>
<clus scale="   96.999">  1  5  2 -1</clus>
<clus scale="  102.844">  7  8 -1 -1</clus>
<clus scale="   29.373">  1  5  2 -1</clus>
</clustering>
</event>
<event>
 9    1  0.1321469E-005  0.9695214E+02  0.7546771E-02  0.1287293E+00
         21   -1    0    0  501  502  0.00000000000E+00  0.00000000000E+00  0.23503368795E+03  0.23503368795E+03  0.00000000000E+00 0.  1.
          1   -1    0    0  502    0 -0.00000000000E+00 -0.00000000000E+00 -0.95747519913E+02  0.95747519913E+02  0.00000000000E+00 0. -1.
         23    2    1    2    0    0 -0.13873194617E+02  0.18037698938E+02 -0.11513311856E+02  0.94892318827E+02  0.91401158147E+02 0.  0.
         23    2    1    2    0    0  0.41102409402E+02 -0.14547088415E+02  0.22259499317E+02  0.10445015386E+03  0.92267673053E+02 0.  0.
        -11    1    3    3    0    0  0.24391516190E+02  0.42140479280E+02 -0.96056169441E+01  0.49628962641E+02  0.00000000000E+00 0. -1.
         11    1    3    3    0    0 -0.38264710807E+02 -0.24102780342E+02 -0.19076949114E+01  0.45263356186E+02  0.00000000000E+00 0.  1.
        -11    1    4    4    0    0  0.59797938275E+02  0.19641539272E+02  0.16428582705E+02  0.65049841019E+02  0.00000000000E+00 0. -1.
         11    1    4    4    0    0 -0.18695528874E+02 -0.34188627687E+02  0.58309166119E+01  0.39400312836E+02  0.00000000000E+00 0.  1.
          1    1    1    2  501    0 -0.27229214784E+02 -0.34906105223E+01  0.12853998057E+03  0.13143873518E+03  0.00000000000E+00 0. -1.
<scales pt_clust_5="13000.00000" pt_clust_6="13000.00000" pt_clust_7="13000.00000" pt_clust_8="13000.00000" pt_clust_9="27.45204"></scales>
<clustering>
<clus scale="   27.452">  1  9  2 -1</clus>
<clus scale="   91.401">  5  6 -1 -1</clus>
<clus scale="   92.268">  7  8 -1 -1</clus>
<clus scale="   96.128">  2  5  1 -1</clus>
<clus scale="   27.452">  1  5  2 -1</clus>
</clustering>
</event>
<event>
 9    1  0.1321469E-005  0.1255811E+03  0.7546771E-02  0.1234487E+00
         -1   -1    0    0    0  501 -0.00000000000E+00  0.00000000000E+00  0.81160532033E+02  0.81160532033E+02  0.00000000000E+00 0.  1.
         21   -1    0    0  501  502  0.00000000000E+00 -0.00000000000E+00 -0.37461036353E+03  0.37461036353E+03  0.00000000000E+00 0.  1.
         23    2    1    2    0    0 -0.49119780509E+02  0.63297849699E+02 -0.10008542468E+03  0.15690171883E+03  0.90452675603E+02 0.  0.
         23    2    1    2    0    0 -0.18747412980E+02 -0.10872050178E+03 -0.93949663448E+02  0.17021279534E+03  0.89298619452E+02 0.  0.
        -11    1    3    3    0    0 -0.31416020486E+02 -0.18941587103E+02 -0.28876651413E+02  0.46686304865E+02  0.00000000000E+00 0.  1.
         11    1    3    3    0    0 -0.17703760023E+02  0.82239436803E+02 -0.71208773270E+02  0.11021541396E+03  0.00000000000E+00 0. -1.
        -13    1    4    4    0    0 -0.13170166311E+02 -0.67873963511E+02 -0.10662771168E+03  0.12708185197E+03  0.00000000000E+00 0.  1.
         13    1    4    4    0    0 -0.55772466686E+01 -0.40846538269E+02  0.12678048231E+02  0.43130943369E+02  0.00000000000E+00 0. -1.
         -1    1    1    2    0  502  0.67867193489E+02  0.45422652080E+02 -0.99414743371E+02  0.12865638139E+03  0.00000000000E+00 0.  1.
<scales pt_clust_5="13000.00000" pt_clust_6="13000.00000" pt_clust_7="13000.00000" pt_clust_8="13000.00000" pt_clust_9="81.66501"></scales>
<clustering>
<clus scale="   81.665">  2  9  1 -1</clus>
<clus scale="   89.299">  7  8 -1 -1</clus>
<clus scale="   90.453">  5  6 -1 -1</clus>
<clus scale="  124.752">  2  7  1 -1</clus>
<clus scale="   81.665">  2  5  1 -1</clus>
</clustering>
</event>
<event>
 9    1  0.1321469E-005  0.9677677E+02  0.7546771E-02  0.1288293E+00
         -1   -1    0    0    0  501 -0.00000000000E+00  0.00000000000E+00  0.50994046374E+03  0.50994046374E+03  0.00000000000E+00 0.  1.
         21   -1    0    0  501  502  0.00000000000E+00 -0.00000000000E+00 -0.38196182381E+02  0.38196182381E+02  0.00000000000E+00 0.  1.
         23    2    1    2    0    0 -0.40700380376E+02 -0.15477170338E+02  0.27748718825E+03  0.29606145955E+03  0.93579829154E+02 0.  0.
         23    2    1    2    0    0  0.50691290121E+01 -0.15490147009E+02  0.18023945613E+03  0.20283033949E+03  0.91587359112E+02 0.  0.
        -11    1    3    3    0    0 -0.66956470970E+01 -0.51948028990E+02  0.16235781754E+03  0.17059745111E+03  0.00000000000E+00 0.  1.
         11    1    3    3    0    0 -0.34004733279E+02  0.36470858652E+02  0.11512937071E+03  0.12546400845E+03  0.00000000000E+00 0. -1.
        -11    1    4    4    0    0  0.43865975121E+02 -0.27353316053E+00  0.13191845849E+03  0.13902078364E+03  0.00000000000E+00 0. -1.
         11    1    4    4    0    0 -0.38796846109E+02 -0.15216613848E+02  0.48320997639E+02  0.63809555850E+02  0.00000000000E+00 0.  1.
         -1    1    1    2    0  502  0.35631251364E+02  0.30967317346E+02  0.14017636981E+02  0.49244847080E+02  0.00000000000E+00 0.  1.
<scales pt_clust_5="13000.00000" pt_clust_6="13000.00000" pt_clust_7="13000.00000" pt_clust_8="13000.00000" pt_clust_9="47.20764"></scales>
<clustering>
<clus scale="   47.208">  2  9  1 -1</clus>
<clus scale="   91.587">  7  8 -1 -1</clus>
<clus scale="   93.580">  5  6 -1 -1</clus>
<clus scale="   94.851">  2  7  1 -1</clus>
<clus scale="   47.208">  2  5  1 -1</clus>
</clustering>
</event>
<event>
 9    1  0.1321469E-005  0.1817599E+03  0.7546771E-02  0.1166558E+00
          1   -1    0    0  502    0 -0.00000000000E+00  0.00000000000E+00  0.13379617929E+03  0.13379617929E+03  0.00000000000E+00 0. -1.
         21   -1    0    0  501  502  0.00000000000E+00 -0.00000000000E+00 -0.35500121804E+03  0.35500121804E+03  0.00000000000E+00 0. -1.
         23    2    1    2    0    0  0.10997309487E+03  0.10387336575E+03  0.51450430361E+01  0.17699500450E+03  0.91744222929E+02 0.  0.
         23    2    1    2    0    0 -0.10585261274E+03 -0.12640433889E+03 -0.19137441038E+03  0.26999425111E+03  0.95340957475E+02 0.  0.
        -11    1    3    3    0    0  0.56766907186E+02  0.10927296027E+03  0.83375703798E+01  0.12342032522E+03  0.00000000000E+00 0.  1.
         11    1    3    3    0    0  0.53206187688E+02 -0.53995945160E+01 -0.31925273437E+01  0.53574679281E+02  0.00000000000E+00 0. -1.
        -13    1    4    4    0    0 -0.24349608921E+02 -0.10153793413E+03 -0.11778423350E+03  0.15740387919E+03  0.00000000000E+00 0. -1.
         13    1    4    4    0    0 -0.81503003822E+02 -0.24866404758E+02 -0.73590176882E+02  0.11259037193E+03  0.00000000000E+00 0.  1.
          1    1    1    2  501    0 -0.41204821308E+01  0.22530973137E+02 -0.34975671406E+02  0.41808141716E+02  0.00000000000E+00 0. -1.
<scales pt_clust_5="13000.00000" pt_clust_6="13000.00000" pt_clust_7="13000.00000" pt_clust_8="13000.00000" pt_clust_9="22.90465"></scales>
<clustering>
<clus scale="   22.905">  2  9  1 -1</clus>
<clus scale="   91.744">  5  6 -1 -1</clus>
<clus scale="   95.341">  7  8 -1 -1</clus>
<clus scale="  179.899">  1  5  2 -1</clus>
<clus scale="   22.905">  2  5  1 -1</clus>
</clustering>
</event>
<event>
 9    1  0.1321469E-005  0.1117778E+03  0.7546771E-02  0.1262301E+00
         21   -1    0    0  501  502  0.00000000000E+00  0.00000000000E+00  0.78017145319E+02  0.78017145319E+02  0.00000000000E+00 0. -1.
         -4   -1    0    0    0  501 -0.00000000000E+00 -0.00000000000E+00 -0.22220540665E+03  0.22220540665E+03  0.00000000000E+00 0.  1.
         23    2    1    2    0    0  0.33790837235E+02 -0.68157333126E+02 -0.12425871241E+03  0.16416610793E+03  0.75650780850E+02 0.  0.
         23    2    1    2    0    0 -0.20204029843E+02  0.47020346197E+02 -0.32693656803E+02  0.10787318658E+03  0.89155108707E+02 0.  0.
        -13    1    4    4    0    0 -0.26997552399E+02  0.71844671310E+02 -0.28083594839E+02  0.81726451840E+02  0.00000000000E+00 0.  1.
         13    1    4    4    0    0  0.67935225564E+01 -0.24824325113E+02 -0.46100619637E+01  0.26146734736E+02  0.00000000000E+00 0. -1.
        -13    1    3    3    0    0  0.20847390051E+02  0.54196903868E+01 -0.30095616458E+01  0.21749578781E+02  0.00000000000E+00 0.  1.
         13    1    3    3    0    0  0.12943447183E+02 -0.73577023513E+02 -0.12124915076E+03  0.14241652915E+03  0.00000000000E+00 0. -1.
         -4    1    1    2    0  502 -0.13586807392E+02  0.21136986929E+02  0.12764107877E+02  0.28183257467E+02  0.00000000000E+00 0.  1.
<scales pt_clust_5="13000.00000" pt_clust_6="13000.00000" pt_clust_7="13000.00000" pt_clust_8="13000.00000" pt_clust_9="25.12715"></scales>
<clustering>
<clus scale="   25.127">  1  9  2 -1</clus>
<clus scale="   75.651">  7  8 -1 -1</clus>
<clus scale="   89.155">  5  6 -1 -1</clus>
<clus scale="  101.335">  2  7  1 -1</clus>
<clus scale="   25.127">  1  5  2 -1</clus>
</clustering>
</event>
<event>
 9    1  0.1321469E-005  0.1195883E+03  0.7546771E-02  0.1251046E+00
         21   -1    0    0  501  502  0.00000000000E+00  0.00000000000E+00  0.33661697336E+02  0.33661697336E+02  0.00000000000E+00 0. -1.
         -1   -1    0    0    0  501 -0.00000000000E+00 -0.00000000000E+00 -0.62989776510E+03  0.62989776510E+03  0.00000000000E+00 0.  1.
         23    2    1    2    0    0  0.77288237227E+01 -0.51342746017E+02 -0.36523084630E+03  0.38471616427E+03  0.10916567080E+03 0.  0.
         23    2    1    2    0    0  0.39379170026E+02  0.41902619676E+02 -0.16873364423E+03  0.20019198926E+03  0.91100171800E+02 0.  0.
        -11    1    3    3    0    0 -0.11873767812E+02 -0.82589390251E+02 -0.23556248974E+03  0.24990334195E+03  0.00000000000E+00 0.  1.
         11    1    3    3    0    0  0.19602591534E+02  0.31246644234E+02 -0.12966835655E+03  0.13481282232E+03  0.00000000000E+00 0. -1.
        -13    1    4    4    0    0  0.50706799597E+02 -0.39817149290E+01 -0.12822824734E+03  0.13794751536E+03  0.00000000000E+00 0.  1.
         13    1    4    4    0    0 -0.11327629570E+02  0.45884334605E+02 -0.40505396893E+02  0.62244473902E+02  0.00000000000E+00 0. -1.
         -1    1    1    2    0  502 -0.47107993749E+02  0.94401263409E+01 -0.62271577236E+02  0.78651308901E+02  0.00000000000E+00 0.  1.
<scales pt_clust_5="13000.00000" pt_clust_6="13000.00000" pt_clust_7="13000.00000" pt_clust_8="13000.00000" pt_clust_9="48.04455"></scales>
<clustering>
<clus scale="   48.045">  1  9  2 -1</clus>
<clus scale="   91.100">  7  8 -1 -1</clus>
<clus scale="  103.361">  1  7  2 -1</clus>
<clus scale="  109.166">  5  6 -1 -1</clus>
<clus scale="   48.045">  1  5  2 -1</clus>
</clustering>
</event>
<event>
 9    1  0.1321469E-005  0.9286095E+02  0.7546771E-02  0.1296982E+00
         21   -1    0    0  501  502  0.00000000000E+00  0.00000000000E+00  0.88907016121E+02  0.88907016121E+02  0.00000000000E+00 0.  1.
          1   -1    0    0  502    0 -0.00000000000E+00 -0.00000000000E+00 -0.18835619163E+03  0.18835619163E+03  0.00000000000E+00 0. -1.
         23    2    1    2    0    0 -0.21726880900E+02 -0.88410495473E+00 -0.90574165966E+02  0.12914012363E+03  0.89446369381E+02 0.  0.
         23    2    1    2    0    0  0.51156911086E+01 -0.27445351863E+02 -0.39620352242E+02  0.10313679902E+03  0.91038504856E+02 0.  0.
        -11    1    4    4    0    0  0.46009954370E+02 -0.45908229201E+01 -0.88220474763E+01  0.47072498106E+02  0.00000000000E+00 0. -1.
         11    1    4    4    0    0 -0.40894263261E+02 -0.22854528943E+02 -0.30798304766E+02  0.56064300917E+02  0.00000000000E+00 0.  1.
        -11    1    3    3    0    0 -0.41848114988E+02 -0.21431650026E+02 -0.88614047018E+02  0.10031465336E+03  0.00000000000E+00 0.  1.
         11    1    3    3    0    0  0.20121234088E+02  0.20547545071E+02 -0.19601189479E+01  0.28825470265E+02  0.00000000000E+00 0. -1.
          1    1    1    2  501    0  0.16611189791E+02  0.28329456818E+02  0.30745342695E+02  0.44986285102E+02  0.00000000000E+00 0. -1.
<scales pt_clust_5="13000.00000" pt_clust_6="13000.00000" pt_clust_7="13000.00000" pt_clust_8="13000.00000" pt_clust_9="32.84037"></scales>
<clustering>
<clus scale="   32.840">  1  9  2 -1</clus>
<clus scale="   89.446">  7  8 -1 -1</clus>
<clus scale="   91.039">  5  6 -1 -1</clus>
<clus scale="   91.301">  2  7  1 -1</clus>
<clus scale="   32.840">  1  5  2 -1</clus>
</clustering>
</event>
<event>
 9    1  0.1321469E-005  0.9447700E+02  0.7546771E-02  0.1292708E+00
         -3   -1    0    0    0  501 -0.00000000000E+00  0.00000000000E+00  0.19844129442E+03  0.19844129442E+03  0.00000000000E+00 0.  1.
         21   -1    0    0  501  502  0.00000000000E+00 -0.00000000000E+00 -0.90996622509E+02  0.90996622509E+02  0.00000000000E+00 0. -1.
         23    2    1    2    0    0 -0.51472607314E+01  0.16155756126E+02  0.97520535468E+02  0.13505473254E+03  0.91880483202E+02 0.  0.
         23    2    1    2    0    0 -0.17982131322E+02 -0.30844170793E+02  0.46681697645E+02  0.10853739279E+03  0.91249464762E+02 0.  0.
        -13    1    3    3    0    0 -0.50943870884E+01 -0.38320772792E+02  0.45837539559E+02  0.59962608683E+02  0.00000000000E+00 0. -1.
         13    1    3    3    0    0 -0.52873642998E-01  0.54476528919E+02  0.51682995909E+02  0.75092123853E+02  0.00000000000E+00 0.  1.
        -13    1    4    4    0    0  0.25354859423E+02 -0.10310834477E+02  0.53504453102E+02  0.60099157280E+02  0.00000000000E+00 0.  1.
         13    1    4    4    0    0 -0.43336990745E+02 -0.20533336316E+02 -0.68227554569E+01  0.48438235508E+02  0.00000000000E+00 0. -1.
         -3    1    1    2    0  502  0.23129392053E+02  0.14688414667E+02 -0.36757561204E+02  0.45845791604E+02  0.00000000000E+00 0.  1.
<scales pt_clust_5="13000.00000" pt_clust_6="13000.00000" pt_clust_7="13000.00000" pt_clust_8="13000.00000" pt_clust_9="27.39924"></scales>
<clustering>
<clus scale="   27.399">  2  9  1 -1</clus>
<clus scale="   91.249">  7  8 -1 -1</clus>
<clus scale="   91.880">  5  6 -1 -1</clus>
<clus scale="   93.863">  2  7  1 -1</clus>
<clus scale="   27.399">  2  5  1 -1</clus>
</clustering>
</event>
<event>
 9    1  0.1321469E-005  0.9510537E+02  0.7546771E-02  0.1292339E+00
         21   -1    0    0  501  502  0.00000000000E+00  0.00000000000E+00  0.22393934344E+03  0.22393934344E+03  0.00000000000E+00 0. -1.
          1   -1    0    0  502    0 -0.00000000000E+00 -0.00000000000E+00 -0.15107161708E+03  0.15107161708E+03  0.00000000000E+00 0. -1.
         23    2    1    2    0    0 -0.90869607922E+01 -0.36777555649E+01 -0.90242094837E+02  0.12890015931E+03  0.91517848793E+02 0.  0.
         23    2    1    2    0    0  0.31530980418E+02 -0.41455340695E+02  0.42813590604E+02  0.11568107497E+03  0.94001912568E+02 0.  0.
        -11    1    3    3    0    0  0.30400011518E+02 -0.30966384413E+02 -0.35254543045E+02  0.55910289476E+02  0.00000000000E+00 0. -1.
         11    1    3    3    0    0 -0.39486972311E+02  0.27288628848E+02 -0.54987551791E+02  0.72989869836E+02  0.00000000000E+00 0.  1.
        -11    1    4    4    0    0 -0.24084628343E+02  0.62182535568E+01 -0.84526862385E+01  0.26271351400E+02  0.00000000000E+00 0.  1.
         11    1    4    4    0    0  0.55615608761E+02 -0.47673594252E+02  0.51266276842E+02  0.89409723565E+02  0.00000000000E+00 0. -1.
          1    1    1    2  501    0 -0.22444019626E+02  0.45133096260E+02  0.12029623059E+03  0.13042972625E+03  0.00000000000E+00 0. -1.
<scales pt_clust_5="13000.00000" pt_clust_6="13000.00000" pt_clust_7="13000.00000" pt_clust_8="13000.00000" pt_clust_9="50.40566"></scales>
<clustering>
<clus scale="   50.406">  1  9  2 -1</clus>
<clus scale="   91.518">  5  6 -1 -1</clus>
<clus scale="   92.651">  2  5  1 -1</clus>
<clus scale="   94.002">  7  8 -1 -1</clus>
<clus scale="   50.406">  1  5  2 -1</clus>
</clustering>
</event>
<event>
 9    1  0.1321469E-005  0.9418864E+02  0.7546771E-02  0.1293167E+00
         21   -1    0    0  501  502  0.00000000000E+00  0.00000000000E+00  0.36005075241E+02  0.36005075241E+02  0.00000000000E+00 0.  1.
          3   -1    0    0  502    0 -0.00000000000E+00 -0.00000000000E+00 -0.53888858753E+03  0.53888858753E+03  0.00000000000E+00 0. -1.
         23    2    1    2    0    0  0.42277175291E+02  0.40890481342E+02 -0.23481445442E+03  0.25873042667E+03  0.91346672995E+02 0.  0.
         23    2    1    2    0    0  0.14149147770E+02  0.85406500861E+01 -0.15197699123E+03  0.17794335828E+03  0.91069708490E+02 0.  0.
        -11    1    4    4    0    0 -0.17292015290E+02  0.35483047474E+02 -0.31347961973E+02  0.50405904125E+02  0.00000000000E+00 0.  1.
         11    1    4    4    0    0  0.31441163060E+02 -0.26942397388E+02 -0.12062902926E+03  0.12753745415E+03  0.00000000000E+00 0. -1.
        -13    1    3    3    0    0 -0.11891339930E+02 -0.22306403886E+02 -0.49473454752E+02  0.55557198856E+02  0.00000000000E+00 0. -1.
         13    1    3    3    0    0  0.54168515220E+02  0.63196885229E+02 -0.18534099966E+03  0.20317322781E+03  0.00000000000E+00 0.  1.
          3    1    1    2  501    0 -0.56426323061E+02 -0.49431131428E+02 -0.11609206664E+03  0.13821987782E+03  0.00000000000E+00 0. -1.
<scales pt_clust_5="13000.00000" pt_clust_6="13000.00000" pt_clust_7="13000.00000" pt_clust_8="13000.00000" pt_clust_9="75.01578"></scales>
<clustering>
<clus scale="   75.016">  1  9  2 -1</clus>
<clus scale="   91.070">  5  6 -1 -1</clus>
<clus scale="   91.347">  7  8 -1 -1</clus>
<clus scale="   93.920">  1  5  2 -1</clus>
<clus scale="   75.016">  1  5  2 -1</clus>
</clustering>
</event>
<event>
 9    1  0.1321469E-005  0.9601495E+02  0.7546771E-02  0.1289027E+00
         21   -1    0    0  501  502  0.00000000000E+00  0.00000000000E+00  0.23207020290E+02  0.23207020290E+02  0.00000000000E+00 0. -1.
          1   -1    0    0  502    0 -0.00000000000E+00 -0.00000000000E+00 -0.55838746908E+03  0.55838746908E+03  0.00000000000E+00 0. -1.
         23    2    1    2    0    0  0.74501160485E+01 -0.26081498252E+02 -0.32410202895E+03  0.33811149101E+03  0.92420270533E+02 0.  0.
         23    2    1    2    0    0  0.15766138425E+02  0.25872352489E+02 -0.18216148169E+03  0.20639893809E+03  0.92194178176E+02 0.  0.
        -11    1    4    4    0    0 -0.27971529945E+01 -0.32862253909E+02 -0.86991394300E+02  0.93033620155E+02  0.00000000000E+00 0.  1.
         11    1    4    4    0    0  0.18563291420E+02  0.58734606397E+02 -0.95170087391E+02  0.11336531794E+03  0.00000000000E+00 0. -1.
        -13    1    3    3    0    0 -0.38892719140E+02 -0.21333135997E+02 -0.10285116869E+03  0.11200941565E+03  0.00000000000E+00 0.  1.
         13    1    3    3    0    0  0.46342835188E+02 -0.47483622542E+01 -0.22125086026E+03  0.22610207536E+03  0.00000000000E+00 0. -1.
          1    1    1    2  501    0 -0.23216254474E+02  0.20914576303E+00 -0.28916938146E+02  0.37084060262E+02  0.00000000000E+00 0. -1.
<scales pt_clust_5="13000.00000" pt_clust_6="13000.00000" pt_clust_7="13000.00000" pt_clust_8="13000.00000" pt_clust_9="23.21720"></scales>
<clustering>
<clus scale="   23.217">  1  9  2 -1</clus>
<clus scale="   92.194">  5  6 -1 -1</clus>
<clus scale="   92.420">  7  8 -1 -1</clus>
<clus scale="   95.797">  1  5  2 -1</clus>
<clus scale="   23.217">  1  5  2 -1</clus>
</clustering>
</event>
<event>
 9    1  0.1321469E-005  0.2113076E+03  0.7546771E-02  0.1140784E+00
         21   -1    0    0  501  502  0.00000000000E+00  0.00000000000E+00  0.52273898166E+02  0.52273898166E+02  0.00000000000E+00 0.  1.
          1   -1    0    0  502    0 -0.00000000000E+00 -0.00000000000E+00 -0.14018692756E+04  0.14018692756E+04  0.00000000000E+00 0. -1.
         23    2    1    2    0    0 -0.18795023913E+03 -0.35323948851E+02 -0.10788528713E+04  0.10997214671E+04  0.94290580252E+02 0.  0.
         23    2    1    2    0    0  0.17459232790E+03  0.53719616571E+02 -0.25519876676E+03  0.32688187701E+03  0.91417026842E+02 0.  0.
        -11    1    3    3    0    0 -0.21548001822E+02  0.25538579677E+02 -0.11667180556E+03  0.12136245567E+03  0.00000000000E+00 0.  1.
         11    1    3    3    0    0 -0.16640223731E+03 -0.60862528527E+02 -0.96218106576E+03  0.97835901144E+03  0.00000000000E+00 0. -1.
        -11    1    4    4    0    0  0.83666022579E+02  0.66872162274E+02 -0.17371559656E+03  0.20408086121E+03  0.00000000000E+00 0.  1.
         11    1    4    4    0    0  0.90926305316E+02 -0.13152545703E+02 -0.81483170198E+02  0.12280101580E+03  0.00000000000E+00 0. -1.
          1    1    1    2  501    0  0.13357911234E+02 -0.18395667720E+02 -0.15543739343E+02  0.27539829632E+02  0.00000000000E+00 0. -1.
<scales pt_clust_5="13000.00000" pt_clust_6="13000.00000" pt_clust_7="13000.00000" pt_clust_8="13000.00000" pt_clust_9="22.73399"></scales>
<clustering>
<clus scale="   22.734">  1  9  2 -1</clus>
<clus scale="   91.417">  7  8 -1 -1</clus>
<clus scale="   94.291">  5  6 -1 -1</clus>
<clus scale="  210.041">  1  7  2 -1</clus>
<clus scale="   22.734">  1  5  2 -1</clus>
</clustering>
</event>
<event>
 9    1  0.1321469E-005  0.1574187E+03  0.7546771E-02  0.1191810E+00
         21   -1    0    0  501  502  0.00000000000E+00  0.00000000000E+00  0.22317615176E+03  0.22317615176E+03  0.00000000000E+00 0.  1.
          2   -1    0    0  502    0 -0.00000000000E+00 -0.00000000000E+00 -0.38640633296E+03  0.38640633296E+03  0.00000000000E+00 0. -1.
         23    2    1    2    0    0 -0.18456353154E+01  0.12332596580E+03 -0.29692603950E+03  0.33422054342E+03  0.91244717664E+02 0.  0.
         23    2    1    2    0    0 -0.13153875370E+02 -0.16738362846E+03  0.12284675299E+03  0.22757317646E+03  0.92238399854E+02 0.  0.
        -11    1    4    4    0    0 -0.52812322045E+02 -0.10669645414E+03  0.74759590632E+02  0.14057834498E+03  0.00000000000E+00 0.  1.
         11    1    4    4    0    0  0.39658446675E+02 -0.60687174323E+02  0.48087162361E+02  0.86994831478E+02  0.00000000000E+00 0. -1.
        -13    1    3    3    0    0 -0.60791850304E+00  0.25124449913E+02 -0.42270800946E+01  0.25484814193E+02  0.00000000000E+00 0.  1.
         13    1    3    3    0    0 -0.12377168124E+01  0.98201515892E+02 -0.29269895940E+03  0.30873572923E+03  0.00000000000E+00 0. -1.
          2    1    1    2  501    0  0.14999510686E+02  0.44057662656E+02  0.10849105308E+02  0.47788764846E+02  0.00000000000E+00 0. -1.
<scales pt_clust_5="13000.00000" pt_clust_6="13000.00000" pt_clust_7="13000.00000" pt_clust_8="13000.00000" pt_clust_9="46.54098"></scales>
<clustering>
<clus scale="   46.541">  1  9  2 -1</clus>
<clus scale="   91.245">  7  8 -1 -1</clus>
<clus scale="   92.238">  5  6 -1 -1</clus>
<clus scale="  156.838">  2  7  1 -1</clus>
<clus scale="   46.541">  1  5  2 -1</clus>
</clustering>
</event>
<event>
 9    1  0.1321469E-005  0.1223388E+03  0.7546771E-02  0.1240439E+00
          1   -1    0    0  502    0 -0.00000000000E+00  0.00000000000E+00  0.61381667511E+03  0.61381667511E+03  0.00000000000E+00 0. -1.
         21   -1    0    0  501  502  0.00000000000E+00 -0.00000000000E+00 -0.45403546744E+02  0.45403546744E+02  0.00000000000E+00 0. -1.
         23    2    1    2    0    0  0.65873585637E+02  0.61071276041E+02  0.36113842421E+03  0.38400870391E+03  0.94724300948E+02 0.  0.
         23    2    1    2    0    0 -0.47736225314E+02 -0.41312532263E+02  0.21939289744E+03  0.24577986145E+03  0.91044078990E+02 0.  0.
        -11    1    3    3    0    0  0.42873219994E+02  0.62897186552E+02  0.35037625148E+03  0.35854942012E+03  0.00000000000E+00 0.  1.
         11    1    3    3    0    0  0.23000365643E+02 -0.18259105105E+01  0.10762172737E+02  0.25459283787E+02  0.00000000000E+00 0. -1.
        -11    1    4    4    0    0 -0.31998923955E+02 -0.65121366307E+01  0.11829048267E+02  0.34731332262E+02  0.00000000000E+00 0.  1.
         11    1    4    4    0    0 -0.15737301359E+02 -0.34800395632E+02  0.20756384917E+03  0.21104852919E+03  0.00000000000E+00 0. -1.
          1    1    1    2  501    0 -0.18137360323E+02 -0.19758743778E+02 -0.12118193291E+02  0.29431656492E+02  0.00000000000E+00 0. -1.
<scales pt_clust_5="13000.00000" pt_clust_6="13000.00000" pt_clust_7="13000.00000" pt_clust_8="13000.00000" pt_clust_9="26.82111"></scales>
<clustering>
<clus scale="   26.821">  2  9  1 -1</clus>
<clus scale="   91.044">  7  8 -1 -1</clus>
<clus scale="   94.724">  5  6 -1 -1</clus>
<clus scale="  119.512">  2  7  1 -1</clus>
<clus scale="   26.821">  2  5  1 -1</clus>
</clustering>
</event>
<event>
 9    1  0.1321469E-005  0.9867663E+02  0.7546771E-02  0.1283702E+00
         21   -1    0    0  501  502  0.00000000000E+00  0.00000000000E+00  0.16726396216E+03  0.16726396216E+03  0.00000000000E+00 0. -1.
         -1   -1    0    0    0  501 -0.00000000000E+00 -0.00000000000E+00 -0.84674383382E+02  0.84674383382E+02  0.00000000000E+00 0.  1.
         23    2    1    2    0    0  0.25582418000E+02  0.27295195260E+02  0.14631747676E+01  0.10102492686E+03  0.93831802564E+02 0.  0.
         23    2    1    2    0    0  0.32870934468E+01 -0.26511580862E+02  0.50655128380E+02  0.10893054858E+03  0.92662039049E+02 0.  0.
        -11    1    4    4    0    0 -0.14707913728E+02  0.28790216213E+02  0.81506943117E+00  0.32339814687E+02  0.00000000000E+00 0.  1.
         11    1    4    4    0    0  0.17995007175E+02 -0.55301797075E+02  0.49840058949E+02  0.76590733898E+02  0.00000000000E+00 0. -1.
        -11    1    3    3    0    0  0.24924832167E+02  0.51642435794E+02  0.29002873576E+02  0.64260058426E+02  0.00000000000E+00 0.  1.
         11    1    3    3    0    0  0.65758583244E+00 -0.24347240534E+02 -0.27539698808E+02  0.36764868437E+02  0.00000000000E+00 0. -1.
         -1    1    1    2    0  502 -0.28869511447E+02 -0.78361439728E+00  0.30471275626E+02  0.41982870090E+02  0.00000000000E+00 0.  1.
<scales pt_clust_5="13000.00000" pt_clust_6="13000.00000" pt_clust_7="13000.00000" pt_clust_8="13000.00000" pt_clust_9="28.88014"></scales>
<clustering>
<clus scale="   28.880">  1  9  2 -1</clus>
<clus scale="   92.662">  5  6 -1 -1</clus>
<clus scale="   93.832">  7  8 -1 -1</clus>
<clus scale="   97.565">  1  5  2 -1</clus>
<clus scale="   28.880">  1  5  2 -1</clus>
</clustering>
</event>
<event>
 9    1  0.1321469E-005  0.9929286E+02  0.7546771E-02  0.1282024E+00
         21   -1    0    0  501  502  0.00000000000E+00  0.00000000000E+00  0.77579999503E+02  0.77579999503E+02  0.00000000000E+00 0.  1.
          1   -1    0    0  502    0 -0.00000000000E+00 -0.00000000000E+00 -0.35889023553E+03  0.35889023553E+03  0.00000000000E+00 0. -1.
         23    2    1    2    0    0 -0.35534699057E+02  0.15252958197E+02 -0.16469948036E+03  0.19223531211E+03  0.91285972739E+02 0.  0.
         23    2    1    2    0    0  0.21635792396E+02 -0.38167233301E+02 -0.16240761801E+03  0.19117273101E+03  0.90807122420E+02 0.  0.
        -13    1    4    4    0    0  0.19337599182E+02 -0.67756034108E+02 -0.12417241321E+03  0.14277118443E+03  0.00000000000E+00 0. -1.
         13    1    4    4    0    0  0.22981932146E+01  0.29588800807E+02 -0.38235204800E+02  0.48401546580E+02  0.00000000000E+00 0.  1.
        -13    1    3    3    0    0  0.64878126109E+00 -0.25981011479E+02 -0.11601109137E+03  0.11888653076E+03  0.00000000000E+00 0. -1.
         13    1    3    3    0    0 -0.36183480318E+02  0.41233969675E+02 -0.48688388995E+02  0.73348781353E+02  0.00000000000E+00 0.  1.
          1    1    1    2  501    0  0.13898906660E+02  0.22914275105E+02  0.45796862348E+02  0.53062191915E+02  0.00000000000E+00 0. -1.
<scales pt_clust_5="13000.00000" pt_clust_6="13000.00000" pt_clust_7="13000.00000" pt_clust_8="13000.00000" pt_clust_9="26.80007"></scales>
<clustering>
<clus scale="   26.800">  1  9  2 -1</clus>
<clus scale="   90.807">  5  6 -1 -1</clus>
<clus scale="   91.286">  7  8 -1 -1</clus>
<clus scale="   98.853">  1  5  2 -1</clus>
<clus scale="   26.800">  1  5  2 -1</clus>
</clustering>
</event>
<event>
 9    1  0.1321469E-005  0.1104975E+03  0.7546771E-02  0.1263796E+00
         21   -1    0    0  501  502  0.00000000000E+00  0.00000000000E+00  0.17400067986E+03  0.17400067986E+03  0.00000000000E+00 0.  1.
         -2   -1    0    0    0  501 -0.00000000000E+00 -0.00000000000E+00 -0.39734765798E+03  0.39734765798E+03  0.00000000000E+00 0.  1.
         23    2    1    2    0    0 -0.44216463953E+02  0.57050736666E+01 -0.34010855571E+03  0.35504506118E+03  0.91627082510E+02 0.  0.
         23    2    1    2    0    0  0.36383155119E+02 -0.47999350940E+02  0.33158881224E+02  0.12228424956E+03  0.10112494559E+03 0.  0.
        -11    1    3    3    0    0 -0.25080680951E+02 -0.40125851061E+02 -0.11188427604E+03  0.12147928097E+03  0.00000000000E+00 0. -1.
         11    1    3    3    0    0 -0.19135783002E+02  0.45830924728E+02 -0.22822427967E+03  0.23356578020E+03  0.00000000000E+00 0.  1.
        -13    1    4    4    0    0 -0.35179686906E+02 -0.95382443150E+01  0.10986920890E+02  0.38069684869E+02  0.00000000000E+00 0. -1.
         13    1    4    4    0    0  0.71562842025E+02 -0.38461106625E+02  0.22171960334E+02  0.84214564694E+02  0.00000000000E+00 0.  1.
         -2    1    1    2    0  502  0.78333088337E+01  0.42294277273E+02  0.83602696364E+02  0.94019027099E+02  0.00000000000E+00 0.  1.
<scales pt_clust_5="13000.00000" pt_clust_6="13000.00000" pt_clust_7="13000.00000" pt_clust_8="13000.00000" pt_clust_9="43.01356"></scales>
<clustering>
<clus scale="   43.014">  1  9  2 -1</clus>
<clus scale="   91.627">  5  6 -1 -1</clus>
<clus scale="  101.125">  7  8 -1 -1</clus>
<clus scale="  101.877">  2  5  1 -1</clus>
<clus scale="   43.014">  1  5  2 -1</clus>
</clustering>
</event>
<event>
 9    1  0.1321469E-005  0.1979332E+03  0.7546771E-02  0.1153054E+00
          2   -1    0    0  502    0 -0.00000000000E+00  0.00000000000E+00  0.12195380374E+04  0.12195380374E+04  0.00000000000E+00 0. -1.
         21   -1    0    0  501  502  0.00000000000E+00 -0.00000000000E+00 -0.52600394352E+02  0.52600394352E+02  0.00000000000E+00 0.  1.
         23    2    1    2    0    0 -0.13282799587E+03  0.10815834716E+03  0.51132203789E+03  0.54649144940E+03  0.88663257778E+02 0.  0.
         23    2    1    2    0    0  0.61886556154E+02 -0.16981727346E+03  0.36440581925E+03  0.41964428553E+03  0.10315945461E+03 0.  0.
        -11    1    4    4    0    0  0.88111545749E+02 -0.13657995040E+03  0.31589395956E+03  0.35525585292E+03  0.00000000000E+00 0.  1.
         11    1    4    4    0    0 -0.26224989594E+02 -0.33237323062E+02  0.48511859686E+02  0.64388432608E+02  0.00000000000E+00 0. -1.
        -13    1    3    3    0    0 -0.68012960114E+02  0.10768553871E+03  0.31630149550E+03  0.34098177964E+03  0.00000000000E+00 0. -1.
         13    1    3    3    0    0 -0.64815035756E+02  0.47280845258E+00  0.19502054239E+03  0.20550966976E+03  0.00000000000E+00 0.  1.
          2    1    1    2  501    0  0.70941439716E+02  0.61658926294E+02  0.29120978595E+03  0.30600269688E+03  0.00000000000E+00 0. -1.
<scales pt_clust_5="13000.00000" pt_clust_6="13000.00000" pt_clust_7="13000.00000" pt_clust_8="13000.00000" pt_clust_9="93.99213"></scales>
<clustering>
<clus scale="   88.663">  7  8 -1 -1</clus>
<clus scale="   93.992">  2  9  1 -1</clus>
<clus scale="  103.159">  5  6 -1 -1</clus>
<clus scale="  190.780">  1  7  2 -1</clus>
<clus scale="   93.992">  2  5  1 -1</clus>
</clustering>
</event>
<event>
 9    1  0.1321469E-005  0.9170952E+02  0.7546771E-02  0.1300440E+00
          3   -1    0    0  502    0 -0.00000000000E+00  0.00000000000E+00  0.18097293019E+03  0.18097293019E+03  0.00000000000E+00 0. -1.
         21   -1    0    0  501  502  0.00000000000E+00 -0.00000000000E+00 -0.63262676171E+02  0.63262676171E+02  0.00000000000E+00 0.  1.
         23    2    1    2    0    0 -0.55385756192E+01 -0.15767319363E+02  0.80526365181E+02  0.12285502452E+03  0.91266518395E+02 0.  0.
         23    2    1    2    0    0  0.81928615689E+01 -0.95108838735E+01  0.22940781635E+02  0.92244712277E+02  0.88460316460E+02 0.  0.
        -11    1    4    4    0    0  0.48227184311E+02 -0.99545312558E+01  0.14413968117E+02  0.51310003664E+02  0.00000000000E+00 0. -1.
         11    1    4    4    0    0 -0.40034322742E+02  0.44364738223E+00  0.85268135179E+01  0.40934708613E+02  0.00000000000E+00 0.  1.
        -13    1    3    3    0    0 -0.25353578752E+02  0.36454452969E+01 -0.10509608877E+02  0.27686550989E+02  0.00000000000E+00 0.  1.
         13    1    3    3    0    0  0.19815003133E+02 -0.19412764660E+02  0.91035974058E+02  0.95168473528E+02  0.00000000000E+00 0. -1.
          3    1    1    2  501    0 -0.26542859496E+01  0.25278203237E+02  0.14243107206E+02  0.29135869571E+02  0.00000000000E+00 0. -1.
<scales pt_clust_5="13000.00000" pt_clust_6="13000.00000" pt_clust_7="13000.00000" pt_clust_8="13000.00000" pt_clust_9="25.41719"></scales>
<clustering>
<clus scale="   25.417">  2  9  1 -1</clus>
<clus scale="   88.460">  5  6 -1 -1</clus>
<clus scale="   88.917">  2  5  1 -1</clus>
<clus scale="   91.267">  7  8 -1 -1</clus>
<clus scale="   25.417">  2  5  1 -1</clus>
</clustering>
</event>
<event>
 9    1  0.1321469E-005  0.1163705E+03  0.7546771E-02  0.1257459E+00
         21   -1    0    0  501  502  0.00000000000E+00  0.00000000000E+00  0.80981352244E+02  0.80981352244E+02  0.00000000000E+00 0. -1.
          3   -1    0    0  502    0 -0.00000000000E+00 -0.00000000000E+00 -0.35271502711E+03  0.35271502711E+03  0.00000000000E+00 0. -1.
         23    2    1    2    0    0  0.13095346128E+02 -0.24545008148E+02 -0.19837845618E+03  0.22847057535E+03  0.10986740376E+03 0.  0.
         23    2    1    2    0    0 -0.28526670577E+02  0.44294281469E+02 -0.11548996870E+03  0.15620033378E+03  0.91021190388E+02 0.  0.
        -13    1    3    3    0    0 -0.19817362664E+02  0.18744054542E+02 -0.51804437464E+01  0.27765165965E+02  0.00000000000E+00 0.  1.
         13    1    3    3    0    0  0.32912708793E+02 -0.43289062691E+02 -0.19319801243E+03  0.20070540939E+03  0.00000000000E+00 0. -1.
        -13    1    4    4    0    0 -0.52212909184E+02  0.55880205742E+02 -0.70294749853E+02  0.10387558489E+03  0.00000000000E+00 0.  1.
         13    1    4    4    0    0  0.23686238606E+02 -0.11585924273E+02 -0.45195218844E+02  0.52324748895E+02  0.00000000000E+00 0. -1.
          3    1    1    2  501    0  0.15431324449E+02 -0.19749273320E+02  0.42134750015E+02  0.49025470214E+02  0.00000000000E+00 0. -1.
<scales pt_clust_5="13000.00000" pt_clust_6="13000.00000" pt_clust_7="13000.00000" pt_clust_8="13000.00000" pt_clust_9="25.06311"></scales>
<clustering>
<clus scale="   25.063">  1  9  2 -1</clus>
<clus scale="   91.021">  7  8 -1 -1</clus>
<clus scale="   98.773">  1  7  2 -1</clus>
<clus scale="  109.867">  5  6 -1 -1</clus>
<clus scale="   25.063">  1  5  2 -1</clus>
</clustering>
</event>
<event>
 9    1  0.1321469E-005  0.2244851E+03  0.7546771E-02  0.1136867E+00
          1   -1    0    0  502    0 -0.00000000000E+00  0.00000000000E+00  0.12352355852E+04  0.12352355852E+04  0.00000000000E+00 0. -1.
         21   -1    0    0  501  502  0.00000000000E+00 -0.00000000000E+00 -0.15549541380E+03  0.15549541380E+03  0.00000000000E+00 0.  1.
         23    2    1    2    0    0  0.78076429659E+02 -0.15094415566E+03  0.75893138925E+03  0.78298395755E+03  0.90592257937E+02 0.  0.
         23    2    1    2    0    0 -0.86502790720E+02 -0.15186048685E+03  0.55794519794E+02  0.20526199285E+03  0.92060398649E+02 0.  0.
        -13    1    3    3    0    0  0.98093543043E+02 -0.12442913974E+03  0.65395294388E+03  0.67287399029E+03  0.00000000000E+00 0. -1.
         13    1    3    3    0    0 -0.20017113384E+02 -0.26515015917E+02  0.10497844537E+03  0.11010996725E+03  0.00000000000E+00 0.  1.
        -13    1    4    4    0    0 -0.34611238326E+02 -0.20676291943E+02  0.49781047409E+02  0.64059343956E+02  0.00000000000E+00 0. -1.
         13    1    4    4    0    0 -0.51891552394E+02 -0.13118419491E+03  0.60134723849E+01  0.14120264889E+03  0.00000000000E+00 0.  1.
          1    1    1    2  501    0  0.84263610605E+01  0.30280464251E+03  0.26501426233E+03  0.40248504857E+03  0.00000000000E+00 0. -1.
<scales pt_clust_5="13000.00000" pt_clust_6="13000.00000" pt_clust_7="13000.00000" pt_clust_8="13000.00000" pt_clust_9="204.74001"></scales>
<clustering>
<clus scale="   90.592">  5  6 -1 -1</clus>
<clus scale="   92.060">  7  8 -1 -1</clus>
<clus scale="  192.580">  1  5  2 -1</clus>
<clus scale="  204.740">  2  9  1 -1</clus>
<clus scale="  204.740">  2  5  1 -1</clus>
</clustering>
</event>
<event>
 9    1  0.1321469E-005  0.9543825E+02  0.7546771E-02  0.1292435E+00
         21   -1    0    0  501  502  0.00000000000E+00  0.00000000000E+00  0.24717127551E+03  0.24717127551E+03  0.00000000000E+00 0.  1.
         -3   -1    0    0    0  501 -0.00000000000E+00 -0.00000000000E+00 -0.22232704025E+03  0.22232704025E+03  0.00000000000E+00 0.  1.
         23    2    1    2    0    0  0.10673788243E+02  0.39319916045E+02 -0.12508059477E+03  0.16083766899E+03  0.92539802380E+02 0.  0.
         23    2    1    2    0    0 -0.19187613379E+02  0.13228324300E+02 -0.48256188807E+02  0.10345460639E+03  0.88493179140E+02 0.  0.
        -13    1    3    3    0    0 -0.28120781719E+00 -0.23896912708E+02 -0.77108576714E+02  0.80727158488E+02  0.00000000000E+00 0. -1.
         13    1    3    3    0    0  0.10954996060E+02  0.63216828753E+02 -0.47972018054E+02  0.80110510499E+02  0.00000000000E+00 0.  1.
        -13    1    4    4    0    0 -0.12076145935E+02  0.51092442076E+02 -0.33045346795E+02  0.62034392740E+02  0.00000000000E+00 0.  1.
         13    1    4    4    0    0 -0.71114674440E+01 -0.37864117776E+02 -0.15210842012E+02  0.41420213651E+02  0.00000000000E+00 0. -1.
         -3    1    1    2    0  502  0.85138251356E+01 -0.52548240345E+02  0.19818101884E+03  0.20520604038E+03  0.00000000000E+00 0.  1.
<scales pt_clust_5="13000.00000" pt_clust_6="13000.00000" pt_clust_7="13000.00000" pt_clust_8="13000.00000" pt_clust_9="53.23347"></scales>
<clustering>
<clus scale="   53.233">  1  9  2 -1</clus>
<clus scale="   88.493">  7  8 -1 -1</clus>
<clus scale="   91.520">  1  7  2 -1</clus>
<clus scale="   92.540">  5  6 -1 -1</clus>
<clus scale="   53.233">  1  5  2 -1</clus>
</clustering>
</event>
<event>
 9    1  0.1321469E-005  0.1130991E+03  0.7546771E-02  0.1255401E+00
          1   -1    0    0  502    0 -0.00000000000E+00  0.00000000000E+00  0.21375506219E+03  0.21375506219E+03  0.00000000000E+00 0. -1.
         21   -1    0    0  501  502  0.00000000000E+00 -0.00000000000E+00 -0.20298361906E+03  0.20298361906E+03  0.00000000000E+00 0.  1.
         23    2    1    2    0    0 -0.68222029385E+02 -0.18641395030E+02  0.17243717791E+03  0.20655759576E+03  0.89048936756E+02 0.  0.
         23    2    1    2    0    0  0.42444606903E+02  0.54924669700E+01 -0.14690504522E+03  0.17769650799E+03  0.90350676767E+02 0.  0.
        -11    1    3    3    0    0 -0.19064825579E+02  0.35390387229E+02  0.70403959870E+02  0.81071972024E+02  0.00000000000E+00 0.  1.
         11    1    3    3    0    0 -0.49157203807E+02 -0.54031782258E+02  0.10203321804E+03  0.12548562373E+03  0.00000000000E+00 0. -1.
        -13    1    4    4    0    0  0.34488337038E+02  0.29533310290E+02 -0.14540435510E+03  0.15232888200E+03  0.00000000000E+00 0.  1.
         13    1    4    4    0    0  0.79562698647E+01 -0.24040843320E+02 -0.15006901204E+01  0.25367625994E+02  0.00000000000E+00 0. -1.
          1    1    1    2  501    0  0.25777422482E+02  0.13148928060E+02 -0.14760689563E+02  0.32484577500E+02  0.00000000000E+00 0. -1.
<scales pt_clust_5="13000.00000" pt_clust_6="13000.00000" pt_clust_7="13000.00000" pt_clust_8="13000.00000" pt_clust_9="28.93734"></scales>
<clustering>
<clus scale="   28.937">  2  9  1 -1</clus>
<clus scale="   89.049">  5  6 -1 -1</clus>
<clus scale="   90.351">  7  8 -1 -1</clus>
<clus scale="  112.062">  1  5  2 -1</clus>
<clus scale="   28.937">  2  5  1 -1</clus>
</clustering>
</event>
<event>
 9    1  0.1321469E-005  0.1140056E+03  0.7546771E-02  0.1255694E+00
         21   -1    0    0  501  502  0.00000000000E+00  0.00000000000E+00  0.37099336798E+02  0.37099336798E+02  0.00000000000E+00 0.  1.
          1   -1    0    0  502    0 -0.00000000000E+00 -0.00000000000E+00 -0.50716693125E+03  0.50716693125E+03  0.00000000000E+00 0. -1.
         23    2    1    2    0    0  0.38579220608E+02 -0.59349390215E+02 -0.31182611134E+03  0.33406351824E+03  0.96706794624E+02 0.  0.
         23    2    1    2    0    0 -0.28752653540E+02  0.36233018944E+02 -0.15432840716E+03  0.18478149483E+03  0.90484235249E+02 0.  0.
        -11    1    3    3    0    0 -0.25815291029E+02  0.76097184890E+01 -0.73370663065E+02  0.78151079743E+02  0.00000000000E+00 0.  1.
         11    1    3    3    0    0  0.64394511637E+02 -0.66959108704E+02 -0.23845544827E+03  0.25591243850E+03  0.00000000000E+00 0. -1.
        -11    1    4    4    0    0 -0.26880411970E+02  0.94372743830E+01 -0.36371874576E+00  0.28491244038E+02  0.00000000000E+00 0.  1.
         11    1    4    4    0    0 -0.18722415691E+01  0.26795744561E+02 -0.15396468841E+03  0.15629025080E+03  0.00000000000E+00 0. -1.
          1    1    1    2  501    0 -0.98265670688E+01  0.23116371271E+02 -0.39130759577E+01  0.25421254976E+02  0.00000000000E+00 0. -1.
<scales pt_clust_5="13000.00000" pt_clust_6="13000.00000" pt_clust_7="13000.00000" pt_clust_8="13000.00000" pt_clust_9="25.11828"></scales>
<clustering>
<clus scale="   25.118">  1  9  2 -1</clus>
<clus scale="   90.484">  7  8 -1 -1</clus>
<clus scale="   96.707">  5  6 -1 -1</clus>
<clus scale="  108.777">  1  7  2 -1</clus>
<clus scale="   25.118">  1  5  2 -1</clus>
</clustering>
</event>
<event>
 9    1  0.1405273E-005  0.9180709E+02  0.7546771E-02  0.1299974E+00
          1   -1    0    0  502    0 -0.00000000000E+00  0.00000000000E+00  0.31960896035E+03  0.31960896035E+03  0.00000000000E+00 0. -1.
         21   -1    0    0  501  502  0.00000000000E+00 -0.00000000000E+00 -0.18409957642E+03  0.18409957642E+03  0.00000000000E+00 0. -1.
         23    2    1    2    0    0  0.44225516649E+01 -0.78629140313E+01  0.17077615217E+03  0.19360178315E+03  0.90751153766E+02 0.  0.
         23    2    1    2    0    0  0.27997767439E+02  0.14466651969E+02  0.11946930647E+03  0.15187294162E+03  0.88313737356E+02 0.  0.
        -11    1    3    3    0    0 -0.25409662826E+02  0.32282444512E+02  0.81529922725E+02  0.91295867859E+02  0.00000000000E+00 0. -1.
         11    1    3    3    0    0  0.29832214491E+02 -0.40145358544E+02  0.89246229446E+02  0.10230591529E+03  0.00000000000E+00 0.  1.
        -13    1    4    4    0    0 -0.32135883563E+02  0.76747338028E+01  0.47156664867E+02  0.57579228830E+02  0.00000000000E+00 0. -1.
         13    1    4    4    0    0  0.60133651002E+02  0.67919181659E+01  0.72312641604E+02  0.94293712786E+02  0.00000000000E+00 0.  1.
          1    1    1    2  501    0 -0.32420319104E+02 -0.66037379374E+01 -0.15473607471E+03  0.15823381200E+03  0.00000000000E+00 0. -1.
<scales pt_clust_5="13000.00000" pt_clust_6="13000.00000" pt_clust_7="13000.00000" pt_clust_8="13000.00000" pt_clust_9="33.08605"></scales>
<clustering>
<clus scale="   33.086">  2  9  1 -1</clus>
<clus scale="   88.314">  7  8 -1 -1</clus>
<clus scale="   89.398">  2  7  1 -1</clus>
<clus scale="   90.751">  5  6 -1 -1</clus>
<clus scale="   33.086">  2  5  1 -1</clus>
</clustering>
</event>
<event>
 9    1  0.1321469E-005  0.1145687E+03  0.7546771E-02  0.1253145E+00
          2   -1    0    0  502    0 -0.00000000000E+00  0.00000000000E+00  0.50219109368E+03  0.50219109368E+03  0.00000000000E+00 0. -1.
         21   -1    0    0  501  502  0.00000000000E+00 -0.00000000000E+00 -0.10039318281E+03  0.10039318281E+03  0.00000000000E+00 0. -1.
         23    2    1    2    0    0  0.66487131913E+02 -0.65907634786E+02  0.38580016318E+03  0.40734061068E+03  0.91215416237E+02 0.  0.
         23    2    1    2    0    0 -0.67469270744E+01  0.10863188124E+02  0.54800529217E+02  0.10521900788E+03  0.88906758656E+02 0.  0.
        -11    1    3    3    0    0 -0.22554384014E+02 -0.66329865078E+01  0.60618810184E+02  0.65017973641E+02  0.00000000000E+00 0.  1.
         11    1    3    3    0    0  0.89041515927E+02 -0.59274648278E+02  0.32518135300E+03  0.34232263703E+03  0.00000000000E+00 0. -1.
        -13    1    4    4    0    0  0.48864401217E+01  0.40752715557E+02 -0.77547648784E+00  0.41051948627E+02  0.00000000000E+00 0.  1.
         13    1    4    4    0    0 -0.11633367196E+02 -0.29889527433E+02  0.55576005705E+02  0.64167059248E+02  0.00000000000E+00 0. -1.
          2    1    1    2  501    0 -0.59740204838E+02  0.55044446662E+02 -0.38802781530E+02  0.90024657938E+02  0.00000000000E+00 0. -1.
<scales pt_clust_5="13000.00000" pt_clust_6="13000.00000" pt_clust_7="13000.00000" pt_clust_8="13000.00000" pt_clust_9="81.23289"></scales>
<clustering>
<clus scale="   81.233">  2  9  1 -1</clus>
<clus scale="   88.907">  7  8 -1 -1</clus>
<clus scale="   91.215">  5  6 -1 -1</clus>
<clus scale="  112.739">  2  7  1 -1</clus>
<clus scale="   81.233">  2  5  1 -1</clus>
</clustering>
</event>
<event>
 9    1  0.1321469E-005  0.9738094E+02  0.7546771E-02  0.1287240E+00
         -3   -1    0    0    0  501 -0.00000000000E+00  0.00000000000E+00  0.86078321261E+02  0.86078321261E+02  0.00000000000E+00 0.  1.
         21   -1    0    0  501  502  0.00000000000E+00 -0.00000000000E+00 -0.18982418169E+03  0.18982418169E+03  0.00000000000E+00 0. -1.
         23    2    1    2    0    0 -0.26019934573E+02  0.38745137667E+01  0.14248983695E+02  0.99107317474E+02  0.94483744572E+02 0.  0.
         23    2    1    2    0    0  0.85035967334E+01 -0.28515570214E+02 -0.67389303519E+02  0.11784669530E+03  0.91984109837E+02 0.  0.
        -11    1    4    4    0    0  0.38011616879E+02 -0.24612758946E+02 -0.12310584524E+01  0.45301064288E+02  0.00000000000E+00 0.  1.
         11    1    4    4    0    0 -0.29508020146E+02 -0.39028112679E+01 -0.66158245066E+02  0.72545631012E+02  0.00000000000E+00 0. -1.
        -13    1    3    3    0    0  0.15175864632E+02  0.29399805755E+02  0.33386016390E+02  0.47002994970E+02  0.00000000000E+00 0.  1.
         13    1    3    3    0    0 -0.41195799205E+02 -0.25525291988E+02 -0.19137032695E+02  0.52104322504E+02  0.00000000000E+00 0. -1.
         -3    1    1    2    0  502  0.17516337840E+02  0.24641056447E+02 -0.50605540602E+02  0.58948490173E+02  0.00000000000E+00 0.  1.
<scales pt_clust_5="13000.00000" pt_clust_6="13000.00000" pt_clust_7="13000.00000" pt_clust_8="13000.00000" pt_clust_9="30.23250"></scales>
<clustering>
<clus scale="   30.232">  2  9  1 -1</clus>
<clus scale="   91.984">  5  6 -1 -1</clus>
<clus scale="   94.484">  7  8 -1 -1</clus>
<clus scale="   94.958">  2  5  1 -1</clus>
<clus scale="   30.232">  2  5  1 -1</clus>
</clustering>
</event>
<event>
 9    1  0.1321469E-005  0.1237089E+03  0.7546771E-02  0.1237467E+00
         21   -1    0    0  501  502  0.00000000000E+00  0.00000000000E+00  0.31456185542E+03  0.31456185542E+03  0.00000000000E+00 0. -1.
          1   -1    0    0  502    0 -0.00000000000E+00 -0.00000000000E+00 -0.26093634685E+03  0.26093634685E+03  0.00000000000E+00 0. -1.
         23    2    1    2    0    0 -0.77996085514E+02  0.39430895753E+02 -0.21596541169E+03  0.25034487275E+03  0.91615017163E+02 0.  0.
         23    2    1    2    0    0  0.33248310957E+02 -0.51004923226E+02  0.95050938776E+02  0.14459717047E+03  0.90369842147E+02 0.  0.
        -13    1    3    3    0    0 -0.28355266050E+02  0.73750698661E+01 -0.31378086011E+01  0.29466228315E+02  0.00000000000E+00 0.  1.
         13    1    3    3    0    0 -0.49640819464E+02  0.32055825887E+02 -0.21282760309E+03  0.22087864443E+03  0.00000000000E+00 0. -1.
        -13    1    4    4    0    0  0.49734181175E+02  0.15032012832E+01  0.65107186378E+02  0.81943237118E+02  0.00000000000E+00 0.  1.
         13    1    4    4    0    0 -0.16485870218E+02 -0.52508124510E+02  0.29943752398E+02  0.62653933348E+02  0.00000000000E+00 0. -1.
          1    1    1    2  501    0  0.44747774557E+02  0.11574027473E+02  0.17453998148E+03  0.18055615906E+03  0.00000000000E+00 0. -1.
<scales pt_clust_5="13000.00000" pt_clust_6="13000.00000" pt_clust_7="13000.00000" pt_clust_8="13000.00000" pt_clust_9="46.22036"></scales>
<clustering>
<clus scale="   46.220">  1  9  2 -1</clus>
<clus scale="   90.370">  7  8 -1 -1</clus>
<clus scale="   91.615">  5  6 -1 -1</clus>
<clus scale="  122.790">  1  7  2 -1</clus>
<clus scale="   46.220">  1  5  2 -1</clus>
</clustering>
</event>
<event>
 9    1  0.1321469E-005  0.1542173E+03  0.7546771E-02  0.1214871E+00
         21   -1    0    0  501  502  0.00000000000E+00  0.00000000000E+00  0.30787003425E+03  0.30787003425E+03  0.00000000000E+00 0.  1.
         -1   -1    0    0    0  501 -0.00000000000E+00 -0.00000000000E+00 -0.29707764859E+03  0.29707764859E+03  0.00000000000E+00 0.  1.
         23    2    1    2    0    0 -0.32834164461E+02 -0.31462036103E+02 -0.21218905360E+03  0.23516016872E+03  0.90598942679E+02 0.  0.
         23    2    1    2    0    0 -0.71077025103E+02 -0.60570403962E+02  0.32496504327E+02  0.13409276284E+03  0.90576646655E+02 0.  0.
        -11    1    3    3    0    0  0.16800796769E+02 -0.36667425033E+02 -0.15050172875E+03  0.15581250652E+03  0.00000000000E+00 0.  1.
         11    1    3    3    0    0 -0.49634961229E+02  0.52053889303E+01 -0.61687324847E+02  0.79347662202E+02  0.00000000000E+00 0. -1.
        -11    1    4    4    0    0 -0.73074018231E+02 -0.73051943334E+01  0.33643338202E+02  0.80777795278E+02  0.00000000000E+00 0. -1.
         11    1    4    4    0    0  0.19969931280E+01 -0.53265209628E+02 -0.11468338743E+01  0.53314967563E+02  0.00000000000E+00 0.  1.
         -1    1    1    2    0  502  0.10391118956E+03  0.92032440065E+02  0.19048493493E+03  0.23569475127E+03  0.00000000000E+00 0.  1.
<scales pt_clust_5="13000.00000" pt_clust_6="13000.00000" pt_clust_7="13000.00000" pt_clust_8="13000.00000" pt_clust_9="124.81522"></scales>
<clustering>
<clus scale="   90.577">  7  8 -1 -1</clus>
<clus scale="   90.599">  5  6 -1 -1</clus>
<clus scale="  101.371">  2  5  1 -1</clus>
<clus scale="  124.815">  1  9  2 -1</clus>
<clus scale="  124.815">  1  5  2 -1</clus>
</clustering>
</event>
<event>
 9    1  0.1321469E-005  0.1266716E+03  0.7546771E-02  0.1243019E+00
         21   -1    0    0  501  502  0.00000000000E+00  0.00000000000E+00  0.43361662945E+03  0.43361662945E+03  0.00000000000E+00 0. -1.
          2   -1    0    0  502    0 -0.00000000000E+00 -0.00000000000E+00 -0.18119269942E+03  0.18119269942E+03  0.00000000000E+00 0. -1.
         23    2    1    2    0    0 -0.33845533238E+02 -0.31271615962E+02 -0.11979427103E+03  0.15745347978E+03  0.91200311623E+02 0.  0.
         23    2    1    2    0    0  0.39337125864E+02 -0.75448096899E+02  0.30982830585E+03  0.33361517781E+03  0.89809147429E+02 0.  0.
        -11    1    4    4    0    0 -0.10093171863E+02 -0.25024617135E+02  0.15889601425E+02  0.31314262158E+02  0.00000000000E+00 0.  1.
         11    1    4    4    0    0  0.49430297726E+02 -0.50423479763E+02  0.29393870443E+03  0.30230091565E+03  0.00000000000E+00 0. -1.
        -13    1    3    3    0    0  0.27896630203E+02 -0.25304478307E+02 -0.29194233793E+02  0.47653351255E+02  0.00000000000E+00 0.  1.
         13    1    3    3    0    0 -0.61742163441E+02 -0.59671376554E+01 -0.90600037234E+02  0.10980012853E+03  0.00000000000E+00 0. -1.
          2    1    1    2  501    0 -0.54915926261E+01  0.10671971286E+03  0.62389895209E+02  0.12374067127E+03  0.00000000000E+00 0. -1.
<scales pt_clust_5="13000.00000" pt_clust_6="13000.00000" pt_clust_7="13000.00000" pt_clust_8="13000.00000" pt_clust_9="89.33096"></scales>
<clustering>
<clus scale="   89.809">  5  6 -1 -1</clus>
<clus scale="   91.200">  7  8 -1 -1</clus>
<clus scale="  102.181">  2  7  1 -1</clus>
<clus scale="   89.331">  1  9  2 -1</clus>
<clus scale="   89.331">  1  5  2 -1</clus>
</clustering>
</event>
<event>
 9    1  0.1321469E-005  0.1047542E+03  0.7546771E-02  0.1271758E+00
         -1   -1    0    0    0  501 -0.00000000000E+00  0.00000000000E+00  0.28939413556E+03  0.28939413556E+03  0.00000000000E+00 0.  1.
         21   -1    0    0  501  502  0.00000000000E+00 -0.00000000000E+00 -0.50370334296E+02  0.50370334296E+02  0.00000000000E+00 0. -1.
         23    2    1    2    0    0  0.22581573056E+02  0.54057057788E+02  0.13539963168E+03  0.17417275200E+03  0.92579664834E+02 0.  0.
         23    2    1    2    0    0 -0.25108491769E+02 -0.31406799613E+02  0.10335129444E+03  0.14279930740E+03  0.89962929652E+02 0.  0.
        -11    1    4    4    0    0 -0.59168408768E+02 -0.22796121641E+02  0.66246844195E+02  0.91701734574E+02  0.00000000000E+00 0. -1.
         11    1    4    4    0    0  0.34059916999E+02 -0.86106779714E+01  0.37104450245E+02  0.51097572830E+02  0.00000000000E+00 0.  1.
        -13    1    3    3    0    0 -0.94284969803E+01  0.66277361868E+02  0.11818458136E+03  0.13582776050E+03  0.00000000000E+00 0.  1.
         13    1    3    3    0    0  0.32010070036E+02 -0.12220304080E+02  0.17215050328E+02  0.38344991503E+02  0.00000000000E+00 0. -1.
         -1    1    1    2    0  502  0.25269187130E+01 -0.22650258176E+02  0.27287514378E+00  0.22792410457E+02  0.00000000000E+00 0.  1.
<scales pt_clust_5="13000.00000" pt_clust_6="13000.00000" pt_clust_7="13000.00000" pt_clust_8="13000.00000" pt_clust_9="22.79078"></scales>
<clustering>
<clus scale="   22.791">  2  9  1 -1</clus>
<clus scale="   89.963">  5  6 -1 -1</clus>
<clus scale="   92.580">  7  8 -1 -1</clus>
<clus scale="  102.449">  2  5  1 -1</clus>
<clus scale="   22.791">  2  5  1 -1</clus>
</clustering>
</event>
<event>
 9    1  0.1321469E-005  0.9730672E+02  0.7546771E-02  0.1287537E+00
         21   -1    0    0  501  502  0.00000000000E+00  0.00000000000E+00  0.78277545339E+02  0.78277545339E+02  0.00000000000E+00 0. -1.
          1   -1    0    0  502    0 -0.00000000000E+00 -0.00000000000E+00 -0.45779289481E+03  0.45779289481E+03  0.00000000000E+00 0. -1.
         23    2    1    2    0    0  0.37694058969E+02  0.11477535742E+02 -0.28403784948E+03  0.30106956539E+03  0.91721357164E+02 0.  0.
         23    2    1    2    0    0 -0.23907073711E+02  0.79356132533E+01 -0.14962346279E+03  0.17585075555E+03  0.88891987703E+02 0.  0.
        -11    1    3    3    0    0 -0.31517613214E+01  0.44799826477E+02 -0.16251163018E+03  0.16860304859E+03  0.00000000000E+00 0. -1.
         11    1    3    3    0    0  0.40845820290E+02 -0.33322290735E+02 -0.12152621930E+03  0.13246651680E+03  0.00000000000E+00 0.  1.
        -13    1    4    4    0    0 -0.11347279116E+02  0.48469808744E+02 -0.86159898454E+02  0.99506839989E+02  0.00000000000E+00 0. -1.
         13    1    4    4    0    0 -0.12559794595E+02 -0.40534195491E+02 -0.63463564336E+02  0.76343915557E+02  0.00000000000E+00 0.  1.
          1    1    1    2  501    0 -0.13786985258E+02 -0.19413148996E+02  0.54145962793E+02  0.59150119216E+02  0.00000000000E+00 0. -1.
<scales pt_clust_5="13000.00000" pt_clust_6="13000.00000" pt_clust_7="13000.00000" pt_clust_8="13000.00000" pt_clust_9="23.81074"></scales>
<clustering>
<clus scale="   23.811">  1  9  2 -1</clus>
<clus scale="   88.892">  7  8 -1 -1</clus>
<clus scale="   91.721">  5  6 -1 -1</clus>
<clus scale="   94.644">  1  7  2 -1</clus>
<clus scale="   23.811">  1  5  2 -1</clus>
</clustering>
</event>
<event>
 9    1  0.1321469E-005  0.9337013E+02  0.7546771E-02  0.1295873E+00
         21   -1    0    0  501  502  0.00000000000E+00  0.00000000000E+00  0.17311730414E+03  0.17311730414E+03  0.00000000000E+00 0.  1.
          1   -1    0    0  502    0 -0.00000000000E+00 -0.00000000000E+00 -0.80609963687E+02  0.80609963687E+02  0.00000000000E+00 0. -1.
         23    2    1    2    0    0  0.68966173467E+01  0.16978131982E+01  0.51714922021E+00  0.90604322364E+02  0.90324027186E+02 0.  0.
         23    2    1    2    0    0 -0.21264761850E+02 -0.31849333243E+02  0.79341454994E+02  0.12740812689E+03  0.92039090568E+02 0.  0.
        -11    1    3    3    0    0 -0.41609330067E+01 -0.41257730517E+02 -0.14261884483E+02  0.43851055174E+02  0.00000000000E+00 0.  1.
         11    1    3    3    0    0  0.11057550353E+02  0.42955543715E+02  0.14779033703E+02  0.46753267189E+02  0.00000000000E+00 0. -1.
        -13    1    4    4    0    0 -0.30803958764E+02  0.21703057027E+02  0.57595750828E+02  0.68827153605E+02  0.00000000000E+00 0. -1.
         13    1    4    4    0    0  0.95391969134E+01 -0.53552390270E+02  0.21745704165E+02  0.58580973285E+02  0.00000000000E+00 0.  1.
          1    1    1    2  501    0  0.14368144504E+02  0.30151520045E+02  0.12648736244E+02  0.35714818578E+02  0.00000000000E+00 0. -1.
<scales pt_clust_5="13000.00000" pt_clust_6="13000.00000" pt_clust_7="13000.00000" pt_clust_8="13000.00000" pt_clust_9="33.39998"></scales>
<clustering>
<clus scale="   33.400">  1  9  2 -1</clus>
<clus scale="   90.324">  5  6 -1 -1</clus>
<clus scale="   91.680">  2  5  1 -1</clus>
<clus scale="   92.039">  7  8 -1 -1</clus>
<clus scale="   33.400">  1  5  2 -1</clus>
</clustering>
</event>
<event>
 9    1  0.1321469E-005  0.1197009E+03  0.7546771E-02  0.1245108E+00
         21   -1    0    0  501  502  0.00000000000E+00  0.00000000000E+00  0.24911299457E+03  0.24911299457E+03  0.00000000000E+00 0. -1.
          1   -1    0    0  502    0 -0.00000000000E+00 -0.00000000000E+00 -0.14730033642E+03  0.14730033642E+03  0.00000000000E+00 0. -1.
         23    2    1    2    0    0 -0.80220794257E+02 -0.60445233229E+01 -0.97875363228E+02  0.15620288413E+03  0.91366526643E+02 0.  0.
         23    2    1    2    0    0  0.59704400718E+02  0.15648873975E+02  0.13614625879E+03  0.17275141078E+03  0.86589511043E+02 0.  0.
        -13    1    3    3    0    0 -0.90859222131E+01  0.35804480315E+02 -0.17045673441E+02  0.40682548791E+02  0.00000000000E+00 0.  1.
         13    1    3    3    0    0 -0.71134872044E+02 -0.41849003638E+02 -0.80829689787E+02  0.11552033534E+03  0.00000000000E+00 0. -1.
        -13    1    4    4    0    0 -0.21894417870E+02 -0.17926328273E+00  0.40461116114E+02  0.46005429966E+02  0.00000000000E+00 0.  1.
         13    1    4    4    0    0  0.81598818587E+02  0.15828137257E+02  0.95685142680E+02  0.12674598082E+03  0.00000000000E+00 0. -1.
          1    1    1    2  501    0  0.20516393539E+02 -0.96043506517E+01  0.63541762585E+02  0.67459036071E+02  0.00000000000E+00 0. -1.
<scales pt_clust_5="13000.00000" pt_clust_6="13000.00000" pt_clust_7="13000.00000" pt_clust_8="13000.00000" pt_clust_9="22.65317"></scales>
<clustering>
<clus scale="   22.653">  1  9  2 -1</clus>
<clus scale="   86.590">  7  8 -1 -1</clus>
<clus scale="   91.367">  5  6 -1 -1</clus>
<clus scale="  116.096">  1  7  2 -1</clus>
<clus scale="   22.653">  1  5  2 -1</clus>
</clustering>
</event>
<event>
 9    1  0.1321469E-005  0.1063857E+03  0.7546771E-02  0.1268728E+00
          2   -1    0    0  502    0 -0.00000000000E+00  0.00000000000E+00  0.28802120832E+03  0.28802120832E+03  0.00000000000E+00 0. -1.
         21   -1    0    0  501  502  0.00000000000E+00 -0.00000000000E+00 -0.75212145116E+02  0.75212145116E+02  0.00000000000E+00 0.  1.
         23    2    1    2    0    0  0.60233736434E+02  0.22309821348E+02  0.18981225127E+03  0.21891238225E+03  0.88136877855E+02 0.  0.
         23    2    1    2    0    0 -0.17172302042E+02 -0.19110501113E+02 -0.11895075571E+01  0.94828539108E+02  0.91273970501E+02 0.  0.
        -11    1    3    3    0    0  0.39366422823E+02 -0.30513737778E+02  0.65911934741E+02  0.82614687437E+02  0.00000000000E+00 0.  1.
         11    1    3    3    0    0  0.20867313612E+02  0.52823559126E+02  0.12390031653E+03  0.13629769482E+03  0.00000000000E+00 0. -1.
        -11    1    4    4    0    0  0.33855349765E+02  0.34662290464E+01  0.14307470485E+02  0.36917518378E+02  0.00000000000E+00 0. -1.
         11    1    4    4    0    0 -0.51027651807E+02 -0.22576730160E+02 -0.15496978042E+02  0.57911020731E+02  0.00000000000E+00 0.  1.
          2    1    1    2  501    0 -0.43061434392E+02 -0.31993202346E+01  0.24186319487E+02  0.49492432070E+02  0.00000000000E+00 0. -1.
<scales pt_clust_5="13000.00000" pt_clust_6="13000.00000" pt_clust_7="13000.00000" pt_clust_8="13000.00000" pt_clust_9="43.18012"></scales>
<clustering>
<clus scale="   43.180">  2  9  1 -1</clus>
<clus scale="   88.137">  5  6 -1 -1</clus>
<clus scale="   91.274">  7  8 -1 -1</clus>
<clus scale="  103.707">  1  5  2 -1</clus>
<clus scale="   43.180">  2  5  1 -1</clus>
</clustering>
</event>
<event>
 9    1  0.1321469E-005  0.1377193E+03  0.7546771E-02  0.1234893E+00
         -1   -1    0    0    0  501 -0.00000000000E+00  0.00000000000E+00  0.33262213496E+03  0.33262213496E+03  0.00000000000E+00 0.  1.
         21   -1    0    0  501  502  0.00000000000E+00 -0.00000000000E+00 -0.18242694547E+03  0.18242694547E+03  0.00000000000E+00 0.  1.
         23    2    1    2    0    0  0.16450107811E+02 -0.17499850179E+01 -0.98818830443E+02  0.13625108690E+03  0.92333790870E+02 0.  0.
         23    2    1    2    0    0 -0.11590219899E+03 -0.10889689902E+02  0.23488570845E+03  0.27755527030E+03  0.91179641144E+02 0.  0.
        -11    1    3    3    0    0 -0.27441671589E+02  0.29219917518E+02 -0.42004240087E+02  0.58062079748E+02  0.00000000000E+00 0.  1.
         11    1    3    3    0    0  0.43891779400E+02 -0.30969902536E+02 -0.56814590356E+02  0.78189007151E+02  0.00000000000E+00 0. -1.
        -11    1    4    4    0    0 -0.19678683051E+02 -0.25873406198E+02  0.12581353507E+02  0.34856479612E+02  0.00000000000E+00 0. -1.
         11    1    4    4    0    0 -0.96223515943E+02  0.14983716296E+02  0.22230435494E+03  0.24269879069E+03  0.00000000000E+00 0.  1.
         -1    1    1    2    0  502  0.99452091183E+02  0.12639674920E+02  0.14128311491E+02  0.10124272324E+03  0.00000000000E+00 0.  1.
<scales pt_clust_5="13000.00000" pt_clust_6="13000.00000" pt_clust_7="13000.00000" pt_clust_8="13000.00000" pt_clust_9="103.21277"></scales>
<clustering>
<clus scale="   91.180">  7  8 -1 -1</clus>
<clus scale="   92.334">  5  6 -1 -1</clus>
<clus scale="   93.804">  1  5  2 -1</clus>
<clus scale="  103.213">  2  9  1 -1</clus>
<clus scale="  103.213">  2  5  1 -1</clus>
</clustering>
</event>
<event>
 9    1  0.1321469E-005  0.1191124E+03  0.7546771E-02  0.1244855E+00
         -2   -1    0    0    0  501 -0.00000000000E+00  0.00000000000E+00  0.12604866374E+03  0.12604866374E+03  0.00000000000E+00 0.  1.
         21   -1    0    0  501  502  0.00000000000E+00 -0.00000000000E+00 -0.24539678039E+03  0.24539678039E+03  0.00000000000E+00 0. -1.
         23    2    1    2    0    0 -0.77960944140E+02 -0.57323645436E+01  0.71061248628E+02  0.14065424792E+03  0.92860904508E+02 0.  0.
         23    2    1    2    0    0  0.55719982177E+02  0.71406860474E+01 -0.16386163381E+03  0.19612960645E+03  0.91980876714E+02 0.  0.
        -11    1    3    3    0    0  0.92331139915E+01 -0.29564310502E+02  0.19211157509E+02  0.36446775197E+02  0.00000000000E+00 0. -1.
         11    1    3    3    0    0 -0.87194058131E+02  0.23831945958E+02  0.51850091119E+02  0.10420747272E+03  0.00000000000E+00 0.  1.
        -13    1    4    4    0    0 -0.97971110854E+01  0.35093295235E+02 -0.51270592892E+02  0.62898302454E+02  0.00000000000E+00 0.  1.
         13    1    4    4    0    0  0.65517093262E+02 -0.27952609188E+02 -0.11259104092E+03  0.13323130400E+03  0.00000000000E+00 0. -1.
         -2    1    1    2    0  502  0.22240961963E+02 -0.14083215038E+01 -0.26547731464E+02  0.34661589756E+02  0.00000000000E+00 0.  1.
<scales pt_clust_5="13000.00000" pt_clust_6="13000.00000" pt_clust_7="13000.00000" pt_clust_8="13000.00000" pt_clust_9="22.28551"></scales>
<clustering>
<clus scale="   22.286">  2  9  1 -1</clus>
<clus scale="   91.981">  7  8 -1 -1</clus>
<clus scale="   92.861">  5  6 -1 -1</clus>
<clus scale="  118.428">  2  7  1 -1</clus>
<clus scale="   22.286">  2  5  1 -1</clus>
</clustering>
</event>
<event>
 9    1  0.1321469E-005  0.1069796E+03  0.7546771E-02  0.1266658E+00
         21   -1    0    0  501  502  0.00000000000E+00  0.00000000000E+00  0.16846851897E+03  0.16846851897E+03  0.00000000000E+00 0.  1.
         -3   -1    0    0    0  501 -0.00000000000E+00 -0.00000000000E+00 -0.21565136070E+03  0.21565136070E+03  0.00000000000E+00 0.  1.
         23    2    1    2    0    0  0.62507156457E+02 -0.21025022666E+01 -0.15896301560E+03  0.19389053657E+03  0.91720961177E+02 0.  0.
         23    2    1    2    0    0 -0.27394230606E+02  0.85630001507E+01  0.28123987018E+02  0.99273237247E+02  0.90776914166E+02 0.  0.
        -11    1    3    3    0    0 -0.12764519006E+02  0.27169779915E+02 -0.37645328073E+02  0.48148734270E+02  0.00000000000E+00 0.  1.
         11    1    3    3    0    0  0.75271675463E+02 -0.29272282182E+02 -0.12131768752E+03  0.14574180230E+03  0.00000000000E+00 0. -1.
        -13    1    4    4    0    0  0.31804143062E+02 -0.28100342711E+01  0.21801957365E+02  0.38661675513E+02  0.00000000000E+00 0. -1.
         13    1    4    4    0    0 -0.59198373668E+02  0.11373034422E+02  0.63220296525E+01  0.60611561734E+02  0.00000000000E+00 0.  1.
         -3    1    1    2    0  502 -0.35112925851E+02 -0.64604978841E+01  0.83656186842E+02  0.90956105852E+02  0.00000000000E+00 0.  1.
<scales pt_clust_5="13000.00000" pt_clust_6="13000.00000" pt_clust_7="13000.00000" pt_clust_8="13000.00000" pt_clust_9="35.70232"></scales>
<clustering>
<clus scale="   35.702">  1  9  2 -1</clus>
<clus scale="   90.777">  7  8 -1 -1</clus>
<clus scale="   91.721">  5  6 -1 -1</clus>
<clus scale="  106.171">  1  7  2 -1</clus>
<clus scale="   35.702">  1  5  2 -1</clus>
</clustering>
</event>
<event>
 9    1  0.1321469E-005  0.1157629E+03  0.7546771E-02  0.1250956E+00
          1   -1    0    0  502    0 -0.00000000000E+00  0.00000000000E+00  0.10113124656E+03  0.10113124656E+03  0.00000000000E+00 0. -1.
         21   -1    0    0  501  502  0.00000000000E+00 -0.00000000000E+00 -0.17701762867E+03  0.17701762867E+03  0.00000000000E+00 0.  1.
         23    2    1    2    0    0  0.27528015042E+01 -0.73655142984E+02  0.91697558039E+01  0.11749595504E+03  0.91041512645E+02 0.  0.
         23    2    1    2    0    0  0.12887824271E+02  0.60700464113E+02 -0.55670275911E+02  0.12493203323E+03  0.93049400586E+02 0.  0.
        -13    1    3    3    0    0 -0.58988516713E+01 -0.44334239462E+02  0.49614365668E+02  0.66797503848E+02  0.00000000000E+00 0. -1.
         13    1    3    3    0    0  0.86516531755E+01 -0.29320903522E+02 -0.40444609864E+02  0.50698451190E+02  0.00000000000E+00 0.  1.
        -13    1    4    4    0    0  0.11573262030E+02  0.85828020726E+02 -0.45042684038E+02  0.97617789983E+02  0.00000000000E+00 0. -1.
         13    1    4    4    0    0  0.13145622403E+01 -0.25127556613E+02 -0.10627591873E+02  0.27314243249E+02  0.00000000000E+00 0.  1.
          1    1    1    2  501    0 -0.15640625775E+02  0.12954678871E+02 -0.29385862008E+02  0.35720886961E+02  0.00000000000E+00 0. -1.
<scales pt_clust_5="13000.00000" pt_clust_6="13000.00000" pt_clust_7="13000.00000" pt_clust_8="13000.00000" pt_clust_9="20.30894"></scales>
<clustering>
<clus scale="   20.309">  2  9  1 -1</clus>
<clus scale="   91.042">  5  6 -1 -1</clus>
<clus scale="   93.049">  7  8 -1 -1</clus>
<clus scale="  114.155">  1  5  2 -1</clus>
<clus scale="   20.309">  2  5  1 -1</clus>
</clustering>
</event>
<event>
 9    1  0.1321469E-005  0.9442150E+02  0.7546771E-02  0.1294054E+00
         -4   -1    0    0    0  501 -0.00000000000E+00  0.00000000000E+00  0.20200718698E+03  0.20200718698E+03  0.00000000000E+00 0.  1.
         21   -1    0    0  501  502  0.00000000000E+00 -0.00000000000E+00 -0.64981720577E+02  0.64981720577E+02  0.00000000000E+00 0. -1.
         23    2    1    2    0    0 -0.30975079727E+02 -0.72031927064E+01  0.87410188231E+02  0.13122300681E+03  0.92561303800E+02 0.  0.
         23    2    1    2    0    0  0.33418904299E+01 -0.10998719392E+02  0.48422684265E+02  0.10265510137E+03  0.89784037706E+02 0.  0.
        -11    1    4    4    0    0  0.30006819445E+01 -0.50712738508E+02  0.27164596519E+02  0.57608169934E+02  0.00000000000E+00 0.  1.
         11    1    4    4    0    0  0.34120848545E+00  0.39714019116E+02  0.21258087747E+02  0.45046931440E+02  0.00000000000E+00 0. -1.
        -13    1    3    3    0    0  0.31981237399E+02 -0.97233595842E+00  0.15846821512E+02  0.35705276008E+02  0.00000000000E+00 0.  1.
         13    1    3    3    0    0 -0.62956317126E+02 -0.62308567480E+01  0.71563366720E+02  0.95517730805E+02  0.00000000000E+00 0. -1.
         -4    1    1    2    0  502  0.27633189297E+02  0.18201912099E+02  0.11925939073E+01  0.33110799371E+02  0.00000000000E+00 0.  1.
<scales pt_clust_5="13000.00000" pt_clust_6="13000.00000" pt_clust_7="13000.00000" pt_clust_8="13000.00000" pt_clust_9="33.08931"></scales>
<clustering>
<clus scale="   33.089">  2  9  1 -1</clus>
<clus scale="   89.784">  5  6 -1 -1</clus>
<clus scale="   91.701">  2  5  1 -1</clus>
<clus scale="   92.561">  7  8 -1 -1</clus>
<clus scale="   33.089">  2  5  1 -1</clus>
</clustering>
</event>
<event>
 9    1  0.1321469E-005  0.9160665E+02  0.7546771E-02  0.1303333E+00
         -1   -1    0    0    0  501 -0.00000000000E+00  0.00000000000E+00  0.62856310369E+02  0.62856310369E+02  0.00000000000E+00 0.  1.
         21   -1    0    0  501  502  0.00000000000E+00 -0.00000000000E+00 -0.27661257851E+03  0.27661257851E+03  0.00000000000E+00 0.  1.
         23    2    1    2    0    0 -0.20905489049E+02 -0.70509199358E+00 -0.33339526494E+02  0.92926190813E+02  0.84179666696E+02 0.  0.
         23    2    1    2    0    0 -0.20716656538E+02 -0.18923146408E+02 -0.48961531160E+02  0.10726548130E+03  0.91221634587E+02 0.  0.
        -11    1    4    4    0    0  0.13552747980E+02  0.30726406106E+02 -0.85526139916E+01  0.34654526633E+02  0.00000000000E+00 0. -1.
         11    1    4    4    0    0 -0.34269404518E+02 -0.49649552514E+02 -0.40408917169E+02  0.72610954667E+02  0.00000000000E+00 0.  1.
        -13    1    3    3    0    0 -0.20711124229E+02  0.30907300894E+02 -0.45746507121E+02  0.58965708926E+02  0.00000000000E+00 0. -1.
         13    1    3    3    0    0 -0.19436481985E+00 -0.31612392887E+02  0.12406980627E+02  0.33960481887E+02  0.00000000000E+00 0.  1.
         -1    1    1    2    0  502  0.41622145587E+02  0.19628238402E+02 -0.13145521049E+03  0.13927721677E+03  0.00000000000E+00 0.  1.
<scales pt_clust_5="13000.00000" pt_clust_6="13000.00000" pt_clust_7="13000.00000" pt_clust_8="13000.00000" pt_clust_9="46.01816"></scales>
<clustering>
<clus scale="   46.018">  2  9  1 -1</clus>
<clus scale="   84.180">  7  8 -1 -1</clus>
<clus scale="   84.597">  1  7  2 -1</clus>
<clus scale="   91.222">  5  6 -1 -1</clus>
<clus scale="   46.018">  2  5  1 -1</clus>
</clustering>
</event>
<event>
 9    1  0.1321469E-005  0.1382058E+03  0.7546771E-02  0.1221465E+00
         21   -1    0    0  501  502  0.00000000000E+00  0.00000000000E+00  0.33343223246E+03  0.33343223246E+03  0.00000000000E+00 0.  1.
         -3   -1    0    0    0  501 -0.00000000000E+00 -0.00000000000E+00 -0.77229429258E+02  0.77229429258E+02  0.00000000000E+00 0.  1.
         23    2    1    2    0    0  0.64863520694E+02 -0.51986360294E+02  0.34691537227E+02  0.14238333825E+03  0.11027082244E+03 0.  0.
         23    2    1    2    0    0 -0.51395023219E+02  0.68627554966E+02  0.20992760274E+03  0.24393677384E+03  0.89913077608E+02 0.  0.
        -11    1    4    4    0    0 -0.64064735152E+02  0.23237370318E+02  0.16628080604E+03  0.17970412384E+03  0.00000000000E+00 0. -1.
         11    1    4    4    0    0  0.12669711933E+02  0.45390184649E+02  0.43646796705E+02  0.64232649996E+02  0.00000000000E+00 0.  1.
        -13    1    3    3    0    0  0.95542891430E+02 -0.47522631307E+02  0.31247927071E+02  0.11119027626E+03  0.00000000000E+00 0.  1.
         13    1    3    3    0    0 -0.30679370736E+02 -0.44637289870E+01  0.34436101562E+01  0.31193061987E+02  0.00000000000E+00 0. -1.
         -3    1    1    2    0  502 -0.13468497475E+02 -0.16641194672E+02  0.11583663227E+02  0.24341549624E+02  0.00000000000E+00 0.  1.
<scales pt_clust_5="13000.00000" pt_clust_6="13000.00000" pt_clust_7="13000.00000" pt_clust_8="13000.00000" pt_clust_9="21.40865"></scales>
<clustering>
<clus scale="   21.409">  1  9  2 -1</clus>
<clus scale="   89.913">  5  6 -1 -1</clus>
<clus scale="  110.271">  7  8 -1 -1</clus>
<clus scale="  122.579">  1  5  2 -1</clus>
<clus scale="   21.409">  1  5  2 -1</clus>
</clustering>
</event>
<event>
 9    1  0.1321469E-005  0.1011112E+03  0.7546771E-02  0.1279714E+00
         21   -1    0    0  501  502  0.00000000000E+00  0.00000000000E+00  0.10482795223E+03  0.10482795223E+03  0.00000000000E+00 0.  1.
         -1   -1    0    0    0  501 -0.00000000000E+00 -0.00000000000E+00 -0.38685733860E+03  0.38685733860E+03  0.00000000000E+00 0.  1.
         23    2    1    2    0    0  0.32535243175E+02 -0.33360858877E+02 -0.26766237592E+03  0.28726387285E+03  0.93305392187E+02 0.  0.
         23    2    1    2    0    0 -0.24429466203E+02  0.75521547096E+01 -0.86596596005E+02  0.12729226746E+03  0.89724673619E+02 0.  0.
        -11    1    4    4    0    0 -0.10457205251E+02 -0.40607111434E+02 -0.29317405821E+02  0.51164449814E+02  0.00000000000E+00 0. -1.
         11    1    4    4    0    0 -0.13972260951E+02  0.48159266144E+02 -0.57279190184E+02  0.76127817647E+02  0.00000000000E+00 0.  1.
        -13    1    3    3    0    0  0.72472075328E+01  0.31433544431E+02 -0.11620187176E+03  0.12059628823E+03  0.00000000000E+00 0.  1.
         13    1    3    3    0    0  0.25288035642E+02 -0.64794403309E+02 -0.15146050415E+03  0.16666758463E+03  0.00000000000E+00 0. -1.
         -1    1    1    2    0  502 -0.81057769727E+01  0.25808704168E+02  0.72229585545E+02  0.77129150515E+02  0.00000000000E+00 0.  1.
<scales pt_clust_5="13000.00000" pt_clust_6="13000.00000" pt_clust_7="13000.00000" pt_clust_8="13000.00000" pt_clust_9="27.05167"></scales>
<clustering>
<clus scale="   27.052">  1  9  2 -1</clus>
<clus scale="   89.725">  5  6 -1 -1</clus>
<clus scale="   93.305">  7  8 -1 -1</clus>
<clus scale="   97.817">  1  5  2 -1</clus>
<clus scale="   27.052">  1  5  2 -1</clus>
</clustering>
</event>
<event>
 9    1  0.1321469E-005  0.1025588E+03  0.7546771E-02  0.1276929E+00
         21   -1    0    0  501  502  0.00000000000E+00  0.00000000000E+00  0.78099067993E+02  0.78099067993E+02  0.00000000000E+00 0.  1.
         -2   -1    0    0    0  501 -0.00000000000E+00 -0.00000000000E+00 -0.45095416973E+03  0.45095416973E+03  0.00000000000E+00 0.  1.
         23    2    1    2    0    0  0.27261732243E+02  0.10548135016E+02 -0.20218987710E+03  0.22220798183E+03  0.87413818055E+02 0.  0.
         23    2    1    2    0    0 -0.54117899995E+02 -0.50101461745E+02 -0.21279397039E+03  0.24312280601E+03  0.91588871574E+02 0.  0.
        -11    1    3    3    0    0  0.25022162357E+01 -0.37577470958E+02 -0.93161395714E+02  0.10048568585E+03  0.00000000000E+00 0.  1.
         11    1    3    3    0    0  0.24759516007E+02  0.48125605974E+02 -0.10902848139E+03  0.12172229597E+03  0.00000000000E+00 0. -1.
        -13    1    4    4    0    0 -0.29092162218E+02  0.18325681827E+02 -0.12176298635E+03  0.12652434296E+03  0.00000000000E+00 0. -1.
         13    1    4    4    0    0 -0.25025737777E+02 -0.68427143572E+02 -0.91030984041E+02  0.11659846304E+03  0.00000000000E+00 0.  1.
         -2    1    1    2    0  502  0.26856167753E+02  0.39553326729E+02  0.42128745755E+02  0.63722449895E+02  0.00000000000E+00 0.  1.
<scales pt_clust_5="13000.00000" pt_clust_6="13000.00000" pt_clust_7="13000.00000" pt_clust_8="13000.00000" pt_clust_9="47.80920"></scales>
<clustering>
<clus scale="   47.809">  1  9  2 -1</clus>
<clus scale="   87.414">  5  6 -1 -1</clus>
<clus scale="   91.589">  7  8 -1 -1</clus>
<clus scale="   98.848">  2  5  1 -1</clus>
<clus scale="   47.809">  1  5  2 -1</clus>
</clustering>
</event>
<event>
 9    1  0.1321469E-005  0.9860173E+02  0.7546771E-02  0.1283435E+00
         -2   -1    0    0    0  501 -0.00000000000E+00  0.00000000000E+00  0.33130080662E+02  0.33130080662E+02  0.00000000000E+00 0.  1.
         21   -1    0    0  501  502  0.00000000000E+00 -0.00000000000E+00 -0.62653345498E+03  0.62653345498E+03  0.00000000000E+00 0. -1.
         23    2    1    2    0    0  0.34842102494E+02 -0.15206091953E+02 -0.12262191192E+03  0.15705385913E+03  0.90468690977E+02 0.  0.
         23    2    1    2    0    0  0.95933623280E+00  0.63357664499E+02 -0.23869154471E+03  0.26288890802E+03  0.90121087796E+02 0.  0.
        -11    1    3    3    0    0  0.38102856212E+02 -0.50124361788E+02 -0.82096640602E+02  0.10346080269E+03  0.00000000000E+00 0.  1.
         11    1    3    3    0    0 -0.32607537179E+01  0.34918269834E+02 -0.40525271316E+02  0.53593056437E+02  0.00000000000E+00 0. -1.
        -11    1    4    4    0    0  0.39536016008E+02  0.54254161322E+02 -0.17959094433E+03  0.19172771804E+03  0.00000000000E+00 0.  1.
         11    1    4    4    0    0 -0.38576679776E+02  0.91035031777E+01 -0.59100600386E+02  0.71161189974E+02  0.00000000000E+00 0. -1.
         -2    1    1    2    0  502 -0.35801438727E+02 -0.48151572546E+02 -0.23208991769E+03  0.23972076849E+03  0.00000000000E+00 0.  1.
<scales pt_clust_5="13000.00000" pt_clust_6="13000.00000" pt_clust_7="13000.00000" pt_clust_8="13000.00000" pt_clust_9="60.00264"></scales>
<clustering>
<clus scale="   60.003">  2  9  1 -1</clus>
<clus scale="   90.121">  7  8 -1 -1</clus>
<clus scale="   90.469">  5  6 -1 -1</clus>
<clus scale="   98.283">  2  7  1 -1</clus>
<clus scale="   60.003">  2  5  1 -1</clus>
</clustering>
</event>
<event>
 9    1  0.1321469E-005  0.1490972E+03  0.7546771E-02  0.1202607E+00
         21   -1    0    0  501  502  0.00000000000E+00  0.00000000000E+00  0.36998853120E+02  0.36998853120E+02  0.00000000000E+00 0. -1.
          1   -1    0    0  502    0 -0.00000000000E+00 -0.00000000000E+00 -0.82177995320E+03  0.82177995320E+03  0.00000000000E+00 0. -1.
         23    2    1    2    0    0  0.66111059151E+02  0.10457657032E+03 -0.50852310919E+03  0.53220425769E+03  0.96636888024E+02 0.  0.
         23    2    1    2    0    0 -0.73965744643E+02 -0.66811931302E+02 -0.22219432820E+03  0.26016111875E+03  0.91535362997E+02 0.  0.
        -11    1    4    4    0    0 -0.42856208702E+02 -0.69737458643E+02 -0.21206465148E+03  0.22731340517E+03  0.00000000000E+00 0.  1.
         11    1    4    4    0    0 -0.31109535941E+02  0.29255273401E+01 -0.10129676714E+02  0.32847713574E+02  0.00000000000E+00 0. -1.
        -13    1    3    3    0    0  0.66389954609E+02  0.28536531995E+02 -0.33574100801E+03  0.34342973691E+03  0.00000000000E+00 0. -1.
         13    1    3    3    0    0 -0.27889545857E+00  0.76040038326E+02 -0.17278210117E+03  0.18877452078E+03  0.00000000000E+00 0.  1.
          1    1    1    2  501    0  0.78546854925E+01 -0.37764639019E+02 -0.54063662693E+02  0.66413429878E+02  0.00000000000E+00 0. -1.
<scales pt_clust_5="13000.00000" pt_clust_6="13000.00000" pt_clust_7="13000.00000" pt_clust_8="13000.00000" pt_clust_9="38.57284"></scales>
<clustering>
<clus scale="   38.573">  1  9  2 -1</clus>
<clus scale="   91.535">  5  6 -1 -1</clus>
<clus scale="   96.637">  7  8 -1 -1</clus>
<clus scale="  145.842">  1  5  2 -1</clus>
<clus scale="   38.573">  1  5  2 -1</clus>
</clustering>
</event>
<event>
 9    1  0.1321469E-005  0.9852501E+02  0.7546771E-02  0.1284223E+00
         21   -1    0    0  501  502  0.00000000000E+00  0.00000000000E+00  0.31868835083E+03  0.31868835083E+03  0.00000000000E+00 0. -1.
          2   -1    0    0  502    0 -0.00000000000E+00 -0.00000000000E+00 -0.89250139710E+02  0.89250139710E+02  0.00000000000E+00 0. -1.
         23    2    1    2    0    0 -0.11792257814E+02  0.12831465637E+02  0.88204913610E+01  0.93426237572E+02  0.91361682035E+02 0.  0.
         23    2    1    2    0    0  0.35786296569E+02 -0.51584060002E+02  0.23301490364E+02  0.11200010062E+03  0.89774655764E+02 0.  0.
        -11    1    3    3    0    0  0.37288795970E+02  0.10236403669E+02 -0.11348615914E+02  0.40299247488E+02  0.00000000000E+00 0.  1.
         11    1    3    3    0    0 -0.49081053783E+02  0.25950619682E+01  0.20169107275E+02  0.53126990084E+02  0.00000000000E+00 0. -1.
        -11    1    4    4    0    0  0.49841096446E+02 -0.69804633508E+02  0.12860375933E+02  0.86730680980E+02  0.00000000000E+00 0. -1.
         11    1    4    4    0    0 -0.14054799877E+02  0.18220573506E+02  0.10441114431E+02  0.25269419641E+02  0.00000000000E+00 0.  1.
          2    1    1    2  501    0 -0.23994038755E+02  0.38752594365E+02  0.19731622940E+03  0.20251215235E+03  0.00000000000E+00 0. -1.
<scales pt_clust_5="13000.00000" pt_clust_6="13000.00000" pt_clust_7="13000.00000" pt_clust_8="13000.00000" pt_clust_9="45.57935"></scales>
<clustering>
<clus scale="   45.579">  1  9  2 -1</clus>
<clus scale="   89.775">  7  8 -1 -1</clus>
<clus scale="   91.362">  5  6 -1 -1</clus>
<clus scale="   97.055">  1  7  2 -1</clus>
<clus scale="   45.579">  1  5  2 -1</clus>
</clustering>
</event>
<event>
 9    1  0.1321469E-005  0.1249151E+03  0.7546771E-02  0.1235662E+00
         21   -1    0    0  501  502  0.00000000000E+00  0.00000000000E+00  0.51695530182E+02  0.51695530182E+02  0.00000000000E+00 0. -1.
          2   -1    0    0  502    0 -0.00000000000E+00 -0.00000000000E+00 -0.64125663058E+03  0.64125663058E+03  0.00000000000E+00 0. -1.
         23    2    1    2    0    0  0.36235828098E+02 -0.11246069226E+03 -0.40038364288E+03  0.42721429617E+03  0.90799508971E+02 0.  0.
         23    2    1    2    0    0 -0.29272882806E+02  0.28871542049E+02 -0.12065967821E+03  0.15743128713E+03  0.92387145283E+02 0.  0.
        -13    1    4    4    0    0  0.33456793699E+02  0.14783332497E+02 -0.38481183153E+02  0.53091481626E+02  0.00000000000E+00 0.  1.
         13    1    4    4    0    0 -0.62729676505E+02  0.14088209553E+02 -0.82178495061E+02  0.10433980551E+03  0.00000000000E+00 0. -1.
        -13    1    3    3    0    0 -0.21119526714E+02 -0.21733677000E+02 -0.17466418548E+03  0.17727370029E+03  0.00000000000E+00 0.  1.
         13    1    3    3    0    0  0.57355354812E+02 -0.90727015258E+02 -0.22571945740E+03  0.24994059589E+03  0.00000000000E+00 0. -1.
          2    1    1    2  501    0 -0.69629452915E+01  0.83589150209E+02 -0.68517779311E+02  0.10830657746E+03  0.00000000000E+00 0. -1.
<scales pt_clust_5="13000.00000" pt_clust_6="13000.00000" pt_clust_7="13000.00000" pt_clust_8="13000.00000" pt_clust_9="83.87865"></scales>
<clustering>
<clus scale="   83.879">  1  9  2 -1</clus>
<clus scale="   90.800">  7  8 -1 -1</clus>
<clus scale="   92.387">  5  6 -1 -1</clus>
<clus scale="  123.746">  2  7  1 -1</clus>
<clus scale="   83.879">  1  5  2 -1</clus>
</clustering>
</event>
<event>
 9    1  0.1321469E-005  0.1165550E+03  0.7546771E-02  0.1249251E+00
         -1   -1    0    0    0  501 -0.00000000000E+00  0.00000000000E+00  0.69564252807E+03  0.69564252807E+03  0.00000000000E+00 0.  1.
         21   -1    0    0  501  502  0.00000000000E+00 -0.00000000000E+00 -0.33622469166E+02  0.33622469166E+02  0.00000000000E+00 0.  1.
         23    2    1    2    0    0 -0.18449006191E+02 -0.64824692976E+02  0.42999112823E+03  0.44455362720E+03  0.90514918393E+02 0.  0.
         23    2    1    2    0    0  0.37435697211E+02  0.74048005487E+02  0.23282376915E+03  0.26358802518E+03  0.91581662989E+02 0.  0.
        -13    1    4    4    0    0  0.59228672499E+02  0.50145586937E+02  0.98362180443E+02  0.12529059852E+03  0.00000000000E+00 0.  1.
         13    1    4    4    0    0 -0.21792975289E+02  0.23902418550E+02  0.13446158871E+03  0.13829742667E+03  0.00000000000E+00 0. -1.
        -13    1    3    3    0    0 -0.39690151744E+02 -0.37167945443E+01  0.89579343245E+02  0.98048872729E+02  0.00000000000E+00 0. -1.
         13    1    3    3    0    0  0.21241145553E+02 -0.61107898432E+02  0.34041178498E+03  0.34650475447E+03  0.00000000000E+00 0.  1.
         -1    1    1    2    0  502 -0.18986691020E+02 -0.92233125110E+01 -0.79483847705E+00  0.21123344853E+02  0.00000000000E+00 0.  1.
<scales pt_clust_5="13000.00000" pt_clust_6="13000.00000" pt_clust_7="13000.00000" pt_clust_8="13000.00000" pt_clust_9="21.10839"></scales>
<clustering>
<clus scale="   21.108">  2  9  1 -1</clus>
<clus scale="   90.515">  7  8 -1 -1</clus>
<clus scale="   91.582">  5  6 -1 -1</clus>
<clus scale="  115.719">  1  7  2 -1</clus>
<clus scale="   21.108">  2  5  1 -1</clus>
</clustering>
</event>
<event>
 9    1  0.1321469E-005  0.1024774E+03  0.7546771E-02  0.1275622E+00
          1   -1    0    0  502    0 -0.00000000000E+00  0.00000000000E+00  0.76290260112E+03  0.76290260112E+03  0.00000000000E+00 0. -1.
         21   -1    0    0  501  502  0.00000000000E+00 -0.00000000000E+00 -0.20236652245E+02  0.20236652245E+02  0.00000000000E+00 0. -1.
         23    2    1    2    0    0  0.25064102416E+02 -0.55551809080E+02  0.43019865912E+03  0.44367506782E+03  0.89791239947E+02 0.  0.
         23    2    1    2    0    0 -0.16236567791E+02  0.32408337903E+02  0.29196375426E+03  0.30730923891E+03  0.88781800040E+02 0.  0.
        -11    1    4    4    0    0  0.31905465642E+02  0.33852132787E+02  0.16788460547E+03  0.17421012137E+03  0.00000000000E+00 0.  1.
         11    1    4    4    0    0 -0.48142033433E+02 -0.14437948842E+01  0.12407914878E+03  0.13309911754E+03  0.00000000000E+00 0. -1.
        -13    1    3    3    0    0 -0.16967390412E+02 -0.63510227468E+02  0.25864384294E+03  0.26686715575E+03  0.00000000000E+00 0. -1.
         13    1    3    3    0    0  0.42031492828E+02  0.79584183883E+01  0.17155481619E+03  0.17680791207E+03  0.00000000000E+00 0.  1.
          1    1    1    2  501    0 -0.88275346245E+01  0.23143471177E+02  0.20503535501E+02  0.32154946645E+02  0.00000000000E+00 0. -1.
<scales pt_clust_5="13000.00000" pt_clust_6="13000.00000" pt_clust_7="13000.00000" pt_clust_8="13000.00000" pt_clust_9="24.76985"></scales>
<clustering>
<clus scale="   24.770">  2  9  1 -1</clus>
<clus scale="   88.782">  5  6 -1 -1</clus>
<clus scale="   89.791">  7  8 -1 -1</clus>
<clus scale="  101.594">  2  5  1 -1</clus>
<clus scale="   24.770">  2  5  1 -1</clus>
</clustering>
</event>
<event>
 9    1  0.1321469E-005  0.1067778E+03  0.7546771E-02  0.1268778E+00
          1   -1    0    0  502    0 -0.00000000000E+00  0.00000000000E+00  0.64208085465E+03  0.64208085465E+03  0.00000000000E+00 0. -1.
         21   -1    0    0  501  502  0.00000000000E+00 -0.00000000000E+00 -0.34041257877E+02  0.34041257877E+02  0.00000000000E+00 0. -1.
         23    2    1    2    0    0  0.11011079673E+02 -0.42817745063E+02  0.32874696931E+03  0.34483821177E+03  0.94256136689E+02 0.  0.
         23    2    1    2    0    0 -0.35112408280E+02  0.47923252609E+02  0.28623845878E+03  0.30568732246E+03  0.89346317605E+02 0.  0.
        -11    1    4    4    0    0  0.17909098915E+02  0.19154824904E+02  0.20771723080E+02  0.33453065940E+02  0.00000000000E+00 0.  1.
         11    1    4    4    0    0 -0.53021507195E+02  0.28768427705E+02  0.26546673570E+03  0.27223425652E+03  0.00000000000E+00 0. -1.
        -13    1    3    3    0    0  0.45126618245E+02 -0.38127035678E+02  0.12568459820E+03  0.13887656659E+03  0.00000000000E+00 0. -1.
         13    1    3    3    0    0 -0.34115538573E+02 -0.46907093852E+01  0.20306237110E+03  0.20596164518E+03  0.00000000000E+00 0.  1.
          1    1    1    2  501    0  0.24101328607E+02 -0.51055075464E+01 -0.69458313131E+01  0.25596578298E+02  0.00000000000E+00 0. -1.
<scales pt_clust_5="13000.00000" pt_clust_6="13000.00000" pt_clust_7="13000.00000" pt_clust_8="13000.00000" pt_clust_9="24.63616"></scales>
<clustering>
<clus scale="   24.636">  2  9  1 -1</clus>
<clus scale="   89.346">  5  6 -1 -1</clus>
<clus scale="   94.256">  7  8 -1 -1</clus>
<clus scale="  102.470">  2  5  1 -1</clus>
<clus scale="   24.636">  2  5  1 -1</clus>
</clustering>
</event>
<event>
 9    1  0.1321469E-005  0.9600388E+02  0.7546771E-02  0.1295754E+00
          3   -1    0    0  502    0 -0.00000000000E+00  0.00000000000E+00  0.69397329719E+02  0.69397329719E+02  0.00000000000E+00 0. -1.
         21   -1    0    0  501  502  0.00000000000E+00 -0.00000000000E+00 -0.26197465405E+03  0.26197465405E+03  0.00000000000E+00 0.  1.
         23    2    1    2    0    0  0.26292917379E+02 -0.24410663206E+02  0.15054253532E+01  0.87086219754E+02  0.79338171034E+02 0.  0.
         23    2    1    2    0    0  0.22116510047E+02  0.28278967241E+02 -0.11276723287E+03  0.14957225012E+03  0.91468952064E+02 0.  0.
        -13    1    4    4    0    0 -0.90054414732E+01 -0.28190544085E+02 -0.57419470738E+02  0.64597216440E+02  0.00000000000E+00 0.  1.
         13    1    4    4    0    0  0.31121951520E+02  0.56469511326E+02 -0.55347762133E+02  0.84975033680E+02  0.00000000000E+00 0. -1.
        -13    1    3    3    0    0  0.24767538558E+02  0.17252394147E+02  0.25033725779E+02  0.39214327693E+02  0.00000000000E+00 0. -1.
         13    1    3    3    0    0  0.15253788211E+01 -0.41663057353E+02 -0.23528300426E+02  0.47871892061E+02  0.00000000000E+00 0.  1.
          3    1    1    2  501    0 -0.48409427426E+02 -0.38683040351E+01 -0.81315516815E+02  0.94713513897E+02  0.00000000000E+00 0. -1.
<scales pt_clust_5="13000.00000" pt_clust_6="13000.00000" pt_clust_7="13000.00000" pt_clust_8="13000.00000" pt_clust_9="48.56374"></scales>
<clustering>
<clus scale="   48.564">  2  9  1 -1</clus>
<clus scale="   79.338">  7  8 -1 -1</clus>
<clus scale="   84.526">  1  7  2 -1</clus>
<clus scale="   91.469">  5  6 -1 -1</clus>
<clus scale="   48.564">  2  5  1 -1</clus>
</clustering>
</event>
<event>
 9    1  0.1321469E-005  0.1914040E+03  0.7546771E-02  0.1179771E+00
         21   -1    0    0  501  502  0.00000000000E+00  0.00000000000E+00  0.37493375535E+03  0.37493375535E+03  0.00000000000E+00 0. -1.
         -3   -1    0    0    0  501 -0.00000000000E+00 -0.00000000000E+00 -0.16055763713E+03  0.16055763713E+03  0.00000000000E+00 0.  1.
         23    2    1    2    0    0  0.39164548924E+02  0.60472764170E+02  0.27449034497E+02  0.11731642888E+03  0.88424419093E+02 0.  0.
         23    2    1    2    0    0 -0.30469240467E+02 -0.19706783371E+03  0.17799169809E+03  0.28101205852E+03  0.86733077563E+02 0.  0.
        -11    1    3    3    0    0  0.45893012875E+02  0.30579397219E+02 -0.21810874869E+02  0.59304151857E+02  0.00000000000E+00 0. -1.
         11    1    3    3    0    0 -0.67284639504E+01  0.29893366951E+02  0.49259909366E+02  0.58012277024E+02  0.00000000000E+00 0.  1.
        -13    1    4    4    0    0 -0.83722839885E+01 -0.17863882032E+03  0.17788297742E+03  0.25223853179E+03  0.00000000000E+00 0. -1.
         13    1    4    4    0    0 -0.22096956478E+02 -0.18429013399E+02  0.10872067605E+00  0.28773526733E+02  0.00000000000E+00 0.  1.
         -3    1    1    2    0  502 -0.86953084575E+01  0.13659506954E+03  0.89353856293E+01  0.13716290508E+03  0.00000000000E+00 0.  1.
<scales pt_clust_5="13000.00000" pt_clust_6="13000.00000" pt_clust_7="13000.00000" pt_clust_8="13000.00000" pt_clust_9="170.62506"></scales>
<clustering>
<clus scale="   86.733">  7  8 -1 -1</clus>
<clus scale="   88.424">  5  6 -1 -1</clus>
<clus scale="  114.060">  2  5  1 -1</clus>
<clus scale="  170.625">  1  9  2 -1</clus>
<clus scale="  170.625">  1  5  2 -1</clus>
</clustering>
</event>
<event>
 9    1  0.1321469E-005  0.1253582E+03  0.7546771E-02  0.1248110E+00
          4   -1    0    0  502    0 -0.00000000000E+00  0.00000000000E+00  0.14851839422E+03  0.14851839422E+03  0.00000000000E+00 0. -1.
         21   -1    0    0  501  502  0.00000000000E+00 -0.00000000000E+00 -0.21053071070E+03  0.21053071070E+03  0.00000000000E+00 0. -1.
         23    2    1    2    0    0  0.24679465382E+02 -0.84831696105E+01  0.59822254731E+02  0.11240243787E+03  0.91512653218E+02 0.  0.
         23    2    1    2    0    0  0.70594362332E+02 -0.30259052721E+01 -0.43765700156E+02  0.12293607866E+03  0.90582133059E+02 0.  0.
        -11    1    3    3    0    0  0.54063934106E+02  0.38870743722E+01  0.12973738154E+02  0.55734515337E+02  0.00000000000E+00 0. -1.
         11    1    3    3    0    0 -0.29384468723E+02 -0.12370243983E+02  0.46848516577E+02  0.56667922529E+02  0.00000000000E+00 0.  1.
        -11    1    4    4    0    0  0.29219386900E+02 -0.33728141876E+02  0.12799249741E+02  0.46423926149E+02  0.00000000000E+00 0. -1.
         11    1    4    4    0    0  0.41374975432E+02  0.30702236603E+02 -0.56564949896E+02  0.76512152507E+02  0.00000000000E+00 0.  1.
          4    1    1    2  501    0 -0.95273827715E+02  0.11509074883E+02 -0.78068871054E+02  0.12371058839E+03  0.00000000000E+00 0. -1.
<scales pt_clust_5="13000.00000" pt_clust_6="13000.00000" pt_clust_7="13000.00000" pt_clust_8="13000.00000" pt_clust_9="86.65771"></scales>
<clustering>
<clus scale="   90.582">  7  8 -1 -1</clus>
<clus scale="   91.513">  5  6 -1 -1</clus>
<clus scale="   95.161">  1  5  2 -1</clus>
<clus scale="   86.658">  2  9  1 -1</clus>
<clus scale="   86.658">  2  5  1 -1</clus>
</clustering>
</event>
<event>
 9    1  0.1321469E-005  0.1046896E+03  0.7546771E-02  0.1273109E+00
         -3   -1    0    0    0  501 -0.00000000000E+00  0.00000000000E+00  0.46922789491E+03  0.46922789491E+03  0.00000000000E+00 0.  1.
         21   -1    0    0  501  502  0.00000000000E+00 -0.00000000000E+00 -0.10134311670E+03  0.10134311670E+03  0.00000000000E+00 0.  1.
         23    2    1    2    0    0 -0.24259715624E+02 -0.19728927194E+02  0.24970070394E+03  0.26775194241E+03  0.91448875041E+02 0.  0.
         23    2    1    2    0    0  0.48996507299E+02  0.27366507504E+02  0.19336911320E+03  0.22330157694E+03  0.96552560108E+02 0.  0.
        -11    1    4    4    0    0  0.65319331788E+02  0.95291299562E+01  0.18698434963E+03  0.19829414119E+03  0.00000000000E+00 0. -1.
         11    1    4    4    0    0 -0.16322824489E+02  0.17837377548E+02  0.63847635719E+01  0.25007435753E+02  0.00000000000E+00 0.  1.
        -13    1    3    3    0    0 -0.56002010515E+02 -0.26236602638E+02  0.19018551828E+03  0.19998778929E+03  0.00000000000E+00 0.  1.
         13    1    3    3    0    0  0.31742294891E+02  0.65076754449E+01  0.59515185655E+02  0.67764153120E+02  0.00000000000E+00 0. -1.
         -3    1    1    2    0  502 -0.24736791675E+02 -0.76375803104E+01 -0.75185038934E+02  0.79517492257E+02  0.00000000000E+00 0.  1.
<scales pt_clust_5="13000.00000" pt_clust_6="13000.00000" pt_clust_7="13000.00000" pt_clust_8="13000.00000" pt_clust_9="25.88902"></scales>
<clustering>
<clus scale="   25.889">  2  9  1 -1</clus>
<clus scale="   91.449">  7  8 -1 -1</clus>
<clus scale="   96.553">  5  6 -1 -1</clus>
<clus scale="  100.002">  1  7  2 -1</clus>
<clus scale="   25.889">  2  5  1 -1</clus>
</clustering>
</event>
<event>
 9    1  0.1321469E-005  0.1092094E+03  0.7546771E-02  0.1273654E+00
          4   -1    0    0  502    0 -0.00000000000E+00  0.00000000000E+00  0.19061420755E+03  0.19061420755E+03  0.00000000000E+00 0. -1.
         21   -1    0    0  501  502  0.00000000000E+00 -0.00000000000E+00 -0.12826145693E+03  0.12826145693E+03  0.00000000000E+00 0.  1.
         23    2    1    2    0    0 -0.56932561648E+02 -0.18767504372E+02  0.12904648865E+03  0.15514994395E+03  0.61846366739E+02 0.  0.
         23    2    1    2    0    0  0.73179281609E+02 -0.21144638831E+00 -0.31230532049E+02  0.12034605410E+03  0.90291608910E+02 0.  0.
        -11    1    3    3    0    0 -0.45161821641E+02 -0.35646389218E+02  0.11915448493E+03  0.13231797488E+03  0.00000000000E+00 0.  1.
         11    1    3    3    0    0 -0.11770740008E+02  0.16878884846E+02  0.98920037238E+01  0.22831969071E+02  0.00000000000E+00 0. -1.
        -13    1    4    4    0    0  0.25989992929E+02 -0.37434350251E+02  0.11011354449E+02  0.46883475105E+02  0.00000000000E+00 0. -1.
         13    1    4    4    0    0  0.47189288680E+02  0.37222903862E+02 -0.42241886497E+02  0.73462578997E+02  0.00000000000E+00 0.  1.
          4    1    1    2  501    0 -0.16246719960E+02  0.18978950760E+02 -0.35463205977E+02  0.43379666430E+02  0.00000000000E+00 0. -1.
<scales pt_clust_5="13000.00000" pt_clust_6="13000.00000" pt_clust_7="13000.00000" pt_clust_8="13000.00000" pt_clust_9="24.98312"></scales>
<clustering>
<clus scale="   24.983">  2  9  1 -1</clus>
<clus scale="   61.846">  5  6 -1 -1</clus>
<clus scale="   87.173">  1  5  2 -1</clus>
<clus scale="   90.292">  7  8 -1 -1</clus>
<clus scale="   24.983">  2  5  1 -1</clus>
</clustering>
</event>
<event>
 9    1  0.1321469E-005  0.1296981E+03  0.7546771E-02  0.1228132E+00
         -1   -1    0    0    0  501 -0.00000000000E+00  0.00000000000E+00  0.42640985339E+03  0.42640985339E+03  0.00000000000E+00 0.  1.
         21   -1    0    0  501  502  0.00000000000E+00 -0.00000000000E+00 -0.39749561819E+03  0.39749561819E+03  0.00000000000E+00 0.  1.
         23    2    1    2    0    0 -0.86968746678E+02 -0.45980153539E+02  0.38278209236E+03  0.40522061738E+03  0.89464412471E+02 0.  0.
         23    2    1    2    0    0  0.43264229135E+02  0.27593810813E+02 -0.57898725328E+02  0.11894184852E+03  0.90342066712E+02 0.  0.
        -13    1    3    3    0    0 -0.79594777966E+02 -0.66078031388E+02  0.35711974047E+03  0.37180121563E+03  0.00000000000E+00 0.  1.
         13    1    3    3    0    0 -0.73739687127E+01  0.20097877849E+02  0.25662351889E+02  0.33419401746E+02  0.00000000000E+00 0. -1.
        -13    1    4    4    0    0  0.25531839640E+01 -0.30051218527E+02 -0.31457742177E+02  0.43579628569E+02  0.00000000000E+00 0.  1.
         13    1    4    4    0    0  0.40711045171E+02  0.57645029340E+02 -0.26440983151E+02  0.75362219954E+02  0.00000000000E+00 0. -1.
         -1    1    1    2    0  502  0.43704517543E+02  0.18386342726E+02 -0.29596913184E+03  0.29974300568E+03  0.00000000000E+00 0.  1.
<scales pt_clust_5="13000.00000" pt_clust_6="13000.00000" pt_clust_7="13000.00000" pt_clust_8="13000.00000" pt_clust_9="47.41458"></scales>
<clustering>
<clus scale="   47.415">  2  9  1 -1</clus>
<clus scale="   89.464">  5  6 -1 -1</clus>
<clus scale="   90.342">  7  8 -1 -1</clus>
<clus scale="  129.088">  1  5  2 -1</clus>
<clus scale="   47.415">  2  5  1 -1</clus>
</clustering>
</event>
<event>
 9    1  0.1351179E-005  0.9591194E+02  0.7546771E-02  0.1291423E+00
         -1   -1    0    0    0  501 -0.00000000000E+00  0.00000000000E+00  0.27092336299E+03  0.27092336299E+03  0.00000000000E+00 0.  1.
         21   -1    0    0  501  502  0.00000000000E+00 -0.00000000000E+00 -0.13567584228E+03  0.13567584228E+03  0.00000000000E+00 0. -1.
         23    2    1    2    0    0 -0.12089649092E+02  0.28398939097E+01  0.20932600554E+03  0.22828143039E+03  0.90226438767E+02 0.  0.
         23    2    1    2    0    0  0.58246621412E+02 -0.19746334243E+02 -0.45397913319E+02  0.12140671267E+03  0.94318782470E+02 0.  0.
        -11    1    4    4    0    0  0.85837588970E+01  0.35104914940E+02 -0.33342490103E+01  0.36292605117E+02  0.00000000000E+00 0.  1.
         11    1    4    4    0    0  0.49662862515E+02 -0.54851249183E+02 -0.42063664308E+02  0.85114107556E+02  0.00000000000E+00 0. -1.
        -13    1    3    3    0    0  0.29130549038E+02  0.19986594977E+02  0.14959554574E+03  0.15371037756E+03  0.00000000000E+00 0.  1.
         13    1    3    3    0    0 -0.41220198130E+02 -0.17146701067E+02  0.59730459803E+02  0.74571052827E+02  0.00000000000E+00 0. -1.
         -1    1    1    2    0  502 -0.46156972319E+02  0.16906440333E+02 -0.28680571512E+02  0.56911062200E+02  0.00000000000E+00 0.  1.
<scales pt_clust_5="13000.00000" pt_clust_6="13000.00000" pt_clust_7="13000.00000" pt_clust_8="13000.00000" pt_clust_9="49.15581"></scales>
<clustering>
<clus scale="   49.156">  2  9  1 -1</clus>
<clus scale="   90.226">  7  8 -1 -1</clus>
<clus scale="   91.891">  1  7  2 -1</clus>
<clus scale="   94.319">  5  6 -1 -1</clus>
<clus scale="   49.156">  2  5  1 -1</clus>
</clustering>
</event>
<event>
 9    1  0.1321469E-005  0.1327654E+03  0.7546771E-02  0.1226005E+00
          1   -1    0    0  502    0 -0.00000000000E+00  0.00000000000E+00  0.71732366645E+03  0.71732366645E+03  0.00000000000E+00 0. -1.
         21   -1    0    0  501  502  0.00000000000E+00 -0.00000000000E+00 -0.29568598187E+02  0.29568598187E+02  0.00000000000E+00 0. -1.
         23    2    1    2    0    0  0.53815168245E+02 -0.92191281451E+02  0.36619999639E+03  0.39255451644E+03  0.92743227890E+02 0.  0.
         23    2    1    2    0    0 -0.25285496684E+02  0.80596418538E+02  0.25181778782E+03  0.27810342657E+03  0.82426807436E+02 0.  0.
        -11    1    3    3    0    0 -0.18532928734E+02 -0.51546308176E+02  0.19093121097E+03  0.19863337750E+03  0.00000000000E+00 0.  1.
         11    1    3    3    0    0  0.72348096979E+02 -0.40644973275E+02  0.17526878541E+03  0.19392113894E+03  0.00000000000E+00 0. -1.
        -13    1    4    4    0    0  0.26884436399E+01  0.23946838741E+02  0.67532601465E+01  0.25025693547E+02  0.00000000000E+00 0.  1.
         13    1    4    4    0    0 -0.27973940324E+02  0.56649579797E+02  0.24506452768E+03  0.25307773303E+03  0.00000000000E+00 0. -1.
          1    1    1    2  501    0 -0.28529671560E+02  0.11594862913E+02  0.69737284054E+02  0.76234321618E+02  0.00000000000E+00 0. -1.
<scales pt_clust_5="13000.00000" pt_clust_6="13000.00000" pt_clust_7="13000.00000" pt_clust_8="13000.00000" pt_clust_9="30.79583"></scales>
<clustering>
<clus scale="   30.796">  2  9  1 -1</clus>
<clus scale="   82.427">  7  8 -1 -1</clus>
<clus scale="   92.743">  5  6 -1 -1</clus>
<clus scale="  125.776">  2  7  1 -1</clus>
<clus scale="   30.796">  2  5  1 -1</clus>
</clustering>
</event>
<event>
 9    1  0.1321469E-005  0.1281816E+03  0.7546771E-02  0.1230207E+00
         21   -1    0    0  501  502  0.00000000000E+00  0.00000000000E+00  0.21349526891E+03  0.21349526891E+03  0.00000000000E+00 0.  1.
         -1   -1    0    0    0  501 -0.00000000000E+00 -0.00000000000E+00 -0.17900695494E+03  0.17900695494E+03  0.00000000000E+00 0.  1.
         23    2    1    2    0    0 -0.11985284570E+03 -0.33936513025E+02 -0.23343780467E+02  0.15775232951E+03  0.93938670640E+02 0.  0.
         23    2    1    2    0    0  0.16331100855E+02  0.69441912547E+02  0.27854773480E+02  0.12127732135E+03  0.94039439566E+02 0.  0.
        -11    1    3    3    0    0 -0.42532632048E+02 -0.27560712306E+02  0.34214962371E+02  0.61149663137E+02  0.00000000000E+00 0. -1.
         11    1    3    3    0    0 -0.77320213649E+02 -0.63758007184E+01 -0.57558742837E+02  0.96602666374E+02  0.00000000000E+00 0.  1.
        -11    1    4    4    0    0  0.33634184931E+02 -0.93860570709E+01  0.19874610460E+02  0.40179056786E+02  0.00000000000E+00 0. -1.
         11    1    4    4    0    0 -0.17303084077E+02  0.78827969618E+02  0.79801630204E+01  0.81098264559E+02  0.00000000000E+00 0.  1.
         -1    1    1    2    0  502  0.10352174484E+03 -0.35505399523E+02  0.29977320948E+02  0.11347257299E+03  0.00000000000E+00 0.  1.
<scales pt_clust_5="13000.00000" pt_clust_6="13000.00000" pt_clust_7="13000.00000" pt_clust_8="13000.00000" pt_clust_9="109.44124"></scales>
<clustering>
<clus scale="   93.939">  5  6 -1 -1</clus>
<clus scale="   94.039">  7  8 -1 -1</clus>
<clus scale="  109.441">  1  9  2 -1</clus>
<clus scale="  128.108">  2  5  1 -1</clus>
<clus scale="  109.441">  1  5  2 -1</clus>
</clustering>
</event>
<event>
 9    1  0.1321469E-005  0.9671938E+02  0.7546771E-02  0.1288135E+00
          3   -1    0    0  502    0 -0.00000000000E+00  0.00000000000E+00  0.31887993276E+02  0.31887993276E+02  0.00000000000E+00 0. -1.
         21   -1    0    0  501  502  0.00000000000E+00 -0.00000000000E+00 -0.45186961389E+03  0.45186961389E+03  0.00000000000E+00 0.  1.
         23    2    1    2    0    0 -0.21861848459E+02 -0.23839086810E+02 -0.16121732189E+03  0.18844255247E+03  0.92050682912E+02 0.  0.
         23    2    1    2    0    0  0.35935974846E+02 -0.79598225116E+01 -0.23094576820E+03  0.25078279327E+03  0.90561076006E+02 0.  0.
        -13    1    3    3    0    0  0.14941688501E+02 -0.43042055935E+02 -0.12606732906E+03  0.13404791714E+03  0.00000000000E+00 0.  1.
         13    1    3    3    0    0 -0.36803536960E+02  0.19202969125E+02 -0.35149992835E+02  0.54394635326E+02  0.00000000000E+00 0. -1.
        -13    1    4    4    0    0 -0.30249646012E+02 -0.34621503294E+01 -0.89884703245E+02  0.94901461770E+02  0.00000000000E+00 0.  1.
         13    1    4    4    0    0  0.66185620857E+02 -0.44976721822E+01 -0.14106106496E+03  0.15588133150E+03  0.00000000000E+00 0. -1.
          3    1    1    2  501    0 -0.14074126387E+02  0.31798909322E+02 -0.27818530518E+02  0.44532261427E+02  0.00000000000E+00 0. -1.
<scales pt_clust_5="13000.00000" pt_clust_6="13000.00000" pt_clust_7="13000.00000" pt_clust_8="13000.00000" pt_clust_9="34.77431"></scales>
<clustering>
<clus scale="   34.774">  2  9  1 -1</clus>
<clus scale="   90.561">  7  8 -1 -1</clus>
<clus scale="   92.051">  5  6 -1 -1</clus>
<clus scale="   95.303">  2  7  1 -1</clus>
<clus scale="   34.774">  2  5  1 -1</clus>
</clustering>
</event>
<event>
 9    1  0.1321469E-005  0.1167696E+03  0.7546771E-02  0.1251761E+00
          2   -1    0    0  502    0 -0.00000000000E+00  0.00000000000E+00  0.59800865322E+03  0.59800865322E+03  0.00000000000E+00 0. -1.
         21   -1    0    0  501  502  0.00000000000E+00 -0.00000000000E+00 -0.36686947057E+02  0.36686947057E+02  0.00000000000E+00 0.  1.
         23    2    1    2    0    0 -0.54130001356E+02  0.44895912342E+02  0.30503017345E+03  0.32869220093E+03  0.10024697626E+03 0.  0.
         23    2    1    2    0    0  0.55707669721E+02 -0.32406066577E+01  0.23683676874E+03  0.26000186273E+03  0.91626784293E+02 0.  0.
        -11    1    3    3    0    0 -0.15340738990E+02  0.64774289161E+02  0.24877958179E+03  0.25753121583E+03  0.00000000000E+00 0. -1.
         11    1    3    3    0    0 -0.38789262366E+02 -0.19878376819E+02  0.56250591658E+02  0.71160985110E+02  0.00000000000E+00 0.  1.
        -13    1    4    4    0    0  0.34833195249E+01 -0.40678802675E+02  0.67546200564E+02  0.78926470291E+02  0.00000000000E+00 0.  1.
         13    1    4    4    0    0  0.52224350196E+02  0.37438196017E+02  0.16929056818E+03  0.18107539244E+03  0.00000000000E+00 0. -1.
          2    1    1    2  501    0 -0.15776683647E+01 -0.41655305685E+02  0.19454763976E+02  0.46001536610E+02  0.00000000000E+00 0. -1.
<scales pt_clust_5="13000.00000" pt_clust_6="13000.00000" pt_clust_7="13000.00000" pt_clust_8="13000.00000" pt_clust_9="41.68517"></scales>
<clustering>
<clus scale="   41.685">  2  9  1 -1</clus>
<clus scale="   91.627">  7  8 -1 -1</clus>
<clus scale="  100.247">  5  6 -1 -1</clus>
<clus scale="  109.458">  2  7  1 -1</clus>
<clus scale="   41.685">  2  5  1 -1</clus>
</clustering>
</event>
<event>
 9    1  0.1321469E-005  0.1297593E+03  0.7546771E-02  0.1228468E+00
         -3   -1    0    0    0  501 -0.00000000000E+00  0.00000000000E+00  0.16979268624E+03  0.16979268624E+03  0.00000000000E+00 0.  1.
         21   -1    0    0  501  502  0.00000000000E+00 -0.00000000000E+00 -0.50092705800E+03  0.50092705800E+03  0.00000000000E+00 0. -1.
         23    2    1    2    0    0  0.73416032587E+02 -0.49925925205E+02  0.95964100127E+02  0.15936717037E+03  0.91138765789E+02 0.  0.
         23    2    1    2    0    0 -0.32630051855E+02  0.13005237086E+03 -0.37085401584E+03  0.40529984004E+03  0.93578415400E+02 0.  0.
        -11    1    4    4    0    0 -0.60902176270E+02  0.63061604194E+02 -0.24134768557E+03  0.25677723094E+03  0.00000000000E+00 0. -1.
         11    1    4    4    0    0  0.28272124415E+02  0.66990766661E+02 -0.12950633026E+03  0.14852260911E+03  0.00000000000E+00 0.  1.
        -11    1    3    3    0    0  0.53388881110E+02 -0.39087760166E+02  0.11298686147E+03  0.13093607786E+03  0.00000000000E+00 0.  1.
         11    1    3    3    0    0  0.20027151477E+02 -0.10838165039E+02 -0.17022761339E+02  0.28431092510E+02  0.00000000000E+00 0. -1.
         -3    1    1    2    0  502 -0.40785980732E+02 -0.80126445650E+02 -0.56244456055E+02  0.10605273383E+03  0.00000000000E+00 0.  1.
<scales pt_clust_5="13000.00000" pt_clust_6="13000.00000" pt_clust_7="13000.00000" pt_clust_8="13000.00000" pt_clust_9="89.90964"></scales>
<clustering>
<clus scale="   89.910">  2  9  1 -1</clus>
<clus scale="   91.139">  7  8 -1 -1</clus>
<clus scale="   93.578">  5  6 -1 -1</clus>
<clus scale="  128.011">  1  7  2 -1</clus>
<clus scale="   89.910">  2  5  1 -1</clus>
</clustering>
</event>
<event>
 9    1  0.1321469E-005  0.9984672E+02  0.7546771E-02  0.1280706E+00
          2   -1    0    0  502    0 -0.00000000000E+00  0.00000000000E+00  0.28059421043E+03  0.28059421043E+03  0.00000000000E+00 0. -1.
         21   -1    0    0  501  502  0.00000000000E+00 -0.00000000000E+00 -0.20610767889E+03  0.20610767889E+03  0.00000000000E+00 0.  1.
         23    2    1    2    0    0 -0.26623801647E+02 -0.31110439524E+02  0.24823935273E+03  0.26781457772E+03  0.91788809438E+02 0.  0.
         23    2    1    2    0    0  0.20714009581E+02  0.10627406216E+02 -0.83402039793E+02  0.12605550673E+03  0.91608288818E+02 0.  0.
        -11    1    4    4    0    0  0.25950257651E+01  0.45731741050E+02 -0.17132295704E+02  0.48904415488E+02  0.00000000000E+00 0. -1.
         11    1    4    4    0    0  0.18118983816E+02 -0.35104334833E+02 -0.66269744089E+02  0.77151091245E+02  0.00000000000E+00 0.  1.
        -13    1    3    3    0    0 -0.37098841846E+02 -0.59569676295E+02  0.17212460570E+03  0.18588101110E+03  0.00000000000E+00 0. -1.
         13    1    3    3    0    0  0.10475040199E+02  0.28459236772E+02  0.76114747022E+02  0.81933566620E+02  0.00000000000E+00 0.  1.
          2    1    1    2  501    0  0.59097920656E+01  0.20483033308E+02 -0.90350781395E+02  0.92831804864E+02  0.00000000000E+00 0. -1.
<scales pt_clust_5="13000.00000" pt_clust_6="13000.00000" pt_clust_7="13000.00000" pt_clust_8="13000.00000" pt_clust_9="21.31854"></scales>
<clustering>
<clus scale="   21.319">  2  9  1 -1</clus>
<clus scale="   91.608">  5  6 -1 -1</clus>
<clus scale="   91.789">  7  8 -1 -1</clus>
<clus scale="   99.681">  2  5  1 -1</clus>
<clus scale="   21.319">  2  5  1 -1</clus>
</clustering>
</event>
<event>
 9    1  0.1321469E-005  0.9414225E+02  0.7546771E-02  0.1293366E+00
         21   -1    0    0  501  502  0.00000000000E+00  0.00000000000E+00  0.29284099054E+02  0.29284099054E+02  0.00000000000E+00 0.  1.
         -1   -1    0    0    0  501 -0.00000000000E+00 -0.00000000000E+00 -0.66194885309E+03  0.66194885309E+03  0.00000000000E+00 0.  1.
         23    2    1    2    0    0 -0.39043773389E+02  0.50156646537E+01 -0.31976546401E+03  0.33502556923E+03  0.91883659779E+02 0.  0.
         23    2    1    2    0    0 -0.27022267619E+02 -0.26014613847E+02 -0.20535088837E+03  0.22825295219E+03  0.92322585257E+02 0.  0.
        -11    1    4    4    0    0  0.17810443477E+02  0.24856587998E+02 -0.47987961544E+02  0.56902603780E+02  0.00000000000E+00 0. -1.
         11    1    4    4    0    0 -0.44832711095E+02 -0.50871201845E+02 -0.15736292683E+03  0.17135034841E+03  0.00000000000E+00 0.  1.
        -13    1    3    3    0    0  0.20627858127E+02 -0.18731394079E+02 -0.45605440069E+02  0.53443707010E+02  0.00000000000E+00 0. -1.
         13    1    3    3    0    0 -0.59671631516E+02  0.23747058732E+02 -0.27416002394E+03  0.28158186223E+03  0.00000000000E+00 0.  1.
         -1    1    1    2    0  502  0.66066041008E+02  0.20998949193E+02 -0.10754840165E+03  0.12795443071E+03  0.00000000000E+00 0.  1.
<scales pt_clust_5="13000.00000" pt_clust_6="13000.00000" pt_clust_7="13000.00000" pt_clust_8="13000.00000" pt_clust_9="69.32300"></scales>
<clustering>
<clus scale="   69.323">  1  9  2 -1</clus>
<clus scale="   91.884">  7  8 -1 -1</clus>
<clus scale="   92.323">  5  6 -1 -1</clus>
<clus scale="   93.712">  2  7  1 -1</clus>
<clus scale="   69.323">  1  5  2 -1</clus>
</clustering>
</event>
<event>
 9    1  0.1321469E-005  0.1166522E+03  0.7546771E-02  0.1249433E+00
          1   -1    0    0  502    0 -0.00000000000E+00  0.00000000000E+00  0.34444853695E+03  0.34444853695E+03  0.00000000000E+00 0. -1.
         21   -1    0    0  501  502  0.00000000000E+00 -0.00000000000E+00 -0.11719639619E+03  0.11719639619E+03  0.00000000000E+00 0.  1.
         23    2    1    2    0    0 -0.25073061684E+02  0.84192342965E+02  0.18963438236E+03  0.22781651085E+03  0.90676097215E+02 0.  0.
         23    2    1    2    0    0  0.47425517674E+02 -0.33101173963E+02  0.10140645683E+03  0.14909980913E+03  0.92750289220E+02 0.  0.
        -11    1    3    3    0    0 -0.13556318388E+02 -0.18456405411E+02  0.31816152091E+02  0.39200512788E+02  0.00000000000E+00 0.  1.
         11    1    3    3    0    0 -0.11516743296E+02  0.10264874838E+03  0.15781823027E+03  0.18861599806E+03  0.00000000000E+00 0. -1.
        -13    1    4    4    0    0  0.46593295324E+02  0.35601464732E+01  0.62791636130E+01  0.47149100816E+02  0.00000000000E+00 0.  1.
         13    1    4    4    0    0  0.83222234993E+00 -0.36661320436E+02  0.95127293220E+02  0.10195070831E+03  0.00000000000E+00 0. -1.
          1    1    1    2  501    0 -0.22352455990E+02 -0.51091169003E+02 -0.63788698437E+02  0.84728613155E+02  0.00000000000E+00 0. -1.
<scales pt_clust_5="13000.00000" pt_clust_6="13000.00000" pt_clust_7="13000.00000" pt_clust_8="13000.00000" pt_clust_9="55.76683"></scales>
<clustering>
<clus scale="   55.767">  2  9  1 -1</clus>
<clus scale="   90.676">  5  6 -1 -1</clus>
<clus scale="   92.750">  7  8 -1 -1</clus>
<clus scale="  115.010">  1  5  2 -1</clus>
<clus scale="   55.767">  2  5  1 -1</clus>
</clustering>
</event>
<event>
 9    1  0.1321469E-005  0.1742448E+03  0.7546771E-02  0.1173996E+00
         -1   -1    0    0    0  501 -0.00000000000E+00  0.00000000000E+00  0.71643696529E+03  0.71643696529E+03  0.00000000000E+00 0.  1.
         21   -1    0    0  501  502  0.00000000000E+00 -0.00000000000E+00 -0.86137751138E+02  0.86137751138E+02  0.00000000000E+00 0.  1.
         23    2    1    2    0    0  0.11197279669E+02  0.10038721649E+03  0.18041031488E+03  0.22729625469E+03  0.94407273945E+02 0.  0.
         23    2    1    2    0    0 -0.63388035179E+02 -0.19883298098E+03  0.38248415615E+03  0.44505233953E+03  0.90691002269E+02 0.  0.
        -13    1    3    3    0    0  0.45234847864E+02  0.21555751488E+02  0.87139184853E+02  0.10051905004E+03  0.00000000000E+00 0.  1.
         13    1    3    3    0    0 -0.34037568195E+02  0.78831464999E+02  0.93271130029E+02  0.12677720465E+03  0.00000000000E+00 0. -1.
        -13    1    4    4    0    0 -0.15564820694E+02 -0.16764068979E+03  0.31013453159E+03  0.35288679800E+03  0.00000000000E+00 0.  1.
         13    1    4    4    0    0 -0.47823214485E+02 -0.31192291197E+02  0.72349624555E+02  0.92165541539E+02  0.00000000000E+00 0. -1.
         -1    1    1    2    0  502  0.52190755511E+02  0.98445764497E+02  0.67404743120E+02  0.13022612220E+03  0.00000000000E+00 0.  1.
<scales pt_clust_5="13000.00000" pt_clust_6="13000.00000" pt_clust_7="13000.00000" pt_clust_8="13000.00000" pt_clust_9="111.42461"></scales>
<clustering>
<clus scale="   90.691">  7  8 -1 -1</clus>
<clus scale="   94.407">  5  6 -1 -1</clus>
<clus scale="  111.425">  2  9  1 -1</clus>
<clus scale="  172.260">  2  7  1 -1</clus>
<clus scale="  111.425">  2  5  1 -1</clus>
</clustering>
</event>
<event>
 9    1  0.1321469E-005  0.1029734E+03  0.7546771E-02  0.1274905E+00
          2   -1    0    0  502    0 -0.00000000000E+00  0.00000000000E+00  0.43521121647E+03  0.43521121647E+03  0.00000000000E+00 0. -1.
         21   -1    0    0  501  502  0.00000000000E+00 -0.00000000000E+00 -0.49342760656E+02  0.49342760656E+02  0.00000000000E+00 0.  1.
         23    2    1    2    0    0  0.81492076431E+00 -0.40865554747E+02  0.31510696304E+03  0.33122835548E+03  0.93536985515E+02 0.  0.
         23    2    1    2    0    0  0.24787463566E+02  0.50279750936E+02  0.63847814617E+02  0.12518475956E+03  0.91935895551E+02 0.  0.
        -11    1    3    3    0    0  0.10750909051E+02 -0.68165339372E+02  0.25913383961E+03  0.26816495365E+03  0.00000000000E+00 0. -1.
         11    1    3    3    0    0 -0.99359882871E+01  0.27299784625E+02  0.55973123432E+02  0.63063401831E+02  0.00000000000E+00 0.  1.
        -11    1    4    4    0    0 -0.23413777569E+01 -0.22774491121E+02 -0.22429114730E+01  0.23004133270E+02  0.00000000000E+00 0.  1.
         11    1    4    4    0    0  0.27128841322E+02  0.73054242058E+02  0.66090726090E+02  0.10218062629E+03  0.00000000000E+00 0. -1.
          2    1    1    2  501    0 -0.25602384330E+02 -0.94141961891E+01  0.69136781628E+01  0.28140862087E+02  0.00000000000E+00 0. -1.
<scales pt_clust_5="13000.00000" pt_clust_6="13000.00000" pt_clust_7="13000.00000" pt_clust_8="13000.00000" pt_clust_9="27.27836"></scales>
<clustering>
<clus scale="   27.278">  2  9  1 -1</clus>
<clus scale="   91.936">  7  8 -1 -1</clus>
<clus scale="   93.537">  5  6 -1 -1</clus>
<clus scale="  101.521">  2  7  1 -1</clus>
<clus scale="   27.278">  2  5  1 -1</clus>
</clustering>
</event>
<event>
 9    1  0.1321469E-005  0.9396249E+02  0.7546771E-02  0.1294009E+00
         -1   -1    0    0    0  501 -0.00000000000E+00  0.00000000000E+00  0.74583508139E+02  0.74583508139E+02  0.00000000000E+00 0.  1.
         21   -1    0    0  501  502  0.00000000000E+00 -0.00000000000E+00 -0.30164405777E+03  0.30164405777E+03  0.00000000000E+00 0. -1.
         23    2    1    2    0    0 -0.66839953243E+00 -0.25682041342E+02  0.14682555569E+02  0.95707934290E+02  0.91018774121E+02 0.  0.
         23    2    1    2    0    0  0.36476835387E+02  0.74661013323E+01 -0.13569022094E+03  0.16711205335E+03  0.90157085840E+02 0.  0.
        -13    1    3    3    0    0 -0.20177218131E+02 -0.19979697959E+02  0.48529913764E+02  0.56226870729E+02  0.00000000000E+00 0.  1.
         13    1    3    3    0    0  0.19508818599E+02 -0.57023433833E+01 -0.33847358195E+02  0.39481063561E+02  0.00000000000E+00 0. -1.
        -13    1    4    4    0    0  0.62708277640E+02  0.99245621439E+01 -0.61536383033E+02  0.88416918376E+02  0.00000000000E+00 0. -1.
         13    1    4    4    0    0 -0.26231442253E+02 -0.24584608116E+01 -0.74153837904E+02  0.78695134971E+02  0.00000000000E+00 0.  1.
         -1    1    1    2    0  502 -0.35808435854E+02  0.18215940010E+02 -0.10605288427E+03  0.11340757827E+03  0.00000000000E+00 0.  1.
<scales pt_clust_5="13000.00000" pt_clust_6="13000.00000" pt_clust_7="13000.00000" pt_clust_8="13000.00000" pt_clust_9="40.17542"></scales>
<clustering>
<clus scale="   40.175">  2  9  1 -1</clus>
<clus scale="   90.157">  7  8 -1 -1</clus>
<clus scale="   91.019">  5  6 -1 -1</clus>
<clus scale="   93.128">  2  7  1 -1</clus>
<clus scale="   40.175">  2  5  1 -1</clus>
</clustering>
</event>
<event>
 9    1  0.1321469E-005  0.1633900E+03  0.7546771E-02  0.1185074E+00
          3   -1    0    0  502    0 -0.00000000000E+00  0.00000000000E+00  0.34557088895E+03  0.34557088895E+03  0.00000000000E+00 0. -1.
         21   -1    0    0  501  502  0.00000000000E+00 -0.00000000000E+00 -0.49227088544E+03  0.49227088544E+03  0.00000000000E+00 0. -1.
         23    2    1    2    0    0 -0.14166101021E+03 -0.11962947046E+00  0.30030523034E+03  0.34463991285E+03  0.92334078410E+02 0.  0.
         23    2    1    2    0    0  0.42940012562E+02 -0.14236971684E+02 -0.28784595389E+03  0.30536251120E+03  0.91347873712E+02 0.  0.
        -13    1    3    3    0    0 -0.10612502870E+03 -0.41662531891E+02  0.21405031428E+03  0.24251974213E+03  0.00000000000E+00 0. -1.
         13    1    3    3    0    0 -0.35535981506E+02  0.41542902420E+02  0.86254916065E+02  0.10212017072E+03  0.00000000000E+00 0.  1.
        -13    1    4    4    0    0  0.25493245570E+02 -0.40716238253E+02 -0.25582839648E+03  0.26029960828E+03  0.00000000000E+00 0. -1.
         13    1    4    4    0    0  0.17446766993E+02  0.26479266569E+02 -0.32017557414E+02  0.45062902917E+02  0.00000000000E+00 0.  1.
          3    1    1    2  501    0  0.98720997648E+02  0.14356601154E+02 -0.15915927294E+03  0.18783935034E+03  0.00000000000E+00 0. -1.
<scales pt_clust_5="13000.00000" pt_clust_6="13000.00000" pt_clust_7="13000.00000" pt_clust_8="13000.00000" pt_clust_9="99.75945"></scales>
<clustering>
<clus scale="   91.348">  7  8 -1 -1</clus>
<clus scale="   92.334">  5  6 -1 -1</clus>
<clus scale="   99.759">  2  9  1 -1</clus>
<clus scale="  162.835">  2  7  1 -1</clus>
<clus scale="   99.759">  2  5  1 -1</clus>
</clustering>
</event>
<event>
 9    1  0.1321469E-005  0.2605613E+03  0.7546771E-02  0.1107008E+00
         21   -1    0    0  501  502  0.00000000000E+00  0.00000000000E+00  0.53295794732E+03  0.53295794732E+03  0.00000000000E+00 0. -1.
          2   -1    0    0  502    0 -0.00000000000E+00 -0.00000000000E+00 -0.11118498907E+04  0.11118498907E+04  0.00000000000E+00 0. -1.
         23    2    1    2    0    0 -0.22286914962E+03  0.10555388524E+03 -0.10480222280E+04  0.10805011366E+04  0.91213130703E+02 0.  0.
         23    2    1    2    0    0  0.20316694485E+03 -0.22960055276E+02  0.28431898411E+03  0.36092249752E+03  0.87314333720E+02 0.  0.
        -11    1    4    4    0    0  0.46970015597E+02  0.30888697122E+02  0.58691652158E+02  0.81271175752E+02  0.00000000000E+00 0. -1.
         11    1    4    4    0    0  0.15619692925E+03 -0.53848752398E+02  0.22562733195E+03  0.27965132177E+03  0.00000000000E+00 0.  1.
        -11    1    3    3    0    0 -0.15562812550E+03  0.39500220590E+02 -0.78092071319E+03  0.79725625815E+03  0.00000000000E+00 0. -1.
         11    1    3    3    0    0 -0.67241024125E+02  0.66053664650E+02 -0.26710151483E+03  0.28324487845E+03  0.00000000000E+00 0.  1.
          2    1    1    2  501    0  0.19702204775E+02 -0.82593829965E+02  0.18481130050E+03  0.20338420394E+03  0.00000000000E+00 0. -1.
<scales pt_clust_5="13000.00000" pt_clust_6="13000.00000" pt_clust_7="13000.00000" pt_clust_8="13000.00000" pt_clust_9="84.91123"></scales>
<clustering>
<clus scale="   84.911">  1  9  2 -1</clus>
<clus scale="   87.314">  5  6 -1 -1</clus>
<clus scale="   91.213">  7  8 -1 -1</clus>
<clus scale="  259.222">  1  5  2 -1</clus>
<clus scale="   84.911">  1  5  2 -1</clus>
</clustering>
</event>
<event>
 9    1  0.1321469E-005  0.1060606E+03  0.7546771E-02  0.1268717E+00
         -1   -1    0    0    0  501 -0.00000000000E+00  0.00000000000E+00  0.18934056070E+03  0.18934056070E+03  0.00000000000E+00 0.  1.
         21   -1    0    0  501  502  0.00000000000E+00 -0.00000000000E+00 -0.17116915881E+03  0.17116915881E+03  0.00000000000E+00 0. -1.
         23    2    1    2    0    0  0.32508454965E+02 -0.44381943377E+02  0.65362573823E+02  0.12484859300E+03  0.91040367831E+02 0.  0.
         23    2    1    2    0    0 -0.49281023013E+02  0.18740757706E+02  0.61286890961E+02  0.12293899217E+03  0.92617911675E+02 0.  0.
        -11    1    4    4    0    0 -0.31259676415E+02 -0.25268206078E+02  0.63700439620E+02  0.75321946441E+02  0.00000000000E+00 0.  1.
         11    1    4    4    0    0 -0.18021346599E+02  0.44008963785E+02 -0.24135486586E+01  0.47617045727E+02  0.00000000000E+00 0. -1.
        -13    1    3    3    0    0  0.52418052155E+01  0.21957521010E+02  0.44910955911E+02  0.50265328126E+02  0.00000000000E+00 0. -1.
         13    1    3    3    0    0  0.27266649749E+02 -0.66339464387E+02  0.20451617912E+02  0.74583264872E+02  0.00000000000E+00 0.  1.
         -1    1    1    2    0  502  0.16772568048E+02  0.25641185671E+02 -0.10847806289E+03  0.11272213434E+03  0.00000000000E+00 0.  1.
<scales pt_clust_5="13000.00000" pt_clust_6="13000.00000" pt_clust_7="13000.00000" pt_clust_8="13000.00000" pt_clust_9="30.63967"></scales>
<clustering>
<clus scale="   30.640">  2  9  1 -1</clus>
<clus scale="   91.040">  7  8 -1 -1</clus>
<clus scale="   92.618">  5  6 -1 -1</clus>
<clus scale="  104.686">  1  7  2 -1</clus>
<clus scale="   30.640">  2  5  1 -1</clus>
</clustering>
</event>
<event>
 9    1  0.1321469E-005  0.1128359E+03  0.7546771E-02  0.1255871E+00
         21   -1    0    0  501  502  0.00000000000E+00  0.00000000000E+00  0.66201592622E+02  0.66201592622E+02  0.00000000000E+00 0. -1.
          1   -1    0    0  502    0 -0.00000000000E+00 -0.00000000000E+00 -0.37663509165E+03  0.37663509165E+03  0.00000000000E+00 0. -1.
         23    2    1    2    0    0  0.12942858165E+02 -0.43678600853E+02 -0.90179347642E+02  0.13547541062E+03  0.90254830296E+02 0.  0.
         23    2    1    2    0    0  0.39541255550E+02  0.97909378029E+02 -0.12916140949E+03  0.18906737266E+03  0.88960915615E+02 0.  0.
        -11    1    3    3    0    0 -0.49790296956E+01 -0.27637075086E+02 -0.10400701848E+03  0.10773141858E+03  0.00000000000E+00 0.  1.
         11    1    3    3    0    0  0.17921887861E+02 -0.16041525767E+02  0.13827670840E+02  0.27743992040E+02  0.00000000000E+00 0. -1.
        -13    1    4    4    0    0  0.31909061615E+02  0.41928283419E+02 -0.53330088875E+01  0.52958570104E+02  0.00000000000E+00 0.  1.
         13    1    4    4    0    0  0.76321939349E+01  0.55981094610E+02 -0.12382840060E+03  0.13610880256E+03  0.00000000000E+00 0. -1.
          1    1    1    2  501    0 -0.52484113715E+02 -0.54230777176E+02 -0.91092741898E+02  0.11829390099E+03  0.00000000000E+00 0. -1.
<scales pt_clust_5="13000.00000" pt_clust_6="13000.00000" pt_clust_7="13000.00000" pt_clust_8="13000.00000" pt_clust_9="75.46897"></scales>
<clustering>
<clus scale="   75.469">  1  9  2 -1</clus>
<clus scale="   88.961">  7  8 -1 -1</clus>
<clus scale="   90.255">  5  6 -1 -1</clus>
<clus scale="  111.804">  1  7  2 -1</clus>
<clus scale="   75.469">  1  5  2 -1</clus>
</clustering>
</event>
<event>
 9    1  0.1321469E-005  0.1075627E+03  0.7546771E-02  0.1265687E+00
         21   -1    0    0  501  502  0.00000000000E+00  0.00000000000E+00  0.40335401700E+02  0.40335401700E+02  0.00000000000E+00 0.  1.
          1   -1    0    0  502    0 -0.00000000000E+00 -0.00000000000E+00 -0.60262413311E+03  0.60262413311E+03  0.00000000000E+00 0. -1.
         23    2    1    2    0    0  0.52443579810E+02  0.12969529878E+02 -0.37950196463E+03  0.39440445368E+03  0.92814838012E+02 0.  0.
         23    2    1    2    0    0 -0.58748627347E+02  0.88625955290E+01 -0.61690071533E+02  0.12534467198E+03  0.91518714221E+02 0.  0.
        -11    1    3    3    0    0  0.54230471738E+02 -0.24252818749E+02 -0.30900962807E+03  0.31466822770E+03  0.00000000000E+00 0. -1.
         11    1    3    3    0    0 -0.17868919273E+01  0.37222348627E+02 -0.70492336557E+02  0.79736225979E+02  0.00000000000E+00 0.  1.
        -11    1    4    4    0    0 -0.24520021980E+02 -0.19033138109E+02 -0.73373386609E+02  0.79668975685E+02  0.00000000000E+00 0.  1.
         11    1    4    4    0    0 -0.34228605367E+02  0.27895733638E+02  0.11683315077E+02  0.45675696292E+02  0.00000000000E+00 0. -1.
          1    1    1    2  501    0  0.63050475368E+01 -0.21832125407E+02 -0.12109669524E+03  0.12321040915E+03  0.00000000000E+00 0. -1.
<scales pt_clust_5="13000.00000" pt_clust_6="13000.00000" pt_clust_7="13000.00000" pt_clust_8="13000.00000" pt_clust_9="22.72434"></scales>
<clustering>
<clus scale="   22.724">  1  9  2 -1</clus>
<clus scale="   91.519">  7  8 -1 -1</clus>
<clus scale="   92.815">  5  6 -1 -1</clus>
<clus scale="  106.446">  1  7  2 -1</clus>
<clus scale="   22.724">  1  5  2 -1</clus>
</clustering>
</event>
<event>
 9    1  0.1321469E-005  0.1398419E+03  0.7546771E-02  0.1213581E+00
          2   -1    0    0  502    0 -0.00000000000E+00  0.00000000000E+00  0.23973821479E+03  0.23973821479E+03  0.00000000000E+00 0. -1.
         21   -1    0    0  501  502  0.00000000000E+00 -0.00000000000E+00 -0.13881719018E+03  0.13881719018E+03  0.00000000000E+00 0.  1.
         23    2    1    2    0    0  0.95739571694E+02  0.33855932344E+01  0.69254653665E+02  0.14962221676E+03  0.91722804489E+02 0.  0.
         23    2    1    2    0    0 -0.11596789400E+03  0.43131309737E+01  0.85608414265E+02  0.17081090837E+03  0.91544580865E+02 0.  0.
        -11    1    3    3    0    0  0.87095270300E+02  0.28987255615E+02  0.78787600173E+02  0.12096831419E+03  0.00000000000E+00 0. -1.
         11    1    3    3    0    0  0.86443013939E+01 -0.25601662381E+02 -0.95329465083E+01  0.28653902568E+02  0.00000000000E+00 0.  1.
        -13    1    4    4    0    0 -0.48709022099E+02 -0.41280724228E+02  0.21706230053E+02  0.67437581880E+02  0.00000000000E+00 0.  1.
         13    1    4    4    0    0 -0.67258871905E+02  0.45593855202E+02  0.63902184212E+02  0.10337332649E+03  0.00000000000E+00 0. -1.
          2    1    1    2  501    0  0.20228322310E+02 -0.76987242080E+01 -0.53942043316E+02  0.58122279851E+02  0.00000000000E+00 0. -1.
<scales pt_clust_5="13000.00000" pt_clust_6="13000.00000" pt_clust_7="13000.00000" pt_clust_8="13000.00000" pt_clust_9="21.64383"></scales>
<clustering>
<clus scale="   21.644">  2  9  1 -1</clus>
<clus scale="   91.545">  7  8 -1 -1</clus>
<clus scale="   91.723">  5  6 -1 -1</clus>
<clus scale="  139.725">  2  7  1 -1</clus>
<clus scale="   21.644">  2  5  1 -1</clus>
</clustering>
</event>
<event>
 9    1  0.1321469E-005  0.9801798E+02  0.7546771E-02  0.1285476E+00
         21   -1    0    0  501  502  0.00000000000E+00  0.00000000000E+00  0.29491195270E+03  0.29491195270E+03  0.00000000000E+00 0.  1.
          1   -1    0    0  502    0 -0.00000000000E+00 -0.00000000000E+00 -0.27641477843E+03  0.27641477843E+03  0.00000000000E+00 0. -1.
         23    2    1    2    0    0  0.31423452445E+02 -0.54945195499E+01 -0.23313693557E+03  0.25205917881E+03  0.90351401691E+02 0.  0.
         23    2    1    2    0    0 -0.55957236699E+02 -0.48242401445E+02  0.94201291648E+02  0.15111685951E+03  0.92216485748E+02 0.  0.
        -11    1    3    3    0    0 -0.20566614960E+02  0.27278785597E+02 -0.75694703402E+02  0.83047010287E+02  0.00000000000E+00 0.  1.
         11    1    3    3    0    0  0.51990067405E+02 -0.32773305147E+02 -0.15744223217E+03  0.16901216852E+03  0.00000000000E+00 0. -1.
        -13    1    4    4    0    0 -0.80071732462E+02 -0.37475713407E+02  0.55915118542E+02  0.10460598413E+03  0.00000000000E+00 0. -1.
         13    1    4    4    0    0  0.24114495763E+02 -0.10766688037E+02  0.38286173107E+02  0.46510875377E+02  0.00000000000E+00 0.  1.
          1    1    1    2  501    0  0.24533784254E+02  0.53736920995E+02  0.15743281820E+03  0.16815069281E+03  0.00000000000E+00 0. -1.
<scales pt_clust_5="13000.00000" pt_clust_6="13000.00000" pt_clust_7="13000.00000" pt_clust_8="13000.00000" pt_clust_9="59.07253"></scales>
<clustering>
<clus scale="   59.073">  1  9  2 -1</clus>
<clus scale="   90.351">  5  6 -1 -1</clus>
<clus scale="   92.216">  7  8 -1 -1</clus>
<clus scale="   96.265">  2  5  1 -1</clus>
<clus scale="   59.073">  1  5  2 -1</clus>
</clustering>
</event>
<event>
 9    1  0.1321469E-005  0.1665057E+03  0.7546771E-02  0.1205399E+00
         -3   -1    0    0    0  501 -0.00000000000E+00  0.00000000000E+00  0.78437628773E+02  0.78437628773E+02  0.00000000000E+00 0.  1.
         21   -1    0    0  501  502  0.00000000000E+00 -0.00000000000E+00 -0.55654423476E+03  0.55654423476E+03  0.00000000000E+00 0. -1.
         23    2    1    2    0    0 -0.20832107158E+02  0.27470105445E+02 -0.83740146424E+02  0.12935633506E+03  0.92369182709E+02 0.  0.
         23    2    1    2    0    0  0.50062596435E+02  0.11658347009E+03 -0.13004132177E+03  0.20317944634E+03  0.90956984272E+02 0.  0.
        -11    1    3    3    0    0  0.20134736035E+02 -0.15448307986E+02  0.15877202050E+01  0.25427911245E+02  0.00000000000E+00 0.  1.
         11    1    3    3    0    0 -0.40966843192E+02  0.42918413431E+02 -0.85327866629E+02  0.10392842381E+03  0.00000000000E+00 0. -1.
        -13    1    4    4    0    0 -0.26842240478E+02  0.30769089355E+02 -0.31816565994E+02  0.51764240603E+02  0.00000000000E+00 0. -1.
         13    1    4    4    0    0  0.76904836913E+02  0.85814380738E+02 -0.98224755778E+02  0.15141520574E+03  0.00000000000E+00 0.  1.
         -3    1    1    2    0  502 -0.29230489277E+02 -0.14405357554E+03 -0.26432513779E+03  0.30244608213E+03  0.00000000000E+00 0.  1.
<scales pt_clust_5="13000.00000" pt_clust_6="13000.00000" pt_clust_7="13000.00000" pt_clust_8="13000.00000" pt_clust_9="139.46671"></scales>
<clustering>
<clus scale="   90.957">  7  8 -1 -1</clus>
<clus scale="   92.369">  5  6 -1 -1</clus>
<clus scale="   98.593">  1  5  2 -1</clus>
<clus scale="  139.467">  2  9  1 -1</clus>
<clus scale="  139.467">  2  5  1 -1</clus>
</clustering>
</event>
<event>
 9    1  0.1321469E-005  0.2491822E+03  0.7546771E-02  0.1152049E+00
         21   -1    0    0  501  502  0.00000000000E+00  0.00000000000E+00  0.10769676507E+04  0.10769676507E+04  0.00000000000E+00 0.  1.
         -1   -1    0    0    0  501 -0.00000000000E+00 -0.00000000000E+00 -0.16118865544E+03  0.16118865544E+03  0.00000000000E+00 0.  1.
         23    2    1    2    0    0  0.30996522694E+02  0.39380211255E+02 -0.59264142515E+02  0.11445077452E+03  0.84113945001E+02 0.  0.
         23    2    1    2    0    0 -0.55235611279E+02 -0.23738134223E+03  0.84841211805E+03  0.88742731334E+03  0.91231792705E+02 0.  0.
        -11    1    3    3    0    0  0.59922494287E+02  0.24298656318E+02 -0.45384528708E+02  0.78999275101E+02  0.00000000000E+00 0.  1.
         11    1    3    3    0    0 -0.28925971594E+02  0.15081554937E+02 -0.13879613807E+02  0.35451499424E+02  0.00000000000E+00 0. -1.
        -11    1    4    4    0    0 -0.27283761046E+02 -0.10596023832E+03  0.23152745792E+03  0.25607994746E+03  0.00000000000E+00 0. -1.
         11    1    4    4    0    0 -0.27951850233E+02 -0.13142110391E+03  0.61688466013E+03  0.63134736587E+03  0.00000000000E+00 0.  1.
         -1    1    1    2    0  502  0.24239088586E+02  0.19800113098E+03  0.12663101976E+03  0.23627821831E+03  0.00000000000E+00 0.  1.
<scales pt_clust_5="13000.00000" pt_clust_6="13000.00000" pt_clust_7="13000.00000" pt_clust_8="13000.00000" pt_clust_9="231.88053"></scales>
<clustering>
<clus scale="   84.114">  5  6 -1 -1</clus>
<clus scale="   91.232">  7  8 -1 -1</clus>
<clus scale="   97.912">  2  5  1 -1</clus>
<clus scale="  231.881">  1  9  2 -1</clus>
<clus scale="  231.881">  1  5  2 -1</clus>
</clustering>
</event>
<event>
 9    1  0.1321469E-005  0.1053109E+03  0.7546771E-02  0.1275934E+00
         -1   -1    0    0    0  501 -0.00000000000E+00  0.00000000000E+00  0.19937237539E+03  0.19937237539E+03  0.00000000000E+00 0.  1.
         21   -1    0    0  501  502  0.00000000000E+00 -0.00000000000E+00 -0.92049247490E+02  0.92049247490E+02  0.00000000000E+00 0.  1.
         23    2    1    2    0    0  0.14975914930E+01 -0.16675600800E+02  0.99543224035E+02  0.14437798493E+03  0.10322708288E+03 0.  0.
         23    2    1    2    0    0 -0.45660687653E+02  0.83241063305E+01  0.44193726207E+01  0.10197236448E+03  0.90689818167E+02 0.  0.
        -13    1    4    4    0    0 -0.73259030232E+02  0.11089920032E+02  0.45833312080E+01  0.74235293235E+02  0.00000000000E+00 0.  1.
         13    1    4    4    0    0  0.27598342579E+02 -0.27658137011E+01 -0.16395858724E+00  0.27737071240E+02  0.00000000000E+00 0. -1.
        -13    1    3    3    0    0  0.33264288769E+02  0.12068562588E+02  0.94904187074E+02  0.10128656295E+03  0.00000000000E+00 0. -1.
         13    1    3    3    0    0 -0.31766697276E+02 -0.28744163389E+02  0.46390369614E+01  0.43091421984E+02  0.00000000000E+00 0.  1.
         -1    1    1    2    0  502  0.44163096160E+02  0.83514944699E+01  0.33605312488E+01  0.45071273474E+02  0.00000000000E+00 0.  1.
<scales pt_clust_5="13000.00000" pt_clust_6="13000.00000" pt_clust_7="13000.00000" pt_clust_8="13000.00000" pt_clust_9="44.94582"></scales>
<clustering>
<clus scale="   44.946">  2  9  1 -1</clus>
<clus scale="   90.690">  5  6 -1 -1</clus>
<clus scale="   93.055">  2  5  1 -1</clus>
<clus scale="  103.227">  7  8 -1 -1</clus>
<clus scale="   44.946">  2  5  1 -1</clus>
</clustering>
</event>
<event>
 9    1  0.1321469E-005  0.1919904E+03  0.7546771E-02  0.1175340E+00
         21   -1    0    0  501  502  0.00000000000E+00  0.00000000000E+00  0.30196139928E+03  0.30196139928E+03  0.00000000000E+00 0. -1.
          1   -1    0    0  502    0 -0.00000000000E+00 -0.00000000000E+00 -0.55524208435E+03  0.55524208435E+03  0.00000000000E+00 0. -1.
         23    2    1    2    0    0 -0.87028026778E+02  0.11824808303E+01 -0.35186730627E+02  0.12976689047E+03  0.89588303612E+02 0.  0.
         23    2    1    2    0    0  0.24293085402E+03 -0.50974348803E+02 -0.40209094047E+03  0.48118507027E+03  0.90819399759E+02 0.  0.
        -11    1    3    3    0    0 -0.10327554026E+03  0.13839767894E+02 -0.31388245401E+02  0.10882370303E+03  0.00000000000E+00 0.  1.
         11    1    3    3    0    0  0.16247513483E+02 -0.12657287064E+02 -0.37984852263E+01  0.20943187441E+02  0.00000000000E+00 0. -1.
        -11    1    4    4    0    0  0.99455599592E+02  0.18348277728E+02 -0.11757633030E+03  0.15508793967E+03  0.00000000000E+00 0.  1.
         11    1    4    4    0    0  0.14347525443E+03 -0.69322626531E+02 -0.28451461017E+03  0.32609713060E+03  0.00000000000E+00 0. -1.
          1    1    1    2  501    0 -0.15590282724E+03  0.49791867973E+02  0.18399698603E+03  0.24625152289E+03  0.00000000000E+00 0. -1.
<scales pt_clust_5="13000.00000" pt_clust_6="13000.00000" pt_clust_7="13000.00000" pt_clust_8="13000.00000" pt_clust_9="169.15129"></scales>
<clustering>
<clus scale="   89.588">  5  6 -1 -1</clus>
<clus scale="   90.819">  7  8 -1 -1</clus>
<clus scale="  124.905">  2  5  1 -1</clus>
<clus scale="  169.151">  1  9  2 -1</clus>
<clus scale="  169.151">  1  5  2 -1</clus>
</clustering>
</event>
<event>
 9    1  0.1321469E-005  0.1067889E+03  0.7546771E-02  0.1267991E+00
         21   -1    0    0  501  502  0.00000000000E+00  0.00000000000E+00  0.16440237162E+03  0.16440237162E+03  0.00000000000E+00 0. -1.
         -1   -1    0    0    0  501 -0.00000000000E+00 -0.00000000000E+00 -0.23077654066E+03  0.23077654066E+03  0.00000000000E+00 0.  1.
         23    2    1    2    0    0  0.27254656973E+02 -0.46194988514E+02 -0.16556934541E+03  0.19463481961E+03  0.87136166868E+02 0.  0.
         23    2    1    2    0    0 -0.90789821766E+01  0.88614177722E+02  0.82866724727E+02  0.15159145127E+03  0.90433255051E+02 0.  0.
        -11    1    3    3    0    0 -0.20230218552E+02 -0.44393813161E+02 -0.11662334285E+03  0.12641628252E+03  0.00000000000E+00 0.  1.
         11    1    3    3    0    0  0.47484875524E+02 -0.18011753535E+01 -0.48946002558E+02  0.68218537089E+02  0.00000000000E+00 0. -1.
        -13    1    4    4    0    0  0.19688408062E+02  0.58672325585E+02  0.90237141259E+02  0.10942036768E+03  0.00000000000E+00 0. -1.
         13    1    4    4    0    0 -0.28767390239E+02  0.29941852138E+02 -0.73704165321E+01  0.42171083581E+02  0.00000000000E+00 0.  1.
         -1    1    1    2    0  502 -0.18175674796E+02 -0.42419189208E+02  0.16328451641E+02  0.48952641403E+02  0.00000000000E+00 0.  1.
<scales pt_clust_5="13000.00000" pt_clust_6="13000.00000" pt_clust_7="13000.00000" pt_clust_8="13000.00000" pt_clust_9="46.14914"></scales>
<clustering>
<clus scale="   46.149">  1  9  2 -1</clus>
<clus scale="   87.136">  5  6 -1 -1</clus>
<clus scale="   90.433">  7  8 -1 -1</clus>
<clus scale="  104.012">  2  5  1 -1</clus>
<clus scale="   46.149">  1  5  2 -1</clus>
</clustering>
</event>
<event>
 9    1  0.1321469E-005  0.9203401E+02  0.7546771E-02  0.1298258E+00
         21   -1    0    0  501  502  0.00000000000E+00  0.00000000000E+00  0.12937035624E+03  0.12937035624E+03  0.00000000000E+00 0.  1.
         -3   -1    0    0    0  501 -0.00000000000E+00 -0.00000000000E+00 -0.51754054245E+03  0.51754054245E+03  0.00000000000E+00 0.  1.
         23    2    1    2    0    0 -0.30611922043E+02  0.15837957538E+02 -0.31830235430E+03  0.33297749419E+03  0.91486021965E+02 0.  0.
         23    2    1    2    0    0 -0.27962675323E+02  0.19241555290E+02 -0.16818459076E+03  0.19423486337E+03  0.91043818673E+02 0.  0.
        -11    1    3    3    0    0  0.17899782373E+02  0.36663699006E+02 -0.18820425981E+03  0.19257588750E+03  0.00000000000E+00 0. -1.
         11    1    3    3    0    0 -0.48511704415E+02 -0.20825741468E+02 -0.13009809449E+03  0.14040160669E+03  0.00000000000E+00 0.  1.
        -11    1    4    4    0    0 -0.52729430392E+02 -0.13327972516E+02 -0.76793276488E+02  0.94102258180E+02  0.00000000000E+00 0.  1.
         11    1    4    4    0    0  0.24766755068E+02  0.32569527806E+02 -0.91391314269E+02  0.10013260519E+03  0.00000000000E+00 0. -1.
         -3    1    1    2    0  502  0.58574597366E+02 -0.35079512828E+02  0.98316758851E+02  0.11969854113E+03  0.00000000000E+00 0.  1.
<scales pt_clust_5="13000.00000" pt_clust_6="13000.00000" pt_clust_7="13000.00000" pt_clust_8="13000.00000" pt_clust_9="68.27559"></scales>
<clustering>
<clus scale="   68.276">  1  9  2 -1</clus>
<clus scale="   91.044">  7  8 -1 -1</clus>
<clus scale="   91.486">  5  6 -1 -1</clus>
<clus scale="   91.594">  1  7  2 -1</clus>
<clus scale="   68.276">  1  5  2 -1</clus>
</clustering>
</event>
<event>
 9    1  0.1321469E-005  0.9613391E+02  0.7546771E-02  0.1290251E+00
          2   -1    0    0  502    0 -0.00000000000E+00  0.00000000000E+00  0.33153466957E+03  0.33153466957E+03  0.00000000000E+00 0. -1.
         21   -1    0    0  501  502  0.00000000000E+00 -0.00000000000E+00 -0.82402369105E+02  0.82402369105E+02  0.00000000000E+00 0.  1.
         23    2    1    2    0    0  0.20972181638E+02  0.35327104297E+01  0.25663630114E+03  0.27365961119E+03  0.92601724014E+02 0.  0.
         23    2    1    2    0    0 -0.55264150613E+02 -0.74097699654E+01 -0.61428936685E+01  0.10574015285E+03  0.89633775714E+02 0.  0.
        -13    1    4    4    0    0 -0.12375021022E+02  0.27474428782E+02  0.27691075047E+02  0.40924088498E+02  0.00000000000E+00 0. -1.
         13    1    4    4    0    0 -0.42889129591E+02 -0.34884198747E+02 -0.33833968715E+02  0.64816064354E+02  0.00000000000E+00 0.  1.
        -13    1    3    3    0    0  0.43022847150E+02 -0.31082733473E+02  0.12584217630E+03  0.13657728594E+03  0.00000000000E+00 0. -1.
         13    1    3    3    0    0 -0.22050665512E+02  0.34615443903E+02  0.13079412484E+03  0.13708232526E+03  0.00000000000E+00 0.  1.
          2    1    1    2  501    0  0.34291968975E+02  0.38770595357E+01 -0.13611070021E+01  0.34537274633E+02  0.00000000000E+00 0. -1.
<scales pt_clust_5="13000.00000" pt_clust_6="13000.00000" pt_clust_7="13000.00000" pt_clust_8="13000.00000" pt_clust_9="34.51044"></scales>
<clustering>
<clus scale="   34.510">  2  9  1 -1</clus>
<clus scale="   89.634">  5  6 -1 -1</clus>
<clus scale="   92.602">  7  8 -1 -1</clus>
<clus scale="   93.278">  2  5  1 -1</clus>
<clus scale="   34.510">  2  5  1 -1</clus>
</clustering>
</event>
<event>
 9    1  0.1321469E-005  0.1212523E+03  0.7546771E-02  0.1242428E+00
         21   -1    0    0  501  502  0.00000000000E+00  0.00000000000E+00  0.90159132564E+02  0.90159132564E+02  0.00000000000E+00 0.  1.
          2   -1    0    0  502    0 -0.00000000000E+00 -0.00000000000E+00 -0.51131604623E+03  0.51131604623E+03  0.00000000000E+00 0. -1.
         23    2    1    2    0    0  0.76647378594E+02  0.52013130797E+01 -0.30772406828E+03  0.32987904260E+03  0.90687409532E+02 0.  0.
         23    2    1    2    0    0 -0.60461177709E+02 -0.48786832973E+02  0.25280699929E+02  0.12529802172E+03  0.94998796710E+02 0.  0.
        -11    1    4    4    0    0 -0.75440246792E+02 -0.48323152209E+01  0.22068770456E+02  0.78750318958E+02  0.00000000000E+00 0.  1.
         11    1    4    4    0    0  0.14979069083E+02 -0.43954517753E+02  0.32119294735E+01  0.46547702762E+02  0.00000000000E+00 0. -1.
        -11    1    3    3    0    0  0.32896586074E+02 -0.37574829867E+02 -0.19847966482E+03  0.20466614415E+03  0.00000000000E+00 0. -1.
         11    1    3    3    0    0  0.43750792520E+02  0.42776142947E+02 -0.10924440346E+03  0.12521289845E+03  0.00000000000E+00 0.  1.
          2    1    1    2  501    0 -0.16186200885E+02  0.43585519894E+02 -0.13871354532E+03  0.14629811447E+03  0.00000000000E+00 0. -1.
<scales pt_clust_5="13000.00000" pt_clust_6="13000.00000" pt_clust_7="13000.00000" pt_clust_8="13000.00000" pt_clust_9="46.49401"></scales>
<clustering>
<clus scale="   46.494">  1  9  2 -1</clus>
<clus scale="   90.687">  7  8 -1 -1</clus>
<clus scale="   94.999">  5  6 -1 -1</clus>
<clus scale="  117.905">  2  7  1 -1</clus>
<clus scale="   46.494">  1  5  2 -1</clus>
</clustering>
</event>
<event>
 9    1  0.1321469E-005  0.1232119E+03  0.7546771E-02  0.1240627E+00
          4   -1    0    0  502    0 -0.00000000000E+00  0.00000000000E+00  0.44908384795E+03  0.44908384795E+03  0.00000000000E+00 0. -1.
         21   -1    0    0  501  502  0.00000000000E+00 -0.00000000000E+00 -0.74329077115E+02  0.74329077115E+02  0.00000000000E+00 0. -1.
         23    2    1    2    0    0 -0.45683390179E+02 -0.31183688895E+02  0.18363922999E+03  0.21627574591E+03  0.99962177285E+02 0.  0.
         23    2    1    2    0    0  0.93717568095E+02  0.14794070293E+02  0.21406691783E+03  0.25143558536E+03  0.91615289061E+02 0.  0.
        -11    1    3    3    0    0  0.23714246248E+02 -0.35392359408E+02  0.90719457923E+02  0.10022477052E+03  0.00000000000E+00 0.  1.
         11    1    3    3    0    0 -0.69397636427E+02  0.42086705127E+01  0.92919772068E+02  0.11605097540E+03  0.00000000000E+00 0. -1.
        -13    1    4    4    0    0 -0.15525537140E+02  0.16264267183E+02  0.41260049640E+02  0.46988938983E+02  0.00000000000E+00 0.  1.
         13    1    4    4    0    0  0.10924310524E+03 -0.14701968894E+01  0.17280686819E+03  0.20444664637E+03  0.00000000000E+00 0. -1.
          4    1    1    2  501    0 -0.48034177916E+02  0.16389618602E+02 -0.22951376983E+02  0.55701593796E+02  0.00000000000E+00 0. -1.
<scales pt_clust_5="13000.00000" pt_clust_6="13000.00000" pt_clust_7="13000.00000" pt_clust_8="13000.00000" pt_clust_9="50.75334"></scales>
<clustering>
<clus scale="   50.753">  2  9  1 -1</clus>
<clus scale="   91.615">  7  8 -1 -1</clus>
<clus scale="   99.962">  5  6 -1 -1</clus>
<clus scale="  116.542">  2  7  1 -1</clus>
<clus scale="   50.753">  2  5  1 -1</clus>
</clustering>
</event>
<event>
 9    1  0.1321469E-005  0.1203237E+03  0.7546771E-02  0.1242834E+00
         21   -1    0    0  501  502  0.00000000000E+00  0.00000000000E+00  0.51764273862E+03  0.51764273862E+03  0.00000000000E+00 0. -1.
          2   -1    0    0  502    0 -0.00000000000E+00 -0.00000000000E+00 -0.98943330419E+02  0.98943330419E+02  0.00000000000E+00 0. -1.
         23    2    1    2    0    0 -0.66532888624E+02 -0.49446265311E+02 -0.42383875840E+02  0.12945686030E+03  0.89950693861E+02 0.  0.
         23    2    1    2    0    0  0.31635639943E+02  0.59009914941E+02  0.26086400000E+03  0.28366657565E+03  0.89071408827E+02 0.  0.
        -13    1    3    3    0    0 -0.27051711990E+02  0.25441937268E+02 -0.74595853772E+01  0.37877865668E+02  0.00000000000E+00 0.  1.
         13    1    3    3    0    0 -0.39481176634E+02 -0.74888202579E+02 -0.34924290463E+02  0.91578994634E+02  0.00000000000E+00 0. -1.
        -13    1    4    4    0    0  0.48889361214E+02 -0.10378221554E+01  0.11022632909E+03  0.12058644343E+03  0.00000000000E+00 0.  1.
         13    1    4    4    0    0 -0.17253721271E+02  0.60047737097E+02  0.15063767091E+03  0.16308013222E+03  0.00000000000E+00 0. -1.
          2    1    1    2  501    0  0.34897248682E+02 -0.95636496306E+01  0.20021928404E+03  0.20346263309E+03  0.00000000000E+00 0. -1.
<scales pt_clust_5="13000.00000" pt_clust_6="13000.00000" pt_clust_7="13000.00000" pt_clust_8="13000.00000" pt_clust_9="36.18399"></scales>
<clustering>
<clus scale="   36.184">  1  9  2 -1</clus>
<clus scale="   89.071">  7  8 -1 -1</clus>
<clus scale="   89.951">  5  6 -1 -1</clus>
<clus scale="  119.668">  1  7  2 -1</clus>
<clus scale="   36.184">  1  5  2 -1</clus>
</clustering>
</event>
<event>
 9    1  0.1321469E-005  0.1100911E+03  0.7546771E-02  0.1262251E+00
         21   -1    0    0  501  502  0.00000000000E+00  0.00000000000E+00  0.86261516198E+02  0.86261516198E+02  0.00000000000E+00 0. -1.
          1   -1    0    0  502    0 -0.00000000000E+00 -0.00000000000E+00 -0.22950396686E+03  0.22950396686E+03  0.00000000000E+00 0. -1.
         23    2    1    2    0    0 -0.52274834135E+02  0.12479440392E+02 -0.13598184076E+03  0.17723043908E+03  0.10015574275E+03 0.  0.
         23    2    1    2    0    0  0.29160427729E+02  0.15977831812E+02 -0.16548691853E+01  0.10144708833E+03  0.95828761256E+02 0.  0.
        -11    1    3    3    0    0 -0.21605520704E+02 -0.20081486215E+02  0.44647048619E+01  0.29832837662E+02  0.00000000000E+00 0.  1.
         11    1    3    3    0    0 -0.30669313431E+02  0.32560926607E+02 -0.14044654562E+03  0.14739760142E+03  0.00000000000E+00 0. -1.
        -13    1    4    4    0    0 -0.19008826289E+02 -0.24484268414E+02  0.17616323705E+02  0.35653186920E+02  0.00000000000E+00 0.  1.
         13    1    4    4    0    0  0.48169254018E+02  0.40462100226E+02 -0.19271192890E+02  0.65793901410E+02  0.00000000000E+00 0. -1.
          1    1    1    2  501    0  0.23114406406E+02 -0.28457272204E+02 -0.56057407174E+01  0.37087955643E+02  0.00000000000E+00 0. -1.
<scales pt_clust_5="13000.00000" pt_clust_6="13000.00000" pt_clust_7="13000.00000" pt_clust_8="13000.00000" pt_clust_9="36.66186"></scales>
<clustering>
<clus scale="   36.662">  1  9  2 -1</clus>
<clus scale="   95.829">  7  8 -1 -1</clus>
<clus scale="  100.156">  5  6 -1 -1</clus>
<clus scale="  106.170">  1  7  2 -1</clus>
<clus scale="   36.662">  1  5  2 -1</clus>
</clustering>
</event>
<event>
 9    1  0.1321469E-005  0.9423563E+02  0.7546771E-02  0.1293637E+00
         -1   -1    0    0    0  501 -0.00000000000E+00  0.00000000000E+00  0.52793631898E+03  0.52793631898E+03  0.00000000000E+00 0.  1.
         21   -1    0    0  501  502  0.00000000000E+00 -0.00000000000E+00 -0.55183886651E+02  0.55183886651E+02  0.00000000000E+00 0. -1.
         23    2    1    2    0    0  0.30259336863E+02 -0.54259664315E+01  0.44083886509E+03  0.45063820439E+03  0.88265608834E+02 0.  0.
         23    2    1    2    0    0 -0.15374802263E+02  0.22357896936E+02  0.47589022964E+02  0.10502367731E+03  0.89604673920E+02 0.  0.
        -13    1    4    4    0    0 -0.47716149534E+02  0.23818738069E+02  0.80713311501E+01  0.53938016242E+02  0.00000000000E+00 0. -1.
         13    1    4    4    0    0  0.32341347271E+02 -0.14608411338E+01  0.39517691814E+02  0.51085661065E+02  0.00000000000E+00 0.  1.
        -13    1    3    3    0    0  0.10539937689E+02 -0.46559930998E+02  0.21441531474E+03  0.21966530144E+03  0.00000000000E+00 0. -1.
         13    1    3    3    0    0  0.19719399174E+02  0.41133964566E+02  0.22642355035E+03  0.23097290296E+03  0.00000000000E+00 0.  1.
         -1    1    1    2    0  502 -0.14884534599E+02 -0.16931930504E+02 -0.15675455729E+02  0.27458323932E+02  0.00000000000E+00 0.  1.
<scales pt_clust_5="13000.00000" pt_clust_6="13000.00000" pt_clust_7="13000.00000" pt_clust_8="13000.00000" pt_clust_9="22.54417"></scales>
<clustering>
<clus scale="   22.544">  2  9  1 -1</clus>
<clus scale="   88.266">  7  8 -1 -1</clus>
<clus scale="   89.605">  5  6 -1 -1</clus>
<clus scale="   92.963">  1  7  2 -1</clus>
<clus scale="   22.544">  2  5  1 -1</clus>
</clustering>
</event>
<event>
 9    1  0.1321469E-005  0.1613502E+03  0.7546771E-02  0.1188387E+00
          2   -1    0    0  502    0 -0.00000000000E+00  0.00000000000E+00  0.29409105748E+03  0.29409105748E+03  0.00000000000E+00 0. -1.
         21   -1    0    0  501  502  0.00000000000E+00 -0.00000000000E+00 -0.38064596294E+03  0.38064596294E+03  0.00000000000E+00 0.  1.
         23    2    1    2    0    0 -0.96389267990E+02  0.69642995706E+02  0.74931548823E+02  0.17167905325E+03  0.98579523648E+02 0.  0.
         23    2    1    2    0    0  0.21462243167E+03  0.32336917284E+01 -0.24714770282E+03  0.33987726345E+03  0.91440266112E+02 0.  0.
        -11    1    4    4    0    0  0.54232316961E+02 -0.36330751382E+02 -0.95171210765E+02  0.11540635623E+03  0.00000000000E+00 0. -1.
         11    1    4    4    0    0  0.16039011471E+03  0.39564443110E+02 -0.15197649205E+03  0.22447090723E+03  0.00000000000E+00 0.  1.
        -11    1    3    3    0    0 -0.49478676580E+02  0.25000002151E+02 -0.18110623699E+02  0.58319244117E+02  0.00000000000E+00 0.  1.
         11    1    3    3    0    0 -0.46910591411E+02  0.44642993555E+02  0.93042172522E+02  0.11335980914E+03  0.00000000000E+00 0. -1.
          2    1    1    2  501    0 -0.11823316368E+03 -0.72876687435E+02  0.85661248532E+02  0.16318070371E+03  0.00000000000E+00 0. -1.
<scales pt_clust_5="13000.00000" pt_clust_6="13000.00000" pt_clust_7="13000.00000" pt_clust_8="13000.00000" pt_clust_9="138.88885"></scales>
<clustering>
<clus scale="   91.440">  5  6 -1 -1</clus>
<clus scale="   98.580">  7  8 -1 -1</clus>
<clus scale="  138.889">  2  9  1 -1</clus>
<clus scale="  157.090">  2  5  1 -1</clus>
<clus scale="  138.889">  2  5  1 -1</clus>
</clustering>
</event>
<event>
 9    1  0.1321469E-005  0.1604483E+03  0.7546771E-02  0.1188771E+00
         -3   -1    0    0    0  501 -0.00000000000E+00  0.00000000000E+00  0.61252795047E+03  0.61252795047E+03  0.00000000000E+00 0.  1.
         21   -1    0    0  501  502  0.00000000000E+00 -0.00000000000E+00 -0.82840781416E+02  0.82840781416E+02  0.00000000000E+00 0.  1.
         23    2    1    2    0    0 -0.12890210349E+03  0.70932332946E+02  0.36766975035E+03  0.40715236218E+03  0.94577230723E+02 0.  0.
         23    2    1    2    0    0  0.10885824007E+03 -0.20929729806E+02  0.18112745142E+03  0.23105685491E+03  0.91060125883E+02 0.  0.
        -11    1    3    3    0    0 -0.97417885177E+02  0.32461207236E+00  0.19582538666E+03  0.21871884186E+03  0.00000000000E+00 0. -1.
         11    1    3    3    0    0 -0.31484218310E+02  0.70607720874E+02  0.17184436369E+03  0.18843352032E+03  0.00000000000E+00 0.  1.
        -13    1    4    4    0    0  0.10381149257E+03  0.16590971092E+02  0.12463673146E+03  0.16305336899E+03  0.00000000000E+00 0.  1.
         13    1    4    4    0    0  0.50467475003E+01 -0.37520700898E+02  0.56490719957E+02  0.68003485921E+02  0.00000000000E+00 0. -1.
         -3    1    1    2    0  502  0.20043863416E+02 -0.50002603141E+02 -0.19110032702E+02  0.57159514793E+02  0.00000000000E+00 0.  1.
<scales pt_clust_5="13000.00000" pt_clust_6="13000.00000" pt_clust_7="13000.00000" pt_clust_8="13000.00000" pt_clust_9="53.87037"></scales>
<clustering>
<clus scale="   53.870">  2  9  1 -1</clus>
<clus scale="   91.060">  7  8 -1 -1</clus>
<clus scale="   94.577">  5  6 -1 -1</clus>
<clus scale="  158.401">  2  7  1 -1</clus>
<clus scale="   53.870">  2  5  1 -1</clus>
</clustering>
</event>
<event>
 9    1  0.1321469E-005  0.1114028E+03  0.7546771E-02  0.1258506E+00
          4   -1    0    0  502    0 -0.00000000000E+00  0.00000000000E+00  0.15097633665E+03  0.15097633665E+03  0.00000000000E+00 0. -1.
         21   -1    0    0  501  502  0.00000000000E+00 -0.00000000000E+00 -0.19567658476E+03  0.19567658476E+03  0.00000000000E+00 0.  1.
         23    2    1    2    0    0 -0.59537725335E+02  0.32192420647E+02  0.83912528874E+02  0.14100290442E+03  0.90881317489E+02 0.  0.
         23    2    1    2    0    0  0.56625231187E+02 -0.11208616587E+02 -0.38768458199E+02  0.11334181436E+03  0.89505997781E+02 0.  0.
        -11    1    4    4    0    0 -0.18000529162E+02 -0.22556505585E+02 -0.21287457106E+02  0.35860435362E+02  0.00000000000E+00 0.  1.
         11    1    4    4    0    0  0.74625760349E+02  0.11347888998E+02 -0.17481001094E+02  0.77481378999E+02  0.00000000000E+00 0. -1.
        -13    1    3    3    0    0 -0.28153480336E+02  0.10151698078E+02  0.96187468713E+02  0.10073581571E+03  0.00000000000E+00 0. -1.
         13    1    3    3    0    0 -0.31384244999E+02  0.22040722569E+02 -0.12274939839E+02  0.40267088715E+02  0.00000000000E+00 0.  1.
          4    1    1    2  501    0  0.29124941479E+01 -0.20983804060E+02 -0.89844318786E+02  0.92308202632E+02  0.00000000000E+00 0. -1.
<scales pt_clust_5="13000.00000" pt_clust_6="13000.00000" pt_clust_7="13000.00000" pt_clust_8="13000.00000" pt_clust_9="21.18496"></scales>
<clustering>
<clus scale="   21.185">  2  9  1 -1</clus>
<clus scale="   89.506">  5  6 -1 -1</clus>
<clus scale="   90.881">  7  8 -1 -1</clus>
<clus scale="  110.284">  2  5  1 -1</clus>
<clus scale="   21.185">  2  5  1 -1</clus>
</clustering>
</event>
<event>
 9    1  0.1321469E-005  0.1194146E+03  0.7546771E-02  0.1244350E+00
          2   -1    0    0  502    0 -0.00000000000E+00  0.00000000000E+00  0.54255508627E+03  0.54255508627E+03  0.00000000000E+00 0. -1.
         21   -1    0    0  501  502  0.00000000000E+00 -0.00000000000E+00 -0.50273679532E+02  0.50273679532E+02  0.00000000000E+00 0.  1.
         23    2    1    2    0    0 -0.15461482922E+02 -0.69505027713E+02  0.28059423841E+03  0.30351475010E+03  0.91203456999E+02 0.  0.
         23    2    1    2    0    0  0.35601218651E+02  0.78526832297E+02  0.22929237957E+03  0.26108379473E+03  0.90309702600E+02 0.  0.
        -11    1    3    3    0    0  0.25631411255E+02 -0.27470034204E+02  0.36281479200E+02  0.52229472093E+02  0.00000000000E+00 0.  1.
         11    1    3    3    0    0 -0.41092894178E+02 -0.42034993509E+02  0.24431275921E+03  0.25128527801E+03  0.00000000000E+00 0. -1.
        -11    1    4    4    0    0  0.58448116937E+02  0.82443491832E+02  0.17565543829E+03  0.20265227539E+03  0.00000000000E+00 0.  1.
         11    1    4    4    0    0 -0.22846898286E+02 -0.39166595347E+01  0.53636941283E+02  0.58431519349E+02  0.00000000000E+00 0. -1.
          2    1    1    2  501    0 -0.20139735729E+02 -0.90218045840E+01 -0.17605211240E+02  0.28230220969E+02  0.00000000000E+00 0. -1.
<scales pt_clust_5="13000.00000" pt_clust_6="13000.00000" pt_clust_7="13000.00000" pt_clust_8="13000.00000" pt_clust_9="22.06812"></scales>
<clustering>
<clus scale="   22.068">  2  9  1 -1</clus>
<clus scale="   90.310">  7  8 -1 -1</clus>
<clus scale="   91.203">  5  6 -1 -1</clus>
<clus scale="  118.733">  2  7  1 -1</clus>
<clus scale="   22.068">  2  5  1 -1</clus>
</clustering>
</event>
<event>
 9    1  0.1321469E-005  0.1449675E+03  0.7546771E-02  0.1207341E+00
         21   -1    0    0  501  502  0.00000000000E+00  0.00000000000E+00  0.23306810541E+03  0.23306810541E+03  0.00000000000E+00 0. -1.
          2   -1    0    0  502    0 -0.00000000000E+00 -0.00000000000E+00 -0.18460844839E+03  0.18460844839E+03  0.00000000000E+00 0. -1.
         23    2    1    2    0    0 -0.88822355909E+02  0.13535957519E+03 -0.32197619972E+02  0.18709313894E+03  0.88065489278E+02 0.  0.
         23    2    1    2    0    0  0.44077201535E+02 -0.39124123337E+02  0.54966652582E+02  0.12138909626E+03  0.90777106546E+02 0.  0.
        -11    1    4    4    0    0  0.21639203116E+02 -0.45249605194E+02 -0.11079853144E+02  0.51366769681E+02  0.00000000000E+00 0.  1.
         11    1    4    4    0    0  0.22437998420E+02  0.61254818576E+01  0.66046505726E+02  0.70022326580E+02  0.00000000000E+00 0. -1.
        -13    1    3    3    0    0 -0.22489997658E+02 -0.84429297810E+01 -0.13694755857E+02  0.27651932951E+02  0.00000000000E+00 0.  1.
         13    1    3    3    0    0 -0.66332358251E+02  0.14380250497E+03 -0.18502864116E+02  0.15944120599E+03  0.00000000000E+00 0. -1.
          2    1    1    2  501    0  0.44745154374E+02 -0.96235451850E+02  0.25690624405E+02  0.10919431860E+03  0.00000000000E+00 0. -1.
<scales pt_clust_5="13000.00000" pt_clust_6="13000.00000" pt_clust_7="13000.00000" pt_clust_8="13000.00000" pt_clust_9="106.12912"></scales>
<clustering>
<clus scale="   88.065">  7  8 -1 -1</clus>
<clus scale="   90.777">  5  6 -1 -1</clus>
<clus scale="  106.129">  1  9  2 -1</clus>
<clus scale="  143.285">  2  7  1 -1</clus>
<clus scale="  106.129">  1  5  2 -1</clus>
</clustering>
</event>
<event>
 9    1  0.1321469E-005  0.2068383E+03  0.7546771E-02  0.1174372E+00
         21   -1    0    0  501  502  0.00000000000E+00  0.00000000000E+00  0.68611240120E+02  0.68611240120E+02  0.00000000000E+00 0. -1.
          2   -1    0    0  502    0 -0.00000000000E+00 -0.00000000000E+00 -0.99798995297E+03  0.99798995297E+03  0.00000000000E+00 0. -1.
         23    2    1    2    0    0 -0.35369840928E+02 -0.28044226917E+02 -0.14234069691E+03  0.17517724225E+03  0.91589780524E+02 0.  0.
         23    2    1    2    0    0 -0.49023067426E+02 -0.16637585573E+03 -0.27197390647E+03  0.33445683477E+03  0.88359391189E+02 0.  0.
        -11    1    3    3    0    0  0.42183902883E+01  0.27561072357E+02 -0.17570867770E+02  0.32956682483E+02  0.00000000000E+00 0.  1.
         11    1    3    3    0    0 -0.39588231216E+02 -0.55605299274E+02 -0.12476982914E+03  0.14222055977E+03  0.00000000000E+00 0. -1.
        -11    1    4    4    0    0 -0.46187681106E+02 -0.24161346812E+02 -0.65047319204E+02  0.83356021386E+02  0.00000000000E+00 0.  1.
         11    1    4    4    0    0 -0.28353863206E+01 -0.14221450892E+03 -0.20692658727E+03  0.25110081338E+03  0.00000000000E+00 0. -1.
          2    1    1    2  501    0  0.84392908354E+02  0.19442008265E+03 -0.51506410948E+03  0.55696711607E+03  0.00000000000E+00 0. -1.
<scales pt_clust_5="13000.00000" pt_clust_6="13000.00000" pt_clust_7="13000.00000" pt_clust_8="13000.00000" pt_clust_9="187.01530"></scales>
<clustering>
<clus scale="   88.359">  7  8 -1 -1</clus>
<clus scale="   91.590">  5  6 -1 -1</clus>
<clus scale="  102.109">  2  5  1 -1</clus>
<clus scale="  187.015">  1  9  2 -1</clus>
<clus scale="  187.015">  1  5  2 -1</clus>
</clustering>
</event>
<event>
 9    1  0.1321469E-005  0.2551370E+03  0.7546771E-02  0.1110476E+00
          2   -1    0    0  502    0 -0.00000000000E+00  0.00000000000E+00  0.68462776626E+03  0.68462776626E+03  0.00000000000E+00 0. -1.
         21   -1    0    0  501  502  0.00000000000E+00 -0.00000000000E+00 -0.10945953278E+03  0.10945953278E+03  0.00000000000E+00 0. -1.
         23    2    1    2    0    0 -0.20966407269E+03  0.13039392578E+03  0.36080208688E+03  0.44584565614E+03  0.87399107242E+02 0.  0.
         23    2    1    2    0    0  0.18009714960E+03 -0.13382816219E+03  0.20095730715E+03  0.31559514392E+03  0.94188615429E+02 0.  0.
        -13    1    4    4    0    0  0.10297179683E+02 -0.54187411715E+02  0.55537984434E+02  0.78273719809E+02  0.00000000000E+00 0.  1.
         13    1    4    4    0    0  0.16979996992E+03 -0.79640750473E+02  0.14541932272E+03  0.23732142411E+03  0.00000000000E+00 0. -1.
        -13    1    3    3    0    0 -0.29548936876E+02  0.20716631657E+02  0.11595660306E+02  0.37904852402E+02  0.00000000000E+00 0.  1.
         13    1    3    3    0    0 -0.18011513581E+03  0.10967729413E+03  0.34920642658E+03  0.40794080374E+03  0.00000000000E+00 0. -1.
          2    1    1    2  501    0  0.29566923081E+02  0.34342364034E+01  0.13408839445E+02  0.32646498977E+02  0.00000000000E+00 0. -1.
<scales pt_clust_5="13000.00000" pt_clust_6="13000.00000" pt_clust_7="13000.00000" pt_clust_8="13000.00000" pt_clust_9="29.76570"></scales>
<clustering>
<clus scale="   29.766">  2  9  1 -1</clus>
<clus scale="   87.399">  7  8 -1 -1</clus>
<clus scale="   94.189">  5  6 -1 -1</clus>
<clus scale="  252.709">  1  7  2 -1</clus>
<clus scale="   29.766">  2  5  1 -1</clus>
</clustering>
</event>
<event>
 9    1  0.1321469E-005  0.1086881E+03  0.7546771E-02  0.1263609E+00
         21   -1    0    0  501  502  0.00000000000E+00  0.00000000000E+00  0.14144255455E+03  0.14144255455E+03  0.00000000000E+00 0. -1.
          3   -1    0    0  502    0 -0.00000000000E+00 -0.00000000000E+00 -0.29534283254E+03  0.29534283254E+03  0.00000000000E+00 0. -1.
         23    2    1    2    0    0 -0.64414768626E+02 -0.32470800887E+02 -0.21393474541E+03  0.24326520954E+03  0.90588473617E+02 0.  0.
         23    2    1    2    0    0  0.34063427798E+01  0.28197268739E+02 -0.14146644335E+02  0.97378987414E+02  0.92064382409E+02 0.  0.
        -11    1    3    3    0    0 -0.74749555283E+02 -0.10364659940E+02 -0.92380614528E+02  0.11928579182E+03  0.00000000000E+00 0. -1.
         11    1    3    3    0    0  0.10334786658E+02 -0.22106140948E+02 -0.12155413088E+03  0.12397941772E+03  0.00000000000E+00 0.  1.
        -13    1    4    4    0    0 -0.11550433001E+02  0.56442864131E+02  0.84605601585E+01  0.58230494520E+02  0.00000000000E+00 0. -1.
         13    1    4    4    0    0  0.14956775781E+02 -0.28245595392E+02 -0.22607204494E+02  0.39148492894E+02  0.00000000000E+00 0.  1.
          3    1    1    2  501    0  0.61008425846E+02  0.42735321486E+01  0.74181111752E+02  0.96141190142E+02  0.00000000000E+00 0. -1.
<scales pt_clust_5="13000.00000" pt_clust_6="13000.00000" pt_clust_7="13000.00000" pt_clust_8="13000.00000" pt_clust_9="61.15792"></scales>
<clustering>
<clus scale="   61.158">  1  9  2 -1</clus>
<clus scale="   90.588">  5  6 -1 -1</clus>
<clus scale="   92.064">  7  8 -1 -1</clus>
<clus scale="  107.441">  2  5  1 -1</clus>
<clus scale="   61.158">  1  5  2 -1</clus>
</clustering>
</event>
<event>
 9    1  0.1321469E-005  0.2401333E+03  0.7546771E-02  0.1119874E+00
         21   -1    0    0  501  502  0.00000000000E+00  0.00000000000E+00  0.18267682274E+03  0.18267682274E+03  0.00000000000E+00 0. -1.
          1   -1    0    0  502    0 -0.00000000000E+00 -0.00000000000E+00 -0.58576607512E+03  0.58576607512E+03  0.00000000000E+00 0. -1.
         23    2    1    2    0    0 -0.22320300149E+03  0.11435185589E+02 -0.26763373268E+03  0.36070571834E+03  0.92360473331E+02 0.  0.
         23    2    1    2    0    0  0.21960624164E+03  0.29463115295E+02 -0.21289079073E+03  0.32009113628E+03  0.89670899522E+02 0.  0.
        -11    1    4    4    0    0  0.15929858884E+03 -0.11668175670E+02 -0.11001360476E+03  0.19394633269E+03  0.00000000000E+00 0.  1.
         11    1    4    4    0    0  0.60307652798E+02  0.41131290965E+02 -0.10287718596E+03  0.12614480359E+03  0.00000000000E+00 0. -1.
        -11    1    3    3    0    0 -0.19263855087E+03  0.25399833705E+02 -0.26268660930E+03  0.32673998460E+03  0.00000000000E+00 0. -1.
         11    1    3    3    0    0 -0.30564450621E+02 -0.13964648116E+02 -0.49471233801E+01  0.33965733740E+02  0.00000000000E+00 0.  1.
          1    1    1    2  501    0  0.35967598525E+01 -0.40898300884E+02  0.77435271027E+02  0.87646043240E+02  0.00000000000E+00 0. -1.
<scales pt_clust_5="13000.00000" pt_clust_6="13000.00000" pt_clust_7="13000.00000" pt_clust_8="13000.00000" pt_clust_9="41.05615"></scales>
<clustering>
<clus scale="   41.056">  1  9  2 -1</clus>
<clus scale="   89.671">  5  6 -1 -1</clus>
<clus scale="   92.360">  7  8 -1 -1</clus>
<clus scale="  239.112">  1  5  2 -1</clus>
<clus scale="   41.056">  1  5  2 -1</clus>
</clustering>
</event>
<event>
 9    1  0.1321469E-005  0.1370339E+03  0.7546771E-02  0.1228694E+00
         21   -1    0    0  501  502  0.00000000000E+00  0.00000000000E+00  0.51722298339E+03  0.51722298339E+03  0.00000000000E+00 0. -1.
         -2   -1    0    0    0  501 -0.00000000000E+00 -0.00000000000E+00 -0.86233229952E+02  0.86233229952E+02  0.00000000000E+00 0.  1.
         23    2    1    2    0    0 -0.57838246144E+02 -0.95779514360E+01  0.11733314415E+02  0.10881414970E+03  0.90916712643E+02 0.  0.
         23    2    1    2    0    0 -0.44285967875E+02 -0.74692797010E+02  0.25119313668E+03  0.28068835900E+03  0.90264622583E+02 0.  0.
        -11    1    4    4    0    0 -0.69511758843E+01 -0.66231220510E+02  0.74629131280E+02  0.10002200084E+03  0.00000000000E+00 0.  1.
         11    1    4    4    0    0 -0.37334791991E+02 -0.84615764997E+01  0.17656400540E+03  0.18066635816E+03  0.00000000000E+00 0. -1.
        -13    1    3    3    0    0 -0.66315094291E+01  0.36299705623E+02  0.15352005606E+02  0.39966606333E+02  0.00000000000E+00 0.  1.
         13    1    3    3    0    0 -0.51206736714E+02 -0.45877657059E+02 -0.36186911911E+01  0.68847543370E+02  0.00000000000E+00 0. -1.
         -2    1    1    2    0  502  0.10212421402E+03  0.84270748446E+02  0.16806330235E+03  0.21395370464E+03  0.00000000000E+00 0.  1.
<scales pt_clust_5="13000.00000" pt_clust_6="13000.00000" pt_clust_7="13000.00000" pt_clust_8="13000.00000" pt_clust_9="103.10473"></scales>
<clustering>
<clus scale="   90.265">  5  6 -1 -1</clus>
<clus scale="   90.917">  7  8 -1 -1</clus>
<clus scale="  108.180">  2  7  1 -1</clus>
<clus scale="  103.105">  1  9  2 -1</clus>
<clus scale="  103.105">  1  5  2 -1</clus>
</clustering>
</event>
<event>
 9    1  0.1321469E-005  0.9380074E+02  0.7546771E-02  0.1295891E+00
         21   -1    0    0  501  502  0.00000000000E+00  0.00000000000E+00  0.66399894781E+02  0.66399894781E+02  0.00000000000E+00 0.  1.
          2   -1    0    0  502    0 -0.00000000000E+00 -0.00000000000E+00 -0.67335319929E+03  0.67335319929E+03  0.00000000000E+00 0. -1.
         23    2    1    2    0    0 -0.13439186052E+01  0.51417345705E+01 -0.36858325371E+03  0.38004102937E+03  0.92462562879E+02 0.  0.
         23    2    1    2    0    0 -0.10959664217E+02 -0.28514919809E+02 -0.28827659622E+03  0.30324661318E+03  0.89005042468E+02 0.  0.
        -11    1    3    3    0    0 -0.46220355367E+02 -0.45030622546E+01 -0.19998624496E+03  0.20530732328E+03  0.00000000000E+00 0. -1.
         11    1    3    3    0    0  0.44876436762E+02  0.96447968251E+01 -0.16859700875E+03  0.17473370609E+03  0.00000000000E+00 0.  1.
        -11    1    4    4    0    0  0.57083508821E+00  0.31627911897E+02 -0.12258191995E+03  0.12659770046E+03  0.00000000000E+00 0.  1.
         11    1    4    4    0    0 -0.11530499305E+02 -0.60142831706E+02 -0.16569467628E+03  0.17664891273E+03  0.00000000000E+00 0. -1.
          2    1    1    2  501    0  0.12303582822E+02  0.23373185239E+02  0.49906545430E+02  0.56465451519E+02  0.00000000000E+00 0. -1.
<scales pt_clust_5="13000.00000" pt_clust_6="13000.00000" pt_clust_7="13000.00000" pt_clust_8="13000.00000" pt_clust_9="26.41371"></scales>
<clustering>
<clus scale="   26.414">  1  9  2 -1</clus>
<clus scale="   89.005">  7  8 -1 -1</clus>
<clus scale="   90.394">  1  7  2 -1</clus>
<clus scale="   92.463">  5  6 -1 -1</clus>
<clus scale="   26.414">  1  5  2 -1</clus>
</clustering>
</event>
<event>
 9    1  0.1321469E-005  0.1067480E+03  0.7546771E-02  0.1269012E+00
          2   -1    0    0  502    0 -0.00000000000E+00  0.00000000000E+00  0.24993560296E+03  0.24993560296E+03  0.00000000000E+00 0. -1.
         21   -1    0    0  501  502  0.00000000000E+00 -0.00000000000E+00 -0.92887035689E+02  0.92887035689E+02  0.00000000000E+00 0. -1.
         23    2    1    2    0    0  0.43444628079E+02 -0.71627663425E+00  0.14215163658E+03  0.17550401223E+03  0.93309280157E+02 0.  0.
         23    2    1    2    0    0 -0.79770049352E+02  0.26137826259E+02  0.38996567284E+01  0.12163787062E+03  0.87943831570E+02 0.  0.
        -11    1    3    3    0    0  0.47744222324E+02  0.19456925201E+02  0.14571968155E+03  0.15457136959E+03  0.00000000000E+00 0. -1.
         11    1    3    3    0    0 -0.42995942452E+01 -0.20173201835E+02 -0.35680449725E+01  0.20932642639E+02  0.00000000000E+00 0.  1.
        -11    1    4    4    0    0 -0.24673556009E+02  0.53782746276E+02  0.86985881509E+01  0.59808307107E+02  0.00000000000E+00 0.  1.
         11    1    4    4    0    0 -0.55096493343E+02 -0.27644920017E+02 -0.47989314225E+01  0.61829563514E+02  0.00000000000E+00 0. -1.
          2    1    1    2  501    0  0.36325421273E+02 -0.25421549625E+02  0.10997273960E+02  0.45680755801E+02  0.00000000000E+00 0. -1.
<scales pt_clust_5="13000.00000" pt_clust_6="13000.00000" pt_clust_7="13000.00000" pt_clust_8="13000.00000" pt_clust_9="44.33725"></scales>
<clustering>
<clus scale="   44.337">  2  9  1 -1</clus>
<clus scale="   87.944">  7  8 -1 -1</clus>
<clus scale="   93.309">  5  6 -1 -1</clus>
<clus scale="  102.091">  2  7  1 -1</clus>
<clus scale="   44.337">  2  5  1 -1</clus>
</clustering>
</event>
<event>
 9    1  0.1321469E-005  0.9630392E+02  0.7546771E-02  0.1288285E+00
         21   -1    0    0  501  502  0.00000000000E+00  0.00000000000E+00  0.76126350528E+02  0.76126350528E+02  0.00000000000E+00 0.  1.
          1   -1    0    0  502    0 -0.00000000000E+00 -0.00000000000E+00 -0.20313650521E+03  0.20313650521E+03  0.00000000000E+00 0. -1.
         23    2    1    2    0    0  0.27517662374E+02  0.21009897674E+02 -0.12195912422E+03  0.15615297579E+03  0.91165159593E+02 0.  0.
         23    2    1    2    0    0 -0.28615704628E+02  0.56133528494E+01 -0.90054771398E+01  0.96172158926E+02  0.91200971773E+02 0.  0.
        -11    1    3    3    0    0  0.14432742319E+02 -0.29984633194E+02 -0.86495325865E+02  0.92675906659E+02  0.00000000000E+00 0.  1.
         11    1    3    3    0    0  0.13084920055E+02  0.50994530868E+02 -0.35463798357E+02  0.63477069129E+02  0.00000000000E+00 0. -1.
        -11    1    4    4    0    0  0.21646851029E+02 -0.15685353676E+02 -0.27676305023E+02  0.38478491903E+02  0.00000000000E+00 0. -1.
         11    1    4    4    0    0 -0.50262555657E+02  0.21298706525E+02  0.18670827883E+02  0.57693667023E+02  0.00000000000E+00 0.  1.
          1    1    1    2  501    0  0.10980422535E+01 -0.26623250524E+02  0.39544466826E+01  0.26937721021E+02  0.00000000000E+00 0. -1.
<scales pt_clust_5="13000.00000" pt_clust_6="13000.00000" pt_clust_7="13000.00000" pt_clust_8="13000.00000" pt_clust_9="26.64588"></scales>
<clustering>
<clus scale="   26.646">  1  9  2 -1</clus>
<clus scale="   91.165">  5  6 -1 -1</clus>
<clus scale="   91.201">  7  8 -1 -1</clus>
<clus scale="   96.270">  2  5  1 -1</clus>
<clus scale="   26.646">  1  5  2 -1</clus>
</clustering>
</event>
<event>
 9    1  0.1321469E-005  0.9251858E+02  0.7546771E-02  0.1297655E+00
         21   -1    0    0  501  502  0.00000000000E+00  0.00000000000E+00  0.10678175620E+03  0.10678175620E+03  0.00000000000E+00 0. -1.
          1   -1    0    0  502    0 -0.00000000000E+00 -0.00000000000E+00 -0.25810515206E+03  0.25810515206E+03  0.00000000000E+00 0. -1.
         23    2    1    2    0    0  0.22535076104E+02 -0.21798779615E+02 -0.11799322550E+03  0.15121091376E+03  0.89215036450E+02 0.  0.
         23    2    1    2    0    0  0.35112088015E+02  0.14505930803E+02 -0.89476901672E+02  0.13287477785E+03  0.90588685287E+02 0.  0.
        -11    1    4    4    0    0  0.35540191006E+02  0.37727614560E+02 -0.13689778533E+02  0.53608657075E+02  0.00000000000E+00 0.  1.
         11    1    4    4    0    0 -0.42810299102E+00 -0.23221683756E+02 -0.75787123139E+02  0.79266120772E+02  0.00000000000E+00 0. -1.
        -11    1    3    3    0    0  0.17861325457E+02 -0.56636357720E+02 -0.75897075181E+02  0.96369445282E+02  0.00000000000E+00 0. -1.
         11    1    3    3    0    0  0.46737506471E+01  0.34837578104E+02 -0.42096150317E+02  0.54841468478E+02  0.00000000000E+00 0.  1.
          1    1    1    2  501    0 -0.57647164120E+02  0.72928488118E+01  0.56146731308E+02  0.80801216646E+02  0.00000000000E+00 0. -1.
<scales pt_clust_5="13000.00000" pt_clust_6="13000.00000" pt_clust_7="13000.00000" pt_clust_8="13000.00000" pt_clust_9="58.10664"></scales>
<clustering>
<clus scale="   58.107">  1  9  2 -1</clus>
<clus scale="   89.215">  7  8 -1 -1</clus>
<clus scale="   90.589">  5  6 -1 -1</clus>
<clus scale="   91.174">  2  7  1 -1</clus>
<clus scale="   58.107">  1  5  2 -1</clus>
</clustering>
</event>
<event>
 9    1  0.1321469E-005  0.1025047E+03  0.7546771E-02  0.1278145E+00
          4   -1    0    0  502    0 -0.00000000000E+00  0.00000000000E+00  0.53936207393E+03  0.53936207393E+03  0.00000000000E+00 0. -1.
         21   -1    0    0  501  502  0.00000000000E+00 -0.00000000000E+00 -0.25243987105E+02  0.25243987105E+02  0.00000000000E+00 0. -1.
         23    2    1    2    0    0 -0.83572880272E+01 -0.40521396377E+02  0.25957338527E+03  0.27974219405E+03  0.95736748255E+02 0.  0.
         23    2    1    2    0    0  0.28872030841E+02  0.21639864136E+02  0.16589338541E+03  0.19193151101E+03  0.89527714760E+02 0.  0.
        -13    1    4    4    0    0  0.44909641692E+01 -0.34311179821E+02  0.47948349595E+02  0.59130956772E+02  0.00000000000E+00 0.  1.
         13    1    4    4    0    0  0.24381066672E+02  0.55951043957E+02  0.11794503582E+03  0.13280055424E+03  0.00000000000E+00 0. -1.
        -13    1    3    3    0    0 -0.26131236232E+02  0.99665489678E+01  0.20307708959E+02  0.34562648170E+02  0.00000000000E+00 0.  1.
         13    1    3    3    0    0  0.17773948204E+02 -0.50487945345E+02  0.23926567631E+03  0.24517954588E+03  0.00000000000E+00 0. -1.
          4    1    1    2  501    0 -0.20514742814E+02  0.18881532241E+02  0.88651316140E+02  0.92932355968E+02  0.00000000000E+00 0. -1.
<scales pt_clust_5="13000.00000" pt_clust_6="13000.00000" pt_clust_7="13000.00000" pt_clust_8="13000.00000" pt_clust_9="27.88131"></scales>
<clustering>
<clus scale="   27.881">  2  9  1 -1</clus>
<clus scale="   89.528">  5  6 -1 -1</clus>
<clus scale="   95.737">  7  8 -1 -1</clus>
<clus scale="   96.731">  2  5  1 -1</clus>
<clus scale="   27.881">  2  5  1 -1</clus>
</clustering>
</event>
<event>
 9    1  0.1321469E-005  0.1029695E+03  0.7546771E-02  0.1274425E+00
         -2   -1    0    0    0  501 -0.00000000000E+00  0.00000000000E+00  0.26175976622E+03  0.26175976622E+03  0.00000000000E+00 0.  1.
         21   -1    0    0  501  502  0.00000000000E+00 -0.00000000000E+00 -0.18093622036E+03  0.18093622036E+03  0.00000000000E+00 0.  1.
         23    2    1    2    0    0 -0.12435612383E+02  0.40232157280E+02  0.16501581740E+03  0.19295527150E+03  0.90709679046E+02 0.  0.
         23    2    1    2    0    0  0.18521282669E+02 -0.59709794439E+02  0.44644617348E+02  0.11929778630E+03  0.91271696022E+02 0.  0.
        -11    1    4    4    0    0  0.43114859708E+02  0.30923231881E+00  0.30765827446E+02  0.52967186925E+02  0.00000000000E+00 0.  1.
         11    1    4    4    0    0 -0.24593577039E+02 -0.60019026758E+02  0.13878789902E+02  0.66330599377E+02  0.00000000000E+00 0. -1.
        -13    1    3    3    0    0  0.31738486599E+02 -0.98200854967E+01  0.56961021989E+02  0.65941820090E+02  0.00000000000E+00 0. -1.
         13    1    3    3    0    0 -0.44174098981E+02  0.50052242777E+02  0.10805479541E+03  0.12701345141E+03  0.00000000000E+00 0.  1.
         -2    1    1    2    0  502 -0.60856702866E+01  0.19477637159E+02 -0.12883688889E+03  0.13044292878E+03  0.00000000000E+00 0.  1.
<scales pt_clust_5="13000.00000" pt_clust_6="13000.00000" pt_clust_7="13000.00000" pt_clust_8="13000.00000" pt_clust_9="20.40622"></scales>
<clustering>
<clus scale="   20.406">  2  9  1 -1</clus>
<clus scale="   90.710">  7  8 -1 -1</clus>
<clus scale="   91.272">  5  6 -1 -1</clus>
<clus scale="  102.472">  1  7  2 -1</clus>
<clus scale="   20.406">  2  5  1 -1</clus>
</clustering>
</event>
<event>
 9    1  0.2779787E-005  0.1211359E+03  0.7546771E-02  0.1255241E+00
         21   -1    0    0  501  502  0.00000000000E+00  0.00000000000E+00  0.35245073011E+03  0.35245073011E+03  0.00000000000E+00 0. -1.
          1   -1    0    0  502    0 -0.00000000000E+00 -0.00000000000E+00 -0.23906305324E+03  0.23906305324E+03  0.00000000000E+00 0. -1.
         23    2    1    2    0    0 -0.19767402636E+02 -0.10278470967E+00 -0.21075971842E+03  0.24307405885E+03  0.11947626713E+03 0.  0.
         23    2    1    2    0    0  0.21730008216E+02 -0.25793555749E+02  0.20002273063E+03  0.22162724623E+03  0.89286296423E+02 0.  0.
        -13    1    4    4    0    0  0.34231045915E+02 -0.45379548192E+02  0.18599192455E+03  0.19448409677E+03  0.00000000000E+00 0. -1.
         13    1    4    4    0    0 -0.12501037698E+02  0.19585992443E+02  0.14030806078E+02  0.27143149462E+02  0.00000000000E+00 0.  1.
        -13    1    3    3    0    0 -0.68522601346E+02  0.60257203045E+01 -0.14930889168E+03  0.16439221799E+03  0.00000000000E+00 0. -1.
         13    1    3    3    0    0  0.48755198710E+02 -0.61285050141E+01 -0.61450826733E+02  0.78681840860E+02  0.00000000000E+00 0.  1.
          1    1    1    2  501    0 -0.19626055805E+01  0.25896340459E+02  0.12412466466E+03  0.12681247827E+03  0.00000000000E+00 0. -1.
<scales pt_clust_5="13000.00000" pt_clust_6="13000.00000" pt_clust_7="13000.00000" pt_clust_8="13000.00000" pt_clust_9="25.97060"></scales>
<clustering>
<clus scale="   25.971">  1  9  2 -1</clus>
<clus scale="   89.286">  5  6 -1 -1</clus>
<clus scale="   91.495">  1  5  2 -1</clus>
<clus scale="  119.476">  7  8 -1 -1</clus>
<clus scale="   25.971">  1  5  2 -1</clus>
</clustering>
</event>
<event>
 9    1  0.1321469E-005  0.1066752E+03  0.7546771E-02  0.1267142E+00
         -3   -1    0    0    0  501 -0.00000000000E+00  0.00000000000E+00  0.24236364323E+03  0.24236364323E+03  0.00000000000E+00 0.  1.
         21   -1    0    0  501  502  0.00000000000E+00 -0.00000000000E+00 -0.11859971563E+03  0.11859971563E+03  0.00000000000E+00 0. -1.
         23    2    1    2    0    0 -0.55405165448E+02 -0.38905047251E+02  0.14881388483E+03  0.18725184367E+03  0.91292637041E+02 0.  0.
         23    2    1    2    0    0  0.16880110425E+01 -0.12698197985E+01 -0.46757355301E+02  0.10320787167E+03  0.91984524118E+02 0.  0.
        -13    1    3    3    0    0 -0.20243702820E+02 -0.63112980888E+02  0.63184832858E+02  0.91571714867E+02  0.00000000000E+00 0. -1.
         13    1    3    3    0    0 -0.35161462628E+02  0.24207933637E+02  0.85629051974E+02  0.95680128799E+02  0.00000000000E+00 0.  1.
        -13    1    4    4    0    0  0.18989520888E+02  0.41419952562E+02 -0.18563337892E+02  0.49201746792E+02  0.00000000000E+00 0.  1.
         13    1    4    4    0    0 -0.17301509845E+02 -0.42689772360E+02 -0.28194017410E+02  0.54006124882E+02  0.00000000000E+00 0. -1.
         -3    1    1    2    0  502  0.53717154405E+02  0.40174867050E+02  0.21707398070E+02  0.70503643528E+02  0.00000000000E+00 0.  1.
<scales pt_clust_5="13000.00000" pt_clust_6="13000.00000" pt_clust_7="13000.00000" pt_clust_8="13000.00000" pt_clust_9="67.07870"></scales>
<clustering>
<clus scale="   67.079">  2  9  1 -1</clus>
<clus scale="   91.293">  5  6 -1 -1</clus>
<clus scale="   91.985">  7  8 -1 -1</clus>
<clus scale="  106.079">  1  5  2 -1</clus>
<clus scale="   67.079">  2  5  1 -1</clus>
</clustering>
</event>
<event>
 9    1  0.1321469E-005  0.1052598E+03  0.7546771E-02  0.1270506E+00
         21   -1    0    0  501  502  0.00000000000E+00  0.00000000000E+00  0.30345033723E+02  0.30345033723E+02  0.00000000000E+00 0. -1.
          2   -1    0    0  502    0 -0.00000000000E+00 -0.00000000000E+00 -0.66777288265E+03  0.66777288265E+03  0.00000000000E+00 0. -1.
         23    2    1    2    0    0 -0.55124681729E+02  0.41953527440E+02 -0.31024176340E+03  0.33082949448E+03  0.91648096890E+02 0.  0.
         23    2    1    2    0    0  0.18867967001E+02 -0.11351401684E+02 -0.10352091435E+03  0.13864645666E+03  0.89562300878E+02 0.  0.
        -13    1    4    4    0    0  0.32454093115E+02  0.58203869241E+01 -0.11077643806E+03  0.11557925547E+03  0.00000000000E+00 0.  1.
         13    1    4    4    0    0 -0.13586126115E+02 -0.17171788608E+02  0.72555237127E+01  0.23067201199E+02  0.00000000000E+00 0. -1.
        -13    1    3    3    0    0 -0.40202500741E+02 -0.22848723316E+02 -0.96974253805E+02  0.10743514846E+03  0.00000000000E+00 0. -1.
         13    1    3    3    0    0 -0.14922180989E+02  0.64802250757E+02 -0.21326750959E+03  0.22339434603E+03  0.00000000000E+00 0.  1.
          2    1    1    2  501    0  0.36256714729E+02 -0.30602125757E+02 -0.22366517118E+03  0.22864196522E+03  0.00000000000E+00 0. -1.
<scales pt_clust_5="13000.00000" pt_clust_6="13000.00000" pt_clust_7="13000.00000" pt_clust_8="13000.00000" pt_clust_9="47.44514"></scales>
<clustering>
<clus scale="   47.445">  1  9  2 -1</clus>
<clus scale="   89.562">  5  6 -1 -1</clus>
<clus scale="   91.648">  7  8 -1 -1</clus>
<clus scale="  103.449">  1  5  2 -1</clus>
<clus scale="   47.445">  1  5  2 -1</clus>
</clustering>
</event>
<event>
 9    1  0.1321469E-005  0.2968851E+03  0.7546771E-02  0.1087064E+00
          4   -1    0    0  502    0 -0.00000000000E+00  0.00000000000E+00  0.71512512591E+03  0.71512512591E+03  0.00000000000E+00 0. -1.
         21   -1    0    0  501  502  0.00000000000E+00 -0.00000000000E+00 -0.16666264751E+03  0.16666264751E+03  0.00000000000E+00 0.  1.
         23    2    1    2    0    0  0.10402637919E+03 -0.25081564036E+03  0.32307747515E+03  0.43301218807E+03  0.96904731804E+02 0.  0.
         23    2    1    2    0    0 -0.46423801932E+02  0.29716814220E+03  0.18025750978E+03  0.36215513741E+03  0.90551088316E+02 0.  0.
        -11    1    3    3    0    0  0.10508530177E+03 -0.13043808193E+03  0.19945089297E+03  0.26045666160E+03  0.00000000000E+00 0.  1.
         11    1    3    3    0    0 -0.10589225825E+01 -0.12037755844E+03  0.12362658218E+03  0.17255552647E+03  0.00000000000E+00 0. -1.
        -13    1    4    4    0    0 -0.60090478774E+02  0.13584269759E+03  0.11389256344E+03  0.18717804395E+03  0.00000000000E+00 0. -1.
         13    1    4    4    0    0  0.13666676843E+02  0.16132544461E+03  0.66364946341E+02  0.17497709347E+03  0.00000000000E+00 0.  1.
          4    1    1    2  501    0 -0.57602577260E+02 -0.46352501839E+02  0.45127493472E+02  0.86620447937E+02  0.00000000000E+00 0. -1.
<scales pt_clust_5="13000.00000" pt_clust_6="13000.00000" pt_clust_7="13000.00000" pt_clust_8="13000.00000" pt_clust_9="73.93654"></scales>
<clustering>
<clus scale="   73.937">  2  9  1 -1</clus>
<clus scale="   90.551">  7  8 -1 -1</clus>
<clus scale="   96.905">  5  6 -1 -1</clus>
<clus scale="  294.872">  2  7  1 -1</clus>
<clus scale="   73.937">  2  5  1 -1</clus>
</clustering>
</event>
<event>
 9    1  0.1321469E-005  0.2777242E+03  0.7546771E-02  0.1097059E+00
          1   -1    0    0  502    0 -0.00000000000E+00  0.00000000000E+00  0.26861274787E+04  0.26861274787E+04  0.00000000000E+00 0. -1.
         21   -1    0    0  501  502  0.00000000000E+00 -0.00000000000E+00 -0.53449687698E+02  0.53449687698E+02  0.00000000000E+00 0. -1.
         23    2    1    2    0    0 -0.17136082783E+03  0.27256247461E+03  0.15050763757E+04  0.15419287921E+04  0.92922911026E+02 0.  0.
         23    2    1    2    0    0  0.19581397559E+02 -0.19503378638E+03  0.45193276533E+03  0.50081567018E+03  0.90285669714E+02 0.  0.
        -13    1    3    3    0    0 -0.17743190717E+03  0.22466941167E+03  0.12554986156E+04  0.12877248153E+04  0.00000000000E+00 0. -1.
         13    1    3    3    0    0  0.60710793446E+01  0.47893062939E+02  0.24957776017E+03  0.25420397686E+03  0.00000000000E+00 0.  1.
        -13    1    4    4    0    0 -0.29361526107E+01 -0.43947385672E+02  0.33397206789E+02  0.55275375357E+02  0.00000000000E+00 0.  1.
         13    1    4    4    0    0  0.22517550170E+02 -0.15108640071E+03  0.41853555854E+03  0.44554029482E+03  0.00000000000E+00 0. -1.
          1    1    1    2  501    0  0.15177943027E+03 -0.77528688234E+02  0.67566864993E+03  0.69683270406E+03  0.00000000000E+00 0. -1.
<scales pt_clust_5="13000.00000" pt_clust_6="13000.00000" pt_clust_7="13000.00000" pt_clust_8="13000.00000" pt_clust_9="170.43392"></scales>
<clustering>
<clus scale="   90.286">  7  8 -1 -1</clus>
<clus scale="   92.923">  5  6 -1 -1</clus>
<clus scale="  170.434">  2  9  1 -1</clus>
<clus scale="  276.853">  2  7  1 -1</clus>
<clus scale="  170.434">  2  5  1 -1</clus>
</clustering>
</event>
<event>
 9    1  0.1321469E-005  0.9788701E+02  0.7546771E-02  0.1286195E+00
         21   -1    0    0  501  502  0.00000000000E+00  0.00000000000E+00  0.64700025827E+02  0.64700025827E+02  0.00000000000E+00 0.  1.
          2   -1    0    0  502    0 -0.00000000000E+00 -0.00000000000E+00 -0.24738650663E+03  0.24738650663E+03  0.00000000000E+00 0. -1.
         23    2    1    2    0    0  0.45354716983E+02 -0.42883877389E-01 -0.11626402215E+03  0.15470304173E+03  0.91425686132E+02 0.  0.
         23    2    1    2    0    0  0.36388596131E+00 -0.11084087735E+02 -0.52585524179E+02  0.10833799237E+03  0.94068559171E+02 0.  0.
        -11    1    4    4    0    0 -0.30232274509E+02 -0.92598362976E+01  0.14346978919E+02  0.34721330539E+02  0.00000000000E+00 0.  1.
         11    1    4    4    0    0  0.30596160471E+02 -0.18242514371E+01 -0.66932503098E+02  0.73616661835E+02  0.00000000000E+00 0. -1.
        -13    1    3    3    0    0 -0.24845087461E+02 -0.13071355781E+02 -0.49742296029E+02  0.57117726908E+02  0.00000000000E+00 0.  1.
         13    1    3    3    0    0  0.70199804444E+02  0.13028471904E+02 -0.66521726116E+02  0.97585314826E+02  0.00000000000E+00 0. -1.
          2    1    1    2  501    0 -0.45718602944E+02  0.11126971612E+02 -0.13836934475E+02  0.49045498347E+02  0.00000000000E+00 0. -1.
<scales pt_clust_5="13000.00000" pt_clust_6="13000.00000" pt_clust_7="13000.00000" pt_clust_8="13000.00000" pt_clust_9="47.05316"></scales>
<clustering>
<clus scale="   47.053">  1  9  2 -1</clus>
<clus scale="   91.426">  7  8 -1 -1</clus>
<clus scale="   94.069">  5  6 -1 -1</clus>
<clus scale="   95.350">  2  7  1 -1</clus>
<clus scale="   47.053">  1  5  2 -1</clus>
</clustering>
</event>
<event>
 9    1  0.1321469E-005  0.2613106E+03  0.7546771E-02  0.1106489E+00
         21   -1    0    0  501  502  0.00000000000E+00  0.00000000000E+00  0.14234275118E+03  0.14234275118E+03  0.00000000000E+00 0. -1.
          1   -1    0    0  502    0 -0.00000000000E+00 -0.00000000000E+00 -0.13669925156E+04  0.13669925156E+04  0.00000000000E+00 0. -1.
         23    2    1    2    0    0 -0.13223568469E+03  0.20480484643E+03 -0.67364864923E+03  0.72209870455E+03  0.90513728721E+02 0.  0.
         23    2    1    2    0    0  0.15131615635E+03 -0.19526576170E+03 -0.64214834421E+03  0.69362632836E+03  0.87964143579E+02 0.  0.
        -13    1    4    4    0    0  0.26697270799E+02 -0.99358801198E+01 -0.27227311401E+02  0.39405487791E+02  0.00000000000E+00 0.  1.
         13    1    4    4    0    0  0.12461888555E+03 -0.18532988158E+03 -0.61492103281E+03  0.65422084057E+03  0.00000000000E+00 0. -1.
        -13    1    3    3    0    0 -0.61769053786E+02  0.31199352482E+02 -0.13336200641E+03  0.15024726405E+03  0.00000000000E+00 0. -1.
         13    1    3    3    0    0 -0.70466630900E+02  0.17360549395E+03 -0.54028664281E+03  0.57185144050E+03  0.00000000000E+00 0.  1.
          1    1    1    2  501    0 -0.19080471667E+02 -0.95390847321E+01  0.91147228994E+02  0.93610233895E+02  0.00000000000E+00 0. -1.
<scales pt_clust_5="13000.00000" pt_clust_6="13000.00000" pt_clust_7="13000.00000" pt_clust_8="13000.00000" pt_clust_9="21.33210"></scales>
<clustering>
<clus scale="   21.332">  1  9  2 -1</clus>
<clus scale="   87.964">  5  6 -1 -1</clus>
<clus scale="   90.514">  7  8 -1 -1</clus>
<clus scale="  260.438">  1  5  2 -1</clus>
<clus scale="   21.332">  1  5  2 -1</clus>
</clustering>
</event>
<event>
 9    1  0.1321469E-005  0.1318301E+03  0.7546771E-02  0.1225314E+00
          2   -1    0    0  502    0 -0.00000000000E+00  0.00000000000E+00  0.91950574900E+03  0.91950574900E+03  0.00000000000E+00 0.  1.
         21   -1    0    0  501  502  0.00000000000E+00 -0.00000000000E+00 -0.31654287439E+02  0.31654287439E+02  0.00000000000E+00 0.  1.
         23    2    1    2    0    0  0.49234771812E+02  0.94921871269E+02  0.52395232393E+03  0.54215875164E+03  0.89307613493E+02 0.  0.
         23    2    1    2    0    0 -0.65978706227E+02 -0.42153366522E+02  0.17699376847E+03  0.21406926728E+03  0.91480933162E+02 0.  0.
        -13    1    4    4    0    0 -0.69304697532E+02  0.35466419649E+00  0.14516787490E+03  0.16086323007E+03  0.00000000000E+00 0.  1.
         13    1    4    4    0    0  0.33259913051E+01 -0.42508030719E+02  0.31825893570E+02  0.53206037207E+02  0.00000000000E+00 0. -1.
        -13    1    3    3    0    0  0.65016379954E+00  0.20227622873E+02  0.14311499228E+02  0.24787062154E+02  0.00000000000E+00 0. -1.
         13    1    3    3    0    0  0.48584608012E+02  0.74694248396E+02  0.50964082470E+03  0.51737168949E+03  0.00000000000E+00 0.  1.
          2    1    1    2  501    0  0.16743934415E+02 -0.52768504747E+02  0.18690536917E+03  0.19493201753E+03  0.00000000000E+00 0.  1.
<scales pt_clust_5="13000.00000" pt_clust_6="13000.00000" pt_clust_7="13000.00000" pt_clust_8="13000.00000" pt_clust_9="55.36134"></scales>
<clustering>
<clus scale="   55.361">  2  9  1 -1</clus>
<clus scale="   89.308">  7  8 -1 -1</clus>
<clus scale="   91.481">  5  6 -1 -1</clus>
<clus scale="  130.331">  1  7  2 -1</clus>
<clus scale="   55.361">  2  5  1 -1</clus>
</clustering>
</event>
<event>
 9    1  0.1321469E-005  0.1339549E+03  0.7546771E-02  0.1223175E+00
         21   -1    0    0  501  502  0.00000000000E+00  0.00000000000E+00  0.34604835726E+03  0.34604835726E+03  0.00000000000E+00 0. -1.
         -2   -1    0    0    0  501 -0.00000000000E+00 -0.00000000000E+00 -0.18226569112E+03  0.18226569112E+03  0.00000000000E+00 0. -1.
         23    2    1    2    0    0  0.57388930018E+02  0.87547999139E+02 -0.95990001291E+02  0.16855798117E+03  0.90772083951E+02 0.  0.
         23    2    1    2    0    0 -0.45137139926E+01 -0.93442553757E+02  0.38119633342E+02  0.13180738490E+03  0.84665198296E+02 0.  0.
        -11    1    3    3    0    0  0.16501818716E+02  0.51669007351E+02  0.43573089033E+01  0.54414910479E+02  0.00000000000E+00 0.  1.
         11    1    3    3    0    0  0.40887111302E+02  0.35878991788E+02 -0.10034731019E+03  0.11414307069E+03  0.00000000000E+00 0. -1.
        -13    1    4    4    0    0  0.23663326182E+02 -0.93665141415E+02  0.37475723098E+02  0.10362210934E+03  0.00000000000E+00 0. -1.
         13    1    4    4    0    0 -0.28177040175E+02  0.22258765766E+00  0.64391024446E+00  0.28185275565E+02  0.00000000000E+00 0.  1.
         -2    1    1    2    0  502 -0.52875216025E+02  0.58945546180E+01  0.22165303409E+03  0.22794868231E+03  0.00000000000E+00 0. -1.
<scales pt_clust_5="13000.00000" pt_clust_6="13000.00000" pt_clust_7="13000.00000" pt_clust_8="13000.00000" pt_clust_9="53.20277"></scales>
<clustering>
<clus scale="   53.203">  1  9  2 -1</clus>
<clus scale="   84.665">  7  8 -1 -1</clus>
<clus scale="   90.772">  5  6 -1 -1</clus>
<clus scale="  129.894">  1  7  2 -1</clus>
<clus scale="   53.203">  1  5  2 -1</clus>
</clustering>
</event>
<event>
 9    1  0.1321469E-005  0.1260370E+03  0.7546771E-02  0.1233819E+00
          1   -1    0    0  502    0 -0.00000000000E+00  0.00000000000E+00  0.67681322015E+03  0.67681322015E+03  0.00000000000E+00 0. -1.
         21   -1    0    0  501  502  0.00000000000E+00 -0.00000000000E+00 -0.33299819503E+02  0.33299819503E+02  0.00000000000E+00 0.  1.
         23    2    1    2    0    0  0.51485915263E+02  0.57649827875E+02  0.36826453643E+03  0.38758155608E+03  0.92878370471E+02 0.  0.
         23    2    1    2    0    0 -0.50451628523E+02 -0.87787539545E+02  0.24018191733E+03  0.27628170327E+03  0.91608990984E+02 0.  0.
        -13    1    4    4    0    0 -0.71147122222E+02 -0.70450577756E+02  0.22255042359E+03  0.24403665287E+03  0.00000000000E+00 0. -1.
         13    1    4    4    0    0  0.20695493698E+02 -0.17336961788E+02  0.17631493742E+02  0.32245050396E+02  0.00000000000E+00 0.  1.
        -13    1    3    3    0    0  0.31276383778E+02 -0.21223698398E+02  0.89102367772E+02  0.96787858218E+02  0.00000000000E+00 0.  1.
         13    1    3    3    0    0  0.20209531486E+02  0.78873526273E+02  0.27916216865E+03  0.29079369786E+03  0.00000000000E+00 0. -1.
          1    1    1    2  501    0 -0.10342867397E+01  0.30137711669E+02  0.35066946893E+02  0.46249780303E+02  0.00000000000E+00 0. -1.
<scales pt_clust_5="13000.00000" pt_clust_6="13000.00000" pt_clust_7="13000.00000" pt_clust_8="13000.00000" pt_clust_9="30.15545"></scales>
<clustering>
<clus scale="   30.155">  2  9  1 -1</clus>
<clus scale="   91.609">  5  6 -1 -1</clus>
<clus scale="   92.878">  7  8 -1 -1</clus>
<clus scale="  125.104">  2  5  1 -1</clus>
<clus scale="   30.155">  2  5  1 -1</clus>
</clustering>
</event>
<event>
 9    1  0.1321469E-005  0.1512318E+03  0.7546771E-02  0.1199321E+00
          1   -1    0    0  502    0 -0.00000000000E+00  0.00000000000E+00  0.70990354958E+03  0.70990354958E+03  0.00000000000E+00 0. -1.
         21   -1    0    0  501  502  0.00000000000E+00 -0.00000000000E+00 -0.54544504468E+02  0.54544504468E+02  0.00000000000E+00 0. -1.
         23    2    1    2    0    0 -0.92463291590E+02  0.34136932578E+02  0.29513979283E+03  0.32491198464E+03  0.93517431484E+02 0.  0.
         23    2    1    2    0    0  0.13701686203E+03 -0.50984972604E+02  0.35086543069E+03  0.39099360275E+03  0.91631648598E+02 0.  0.
        -11    1    3    3    0    0 -0.10234703958E+02  0.45118045378E+02  0.61343215222E+02  0.76833438278E+02  0.00000000000E+00 0.  1.
         11    1    3    3    0    0 -0.82228587632E+02 -0.10981112800E+02  0.23379657761E+03  0.24807854636E+03  0.00000000000E+00 0. -1.
        -11    1    4    4    0    0  0.91711793561E+02 -0.42742707154E+02  0.31985264457E+03  0.33547534385E+03  0.00000000000E+00 0. -1.
         11    1    4    4    0    0  0.45305068464E+02 -0.82422654502E+01  0.31012786128E+02  0.55518258904E+02  0.00000000000E+00 0.  1.
          1    1    1    2  501    0 -0.44553570435E+02  0.16848040026E+02  0.93538215869E+01  0.48542466661E+02  0.00000000000E+00 0. -1.
<scales pt_clust_5="13000.00000" pt_clust_6="13000.00000" pt_clust_7="13000.00000" pt_clust_8="13000.00000" pt_clust_9="47.63273"></scales>
<clustering>
<clus scale="   47.633">  2  9  1 -1</clus>
<clus scale="   91.632">  7  8 -1 -1</clus>
<clus scale="   93.517">  5  6 -1 -1</clus>
<clus scale="  150.073">  2  7  1 -1</clus>
<clus scale="   47.633">  2  5  1 -1</clus>
</clustering>
</event>
<event>
 9    1  0.1321469E-005  0.9543989E+02  0.7546771E-02  0.1290255E+00
          2   -1    0    0  502    0 -0.00000000000E+00  0.00000000000E+00  0.24916454389E+03  0.24916454389E+03  0.00000000000E+00 0. -1.
         21   -1    0    0  501  502  0.00000000000E+00 -0.00000000000E+00 -0.12139973204E+03  0.12139973204E+03  0.00000000000E+00 0. -1.
         23    2    1    2    0    0  0.48950868739E+01  0.48520792403E+02  0.12529152632E+03  0.16219244502E+03  0.90720413819E+02 0.  0.
         23    2    1    2    0    0  0.10277616897E+02 -0.79734887896E+01  0.78700924732E+02  0.12070799716E+03  0.90594586435E+02 0.  0.
        -11    1    3    3    0    0  0.28188366471E+02  0.55962075358E+02  0.12248051937E+03  0.13757839768E+03  0.00000000000E+00 0. -1.
         11    1    3    3    0    0 -0.23293279597E+02 -0.74412829554E+01  0.28110069479E+01  0.24614047340E+02  0.00000000000E+00 0.  1.
        -11    1    4    4    0    0 -0.27605055516E+02  0.27182103428E+02  0.24616921422E+02  0.45900965754E+02  0.00000000000E+00 0.  1.
         11    1    4    4    0    0  0.37882672413E+02 -0.35155592218E+02  0.54084003310E+02  0.74807031403E+02  0.00000000000E+00 0. -1.
          2    1    1    2  501    0 -0.15172703770E+02 -0.40547303613E+02 -0.76227639204E+02  0.87663833756E+02  0.00000000000E+00 0. -1.
<scales pt_clust_5="13000.00000" pt_clust_6="13000.00000" pt_clust_7="13000.00000" pt_clust_8="13000.00000" pt_clust_9="43.29313"></scales>
<clustering>
<clus scale="   43.293">  2  9  1 -1</clus>
<clus scale="   90.595">  7  8 -1 -1</clus>
<clus scale="   90.720">  5  6 -1 -1</clus>
<clus scale="   95.320">  2  7  1 -1</clus>
<clus scale="   43.293">  2  5  1 -1</clus>
</clustering>
</event>
<event>
 9    1  0.1321469E-005  0.1107418E+03  0.7546771E-02  0.1259795E+00
         21   -1    0    0  501  502  0.00000000000E+00  0.00000000000E+00  0.56721357601E+02  0.56721357601E+02  0.00000000000E+00 0. -1.
          1   -1    0    0  502    0 -0.00000000000E+00 -0.00000000000E+00 -0.33552311147E+03  0.33552311147E+03  0.00000000000E+00 0. -1.
         23    2    1    2    0    0 -0.15005264778E+02 -0.75978886139E+02 -0.17063346307E+03  0.20911052741E+03  0.92808861902E+02 0.  0.
         23    2    1    2    0    0  0.14067075935E+02  0.33678504643E+02 -0.95167765831E+02  0.13887090829E+03  0.94319145545E+02 0.  0.
        -11    1    3    3    0    0  0.21770817795E+02  0.11765825248E+02 -0.46901406825E+02  0.53029662580E+02  0.00000000000E+00 0.  1.
         11    1    3    3    0    0 -0.36776082573E+02 -0.87744711386E+02 -0.12373205624E+03  0.15608086483E+03  0.00000000000E+00 0. -1.
        -13    1    4    4    0    0  0.50357714614E+02  0.22368930169E+02 -0.28277777292E+02  0.61934652228E+02  0.00000000000E+00 0.  1.
         13    1    4    4    0    0 -0.36290638678E+02  0.11309574475E+02 -0.66889988539E+02  0.76936256064E+02  0.00000000000E+00 0. -1.
          1    1    1    2  501    0  0.93818884236E+00  0.42300381496E+02 -0.13000524971E+02  0.44263033363E+02  0.00000000000E+00 0. -1.
<scales pt_clust_5="13000.00000" pt_clust_6="13000.00000" pt_clust_7="13000.00000" pt_clust_8="13000.00000" pt_clust_9="42.31078"></scales>
<clustering>
<clus scale="   42.311">  1  9  2 -1</clus>
<clus scale="   92.809">  5  6 -1 -1</clus>
<clus scale="   94.319">  7  8 -1 -1</clus>
<clus scale="  109.458">  2  5  1 -1</clus>
<clus scale="   42.311">  1  5  2 -1</clus>
</clustering>
</event>
<event>
 9    1  0.1321469E-005  0.1301124E+03  0.7546771E-02  0.1227471E+00
         21   -1    0    0  501  502  0.00000000000E+00  0.00000000000E+00  0.86481304835E+02  0.86481304835E+02  0.00000000000E+00 0.  1.
         -3   -1    0    0    0  501 -0.00000000000E+00 -0.00000000000E+00 -0.32744059650E+03  0.32744059650E+03  0.00000000000E+00 0.  1.
         23    2    1    2    0    0 -0.24194978152E+02 -0.10078667355E+03 -0.18376996483E+03  0.22966549365E+03  0.90727550762E+02 0.  0.
         23    2    1    2    0    0  0.40995612478E+02  0.69397455743E+02 -0.77225392755E+02  0.14340315511E+03  0.90022533307E+02 0.  0.
        -11    1    3    3    0    0  0.20050097027E+02 -0.89992362777E+02 -0.12187388875E+03  0.15281975170E+03  0.00000000000E+00 0.  1.
         11    1    3    3    0    0 -0.44245075178E+02 -0.10794310771E+02 -0.61896076077E+02  0.76845741953E+02  0.00000000000E+00 0. -1.
        -13    1    4    4    0    0  0.50532359116E+02  0.73761351946E+01 -0.11133573680E+02  0.52267419595E+02  0.00000000000E+00 0.  1.
         13    1    4    4    0    0 -0.95367466380E+01  0.62021320549E+02 -0.66091819075E+02  0.91135735514E+02  0.00000000000E+00 0. -1.
         -3    1    1    2    0  502 -0.16800634326E+02  0.31389217804E+02  0.20036065923E+02  0.40853252573E+02  0.00000000000E+00 0.  1.
<scales pt_clust_5="13000.00000" pt_clust_6="13000.00000" pt_clust_7="13000.00000" pt_clust_8="13000.00000" pt_clust_9="35.60259"></scales>
<clustering>
<clus scale="   35.603">  1  9  2 -1</clus>
<clus scale="   90.023">  7  8 -1 -1</clus>
<clus scale="   90.728">  5  6 -1 -1</clus>
<clus scale="  129.622">  1  7  2 -1</clus>
<clus scale="   35.603">  1  5  2 -1</clus>
</clustering>
</event>
<event>
 9    1  0.1321469E-005  0.1491918E+03  0.7546771E-02  0.1202210E+00
          2   -1    0    0  502    0 -0.00000000000E+00  0.00000000000E+00  0.81837562558E+03  0.81837562558E+03  0.00000000000E+00 0. -1.
         21   -1    0    0  501  502  0.00000000000E+00 -0.00000000000E+00 -0.52844512462E+02  0.52844512462E+02  0.00000000000E+00 0. -1.
         23    2    1    2    0    0 -0.90425927276E+02  0.91284490390E+02  0.44152040116E+03  0.46875198891E+03  0.90986020686E+02 0.  0.
         23    2    1    2    0    0  0.15790600720E+02 -0.11771291131E+03  0.26696850889E+03  0.30488379417E+03  0.87041775305E+02 0.  0.
        -11    1    4    4    0    0 -0.17649470780E+02 -0.48829331710E+02  0.40584568714E+02  0.65900794166E+02  0.00000000000E+00 0.  1.
         11    1    4    4    0    0  0.33440071500E+02 -0.68883579595E+02  0.22638394018E+03  0.23898300001E+03  0.00000000000E+00 0. -1.
        -11    1    3    3    0    0 -0.96262532191E+02  0.41260646462E+02  0.33369465557E+03  0.34974424828E+03  0.00000000000E+00 0. -1.
         11    1    3    3    0    0  0.58366049143E+01  0.50023843927E+02  0.10782574559E+03  0.11900774063E+03  0.00000000000E+00 0.  1.
          2    1    1    2  501    0  0.74635326556E+02  0.26428420916E+02  0.57042203070E+02  0.97584354962E+02  0.00000000000E+00 0. -1.
<scales pt_clust_5="13000.00000" pt_clust_6="13000.00000" pt_clust_7="13000.00000" pt_clust_8="13000.00000" pt_clust_9="79.17634"></scales>
<clustering>
<clus scale="   79.176">  2  9  1 -1</clus>
<clus scale="   87.042">  5  6 -1 -1</clus>
<clus scale="   90.986">  7  8 -1 -1</clus>
<clus scale="  146.820">  2  5  1 -1</clus>
<clus scale="   79.176">  2  5  1 -1</clus>
</clustering>
</event>
<event>
 9    1  0.1321469E-005  0.1023423E+03  0.7546771E-02  0.1279841E+00
         21   -1    0    0  501  502  0.00000000000E+00  0.00000000000E+00  0.12907045448E+03  0.12907045448E+03  0.00000000000E+00 0. -1.
         -3   -1    0    0    0  501 -0.00000000000E+00 -0.00000000000E+00 -0.18262052315E+03  0.18262052315E+03  0.00000000000E+00 0.  1.
         23    2    1    2    0    0  0.17169674004E+02 -0.38550428774E+02 -0.12811473758E+03  0.16556405715E+03  0.96005925709E+02 0.  0.
         23    2    1    2    0    0  0.86778811703E+01  0.14085165266E+02  0.43172835376E+02  0.98670704447E+02  0.87168323946E+02 0.  0.
        -11    1    4    4    0    0  0.32563072212E+02  0.63836709762E+00 -0.13857884280E+02  0.35394945136E+02  0.00000000000E+00 0.  1.
         11    1    4    4    0    0 -0.23885191042E+02  0.13446798168E+02  0.57030719655E+02  0.63275759312E+02  0.00000000000E+00 0. -1.
        -13    1    3    3    0    0  0.56917159838E+02 -0.29491838085E+02 -0.77967082234E+02  0.10093660144E+03  0.00000000000E+00 0.  1.
         13    1    3    3    0    0 -0.39747485834E+02 -0.90585906893E+01 -0.50147655347E+02  0.64627455715E+02  0.00000000000E+00 0. -1.
         -3    1    1    2    0  502 -0.25847555175E+02  0.24465263508E+02  0.31391833538E+02  0.47456216030E+02  0.00000000000E+00 0.  1.
<scales pt_clust_5="13000.00000" pt_clust_6="13000.00000" pt_clust_7="13000.00000" pt_clust_8="13000.00000" pt_clust_9="35.58996"></scales>
<clustering>
<clus scale="   35.590">  1  9  2 -1</clus>
<clus scale="   87.168">  5  6 -1 -1</clus>
<clus scale="   94.102">  1  5  2 -1</clus>
<clus scale="   96.006">  7  8 -1 -1</clus>
<clus scale="   35.590">  1  5  2 -1</clus>
</clustering>
</event>
<event>
 9    1  0.1321469E-005  0.1158332E+03  0.7546771E-02  0.1254434E+00
         -4   -1    0    0    0  501 -0.00000000000E+00  0.00000000000E+00  0.39674531083E+03  0.39674531083E+03  0.00000000000E+00 0.  1.
         21   -1    0    0  501  502  0.00000000000E+00 -0.00000000000E+00 -0.45289928868E+02  0.45289928868E+02  0.00000000000E+00 0.  1.
         23    2    1    2    0    0  0.58249617133E+02  0.33982105627E+02  0.19876977980E+03  0.22417150033E+03  0.78712354813E+02 0.  0.
         23    2    1    2    0    0 -0.80758293047E+02 -0.14242991402E+02  0.13774491331E+03  0.18440484959E+03  0.91141223993E+02 0.  0.
        -11    1    3    3    0    0  0.22702880067E+02  0.52161054868E+02  0.75080303974E+02  0.94197921702E+02  0.00000000000E+00 0. -1.
         11    1    3    3    0    0  0.35546737066E+02 -0.18178949241E+02  0.12368947582E+03  0.12997357863E+03  0.00000000000E+00 0.  1.
        -13    1    4    4    0    0  0.66354424885E+01  0.23836979186E+02  0.14802509684E+02  0.28833053370E+02  0.00000000000E+00 0. -1.
         13    1    4    4    0    0 -0.87393735536E+02 -0.38079970588E+02  0.12294240362E+03  0.15557179622E+03  0.00000000000E+00 0.  1.
         -4    1    1    2    0  502  0.22508675914E+02 -0.19739114225E+02  0.14940688866E+02  0.33458889784E+02  0.00000000000E+00 0.  1.
<scales pt_clust_5="13000.00000" pt_clust_6="13000.00000" pt_clust_7="13000.00000" pt_clust_8="13000.00000" pt_clust_9="29.93782"></scales>
<clustering>
<clus scale="   29.938">  2  9  1 -1</clus>
<clus scale="   78.712">  5  6 -1 -1</clus>
<clus scale="   91.141">  7  8 -1 -1</clus>
<clus scale="  106.331">  1  5  2 -1</clus>
<clus scale="   29.938">  2  5  1 -1</clus>
</clustering>
</event>
<event>
 9    1  0.1321469E-005  0.1134891E+03  0.7546771E-02  0.1255562E+00
         21   -1    0    0  501  502  0.00000000000E+00  0.00000000000E+00  0.22972131622E+02  0.22972131622E+02  0.00000000000E+00 0. -1.
          1   -1    0    0  502    0 -0.00000000000E+00 -0.00000000000E+00 -0.10687645134E+04  0.10687645134E+04  0.00000000000E+00 0. -1.
         23    2    1    2    0    0  0.47618475397E+02 -0.24019494301E+02 -0.42449097094E+03  0.43757253430E+03  0.91829641493E+02 0.  0.
         23    2    1    2    0    0 -0.28949980183E+02  0.87604071842E+02 -0.33548786125E+03  0.36076865006E+03  0.95338025246E+02 0.  0.
        -11    1    4    4    0    0 -0.23258202275E+02 -0.16434027673E+02 -0.72187951867E+02  0.77602330077E+02  0.00000000000E+00 0.  1.
         11    1    4    4    0    0 -0.56917779076E+01  0.10403809952E+03 -0.26329990939E+03  0.28316631998E+03  0.00000000000E+00 0. -1.
        -13    1    3    3    0    0  0.68012897743E+02 -0.41009758287E+02 -0.33016322019E+03  0.33958107500E+03  0.00000000000E+00 0. -1.
         13    1    3    3    0    0 -0.20394422346E+02  0.16990263986E+02 -0.94327750755E+02  0.97991459299E+02  0.00000000000E+00 0.  1.
          1    1    1    2  501    0 -0.18668495214E+02 -0.63584577541E+02 -0.28581354956E+03  0.29339546065E+03  0.00000000000E+00 0. -1.
<scales pt_clust_5="13000.00000" pt_clust_6="13000.00000" pt_clust_7="13000.00000" pt_clust_8="13000.00000" pt_clust_9="66.26851"></scales>
<clustering>
<clus scale="   66.269">  1  9  2 -1</clus>
<clus scale="   91.830">  7  8 -1 -1</clus>
<clus scale="   95.338">  5  6 -1 -1</clus>
<clus scale="  110.558">  2  7  1 -1</clus>
<clus scale="   66.269">  1  5  2 -1</clus>
</clustering>
</event>
<event>
 9    1  0.1321469E-005  0.1424486E+03  0.7546771E-02  0.1220558E+00
          1   -1    0    0  502    0 -0.00000000000E+00  0.00000000000E+00  0.10044903602E+04  0.10044903602E+04  0.00000000000E+00 0. -1.
         21   -1    0    0  501  502  0.00000000000E+00 -0.00000000000E+00 -0.35401350445E+02  0.35401350445E+02  0.00000000000E+00 0. -1.
         23    2    1    2    0    0  0.58197071180E+02  0.48723837809E+02  0.30142728842E+03  0.32229874262E+03  0.85188953632E+02 0.  0.
         23    2    1    2    0    0 -0.84699207655E+02  0.68831023239E+02  0.37543402904E+03  0.40149403931E+03  0.91296702601E+02 0.  0.
        -11    1    3    3    0    0  0.71029238633E+02  0.12163389353E+02  0.23018046214E+03  0.24119731742E+03  0.00000000000E+00 0.  1.
         11    1    3    3    0    0 -0.12832167453E+02  0.36560448456E+02  0.71246826283E+02  0.81101425192E+02  0.00000000000E+00 0. -1.
        -11    1    4    4    0    0 -0.21209344463E+02 -0.21381108711E+02  0.56569999536E+02  0.64087073188E+02  0.00000000000E+00 0.  1.
         11    1    4    4    0    0 -0.63489863192E+02  0.90212131949E+02  0.31886402950E+03  0.33740696612E+03  0.00000000000E+00 0. -1.
          1    1    1    2  501    0  0.26502136475E+02 -0.11755486105E+03  0.29222769230E+03  0.31609892873E+03  0.00000000000E+00 0. -1.
<scales pt_clust_5="13000.00000" pt_clust_6="13000.00000" pt_clust_7="13000.00000" pt_clust_8="13000.00000" pt_clust_9="109.34592"></scales>
<clustering>
<clus scale="   85.189">  5  6 -1 -1</clus>
<clus scale="   91.297">  7  8 -1 -1</clus>
<clus scale="  114.097">  1  5  2 -1</clus>
<clus scale="  109.346">  2  9  1 -1</clus>
<clus scale="  109.346">  2  5  1 -1</clus>
</clustering>
</event>
<event>
 9    1  0.1321469E-005  0.1296718E+03  0.7546771E-02  0.1232138E+00
          2   -1    0    0  502    0 -0.00000000000E+00  0.00000000000E+00  0.60161870929E+03  0.60161870929E+03  0.00000000000E+00 0. -1.
         21   -1    0    0  501  502  0.00000000000E+00 -0.00000000000E+00 -0.11615483086E+03  0.11615483086E+03  0.00000000000E+00 0. -1.
         23    2    1    2    0    0 -0.96949357220E+02 -0.16442156614E+02  0.37719155531E+03  0.40012785625E+03  0.90328896674E+02 0.  0.
         23    2    1    2    0    0  0.25417382561E+02 -0.91714957275E+02  0.13147945972E+03  0.18591354707E+03  0.90660476119E+02 0.  0.
        -11    1    3    3    0    0 -0.30931524944E+02  0.32812367073E+02  0.81102217635E+02  0.92795368277E+02  0.00000000000E+00 0.  1.
         11    1    3    3    0    0 -0.66017832275E+02 -0.49254523686E+02  0.29608933768E+03  0.30733248798E+03  0.00000000000E+00 0. -1.
        -13    1    4    4    0    0  0.29808636193E+02 -0.84475197079E+01  0.91652384698E+00  0.30996054537E+02  0.00000000000E+00 0.  1.
         13    1    4    4    0    0 -0.43912536328E+01 -0.83267437567E+02  0.13056293587E+03  0.15491749253E+03  0.00000000000E+00 0. -1.
          2    1    1    2  501    0  0.71531974659E+02  0.10815711389E+03 -0.23207136597E+02  0.13173213682E+03  0.00000000000E+00 0. -1.
<scales pt_clust_5="13000.00000" pt_clust_6="13000.00000" pt_clust_7="13000.00000" pt_clust_8="13000.00000" pt_clust_9="129.67183"></scales>
<clustering>
<clus scale="   90.329">  5  6 -1 -1</clus>
<clus scale="   90.660">  7  8 -1 -1</clus>
<clus scale="  129.672">  2  9  1 -1</clus>
<clus scale="  118.914">  1  5  2 -1</clus>
<clus scale="  129.672">  2  5  1 -1</clus>
</clustering>
</event>
<event>
 9    1  0.1321469E-005  0.9378555E+02  0.7546771E-02  0.1295550E+00
         21   -1    0    0  501  502  0.00000000000E+00  0.00000000000E+00  0.47458639541E+03  0.47458639541E+03  0.00000000000E+00 0.  1.
         -2   -1    0    0    0  501 -0.00000000000E+00 -0.00000000000E+00 -0.14580007749E+03  0.14580007749E+03  0.00000000000E+00 0.  1.
         23    2    1    2    0    0 -0.86287671737E+01 -0.23310917365E+02 -0.11293348062E+03  0.14692663159E+03  0.90639999643E+02 0.  0.
         23    2    1    2    0    0 -0.43124528890E+02  0.27756318516E+02  0.18077689674E+03  0.20739713583E+03  0.87767575715E+02 0.  0.
        -11    1    3    3    0    0  0.15599751203E+02  0.18893743154E+02 -0.89726582794E+02  0.93011748870E+02  0.00000000000E+00 0.  1.
         11    1    3    3    0    0 -0.24228518376E+02 -0.42204660519E+02 -0.23206897822E+02  0.53914882720E+02  0.00000000000E+00 0. -1.
        -11    1    4    4    0    0 -0.13611779587E+02  0.57892316259E+02  0.10522173676E+03  0.12086527504E+03  0.00000000000E+00 0. -1.
         11    1    4    4    0    0 -0.29512749303E+02 -0.30135997743E+02  0.75555159980E+02  0.86531860786E+02  0.00000000000E+00 0.  1.
         -2    1    1    2    0  502  0.51753296064E+02 -0.44454011515E+01  0.26094290180E+03  0.26606270548E+03  0.00000000000E+00 0.  1.
<scales pt_clust_5="13000.00000" pt_clust_6="13000.00000" pt_clust_7="13000.00000" pt_clust_8="13000.00000" pt_clust_9="51.94387"></scales>
<clustering>
<clus scale="   51.944">  1  9  2 -1</clus>
<clus scale="   87.768">  7  8 -1 -1</clus>
<clus scale="   90.640">  5  6 -1 -1</clus>
<clus scale="   91.012">  1  7  2 -1</clus>
<clus scale="   51.944">  1  5  2 -1</clus>
</clustering>
</event>
<event>
 9    1  0.1321469E-005  0.1060298E+03  0.7546771E-02  0.1268239E+00
         -1   -1    0    0    0  501 -0.00000000000E+00  0.00000000000E+00  0.12561462964E+03  0.12561462964E+03  0.00000000000E+00 0.  1.
         21   -1    0    0  501  502  0.00000000000E+00 -0.00000000000E+00 -0.16771286956E+03  0.16771286956E+03  0.00000000000E+00 0.  1.
         23    2    1    2    0    0  0.25789995462E+02  0.35947839840E+02  0.19681114595E+02  0.10198013571E+03  0.89750937334E+02 0.  0.
         23    2    1    2    0    0 -0.68731607802E+02 -0.35196321619E+02 -0.31728037005E+01  0.11868874633E+03  0.90078503849E+02 0.  0.
        -11    1    4    4    0    0 -0.45454319201E+02 -0.25176290635E+02  0.42053371035E+02  0.66846292041E+02  0.00000000000E+00 0.  1.
         11    1    4    4    0    0 -0.23277288601E+02 -0.10020030984E+02 -0.45226174736E+02  0.51842454290E+02  0.00000000000E+00 0. -1.
        -13    1    3    3    0    0 -0.18180246020E+02  0.50420746923E+02  0.75616535996E+01  0.54129027987E+02  0.00000000000E+00 0. -1.
         13    1    3    3    0    0  0.43970241482E+02 -0.14472907083E+02  0.12119460995E+02  0.47851107722E+02  0.00000000000E+00 0.  1.
         -1    1    1    2    0  502  0.42941612340E+02 -0.75151822039E+00 -0.58606550814E+02  0.72658617165E+02  0.00000000000E+00 0.  1.
<scales pt_clust_5="13000.00000" pt_clust_6="13000.00000" pt_clust_7="13000.00000" pt_clust_8="13000.00000" pt_clust_9="42.94819"></scales>
<clustering>
<clus scale="   42.948">  2  9  1 -1</clus>
<clus scale="   89.751">  7  8 -1 -1</clus>
<clus scale="   90.079">  5  6 -1 -1</clus>
<clus scale="  105.752">  1  7  2 -1</clus>
<clus scale="   42.948">  2  5  1 -1</clus>
</clustering>
</event>
<event>
 9    1  0.1321469E-005  0.1514474E+03  0.7546771E-02  0.1198945E+00
          1   -1    0    0  502    0 -0.00000000000E+00  0.00000000000E+00  0.37815003532E+03  0.37815003532E+03  0.00000000000E+00 0. -1.
         21   -1    0    0  501  502  0.00000000000E+00 -0.00000000000E+00 -0.26913680052E+03  0.26913680052E+03  0.00000000000E+00 0. -1.
         23    2    1    2    0    0  0.10487058423E+03  0.48939249406E+02  0.29580525462E+03  0.33078559018E+03  0.92333463291E+02 0.  0.
         23    2    1    2    0    0 -0.12287105832E+03 -0.68572041097E+02 -0.48723663289E+02  0.17588711177E+03  0.93610143294E+02 0.  0.
        -11    1    4    4    0    0 -0.36095454850E+02  0.33833081046E+01  0.22382801947E+02  0.42606554163E+02  0.00000000000E+00 0. -1.
         11    1    4    4    0    0 -0.86775603473E+02 -0.71955349202E+02 -0.71106465236E+02  0.13328055760E+03  0.00000000000E+00 0.  1.
        -13    1    3    3    0    0  0.59352560495E+02  0.90108674043E+01  0.51522124830E+02  0.79110375525E+02  0.00000000000E+00 0.  1.
         13    1    3    3    0    0  0.45518023738E+02  0.39928382002E+02  0.24428312979E+03  0.25167521466E+03  0.00000000000E+00 0. -1.
          1    1    1    2  501    0  0.18000474090E+02  0.19632791691E+02 -0.13806835652E+03  0.14061413389E+03  0.00000000000E+00 0. -1.
<scales pt_clust_5="13000.00000" pt_clust_6="13000.00000" pt_clust_7="13000.00000" pt_clust_8="13000.00000" pt_clust_9="26.63576"></scales>
<clustering>
<clus scale="   26.636">  2  9  1 -1</clus>
<clus scale="   92.333">  7  8 -1 -1</clus>
<clus scale="   93.610">  5  6 -1 -1</clus>
<clus scale="  150.662">  1  7  2 -1</clus>
<clus scale="   26.636">  2  5  1 -1</clus>
</clustering>
</event>
<event>
 9    1  0.1321469E-005  0.1024288E+03  0.7546771E-02  0.1275726E+00
         21   -1    0    0  501  502  0.00000000000E+00  0.00000000000E+00  0.17216921230E+02  0.17216921230E+02  0.00000000000E+00 0. -1.
          3   -1    0    0  502    0 -0.00000000000E+00 -0.00000000000E+00 -0.86831753374E+03  0.86831753374E+03  0.00000000000E+00 0. -1.
         23    2    1    2    0    0  0.28993030796E+02  0.11359682412E+02 -0.39176112453E+03  0.40375962776E+03  0.92603564169E+02 0.  0.
         23    2    1    2    0    0 -0.58146626270E+02 -0.10735711565E+02 -0.41191104896E+03  0.42609917457E+03  0.91616093937E+02 0.  0.
        -11    1    4    4    0    0 -0.82623551713E+02 -0.48113694796E+01 -0.33917622944E+03  0.34912793527E+03  0.00000000000E+00 0. -1.
         11    1    4    4    0    0  0.24476925443E+02 -0.59243420851E+01 -0.72734819524E+02  0.76971239301E+02  0.00000000000E+00 0.  1.
        -13    1    3    3    0    0  0.92417090188E+01 -0.39880810095E+02 -0.12973065364E+03  0.13603650500E+03  0.00000000000E+00 0.  1.
         13    1    3    3    0    0  0.19751321777E+02  0.51240492507E+02 -0.26203047089E+03  0.26772312276E+03  0.00000000000E+00 0. -1.
          3    1    1    2  501    0  0.29153595474E+02 -0.62397084754E+00 -0.47428439028E+02  0.55675652644E+02  0.00000000000E+00 0. -1.
<scales pt_clust_5="13000.00000" pt_clust_6="13000.00000" pt_clust_7="13000.00000" pt_clust_8="13000.00000" pt_clust_9="29.16027"></scales>
<clustering>
<clus scale="   29.160">  1  9  2 -1</clus>
<clus scale="   91.616">  5  6 -1 -1</clus>
<clus scale="   92.604">  7  8 -1 -1</clus>
<clus scale="  101.537">  1  5  2 -1</clus>
<clus scale="   29.160">  1  5  2 -1</clus>
</clustering>
</event>
<event>
 9    1  0.1321469E-005  0.9470847E+02  0.7546771E-02  0.1292122E+00
          1   -1    0    0  502    0 -0.00000000000E+00  0.00000000000E+00  0.15800384004E+03  0.15800384004E+03  0.00000000000E+00 0. -1.
         21   -1    0    0  501  502  0.00000000000E+00 -0.00000000000E+00 -0.16351784784E+03  0.16351784784E+03  0.00000000000E+00 0. -1.
         23    2    1    2    0    0  0.40087560446E+02  0.33848213056E+02  0.52368283046E+02  0.11847940522E+03  0.92424122185E+02 0.  0.
         23    2    1    2    0    0  0.21794611156E+02  0.13647002685E+02  0.13413558377E+02  0.97362119927E+02  0.92941987770E+02 0.  0.
        -13    1    3    3    0    0  0.17889585269E+02  0.63060832546E+02  0.48592180493E+02  0.81595991737E+02  0.00000000000E+00 0. -1.
         13    1    3    3    0    0  0.22197975177E+02 -0.29212619490E+02  0.37761025533E+01  0.36883413480E+02  0.00000000000E+00 0.  1.
        -13    1    4    4    0    0  0.12947894011E+02  0.41865552533E+02 -0.23769062092E+02  0.49853192084E+02  0.00000000000E+00 0. -1.
         13    1    4    4    0    0  0.88467171446E+01 -0.28218549849E+02  0.37182620469E+02  0.47508927843E+02  0.00000000000E+00 0.  1.
          1    1    1    2  501    0 -0.61882171602E+02 -0.47495215741E+02 -0.71295849219E+02  0.10568016274E+03  0.00000000000E+00 0. -1.
<scales pt_clust_5="13000.00000" pt_clust_6="13000.00000" pt_clust_7="13000.00000" pt_clust_8="13000.00000" pt_clust_9="78.00768"></scales>
<clustering>
<clus scale="   78.008">  2  9  1 -1</clus>
<clus scale="   92.424">  5  6 -1 -1</clus>
<clus scale="   92.942">  7  8 -1 -1</clus>
<clus scale="   94.200">  1  5  2 -1</clus>
<clus scale="   78.008">  2  5  1 -1</clus>
</clustering>
</event>
<event>
 9    1  0.1321469E-005  0.1979278E+03  0.7546771E-02  0.1151907E+00
         -1   -1    0    0    0  501 -0.00000000000E+00  0.00000000000E+00  0.13051533304E+04  0.13051533304E+04  0.00000000000E+00 0.  1.
         21   -1    0    0  501  502  0.00000000000E+00 -0.00000000000E+00 -0.84667381587E+02  0.84667381587E+02  0.00000000000E+00 0. -1.
         23    2    1    2    0    0 -0.43919497592E+02  0.15817327398E+03  0.70234813280E+03  0.72620243718E+03  0.84435615942E+02 0.  0.
         23    2    1    2    0    0  0.59140883803E+02 -0.18958424370E+03  0.56486073971E+03  0.60529699901E+03  0.88752307885E+02 0.  0.
        -11    1    3    3    0    0 -0.10930568485E+02  0.13560880229E+03  0.61889684018E+03  0.63367383042E+03  0.00000000000E+00 0.  1.
         11    1    3    3    0    0 -0.32988929107E+02  0.22564471699E+02  0.83451292628E+02  0.92528606755E+02  0.00000000000E+00 0. -1.
        -13    1    4    4    0    0  0.73757880714E+02 -0.13088016544E+03  0.46367369331E+03  0.48740448966E+03  0.00000000000E+00 0.  1.
         13    1    4    4    0    0 -0.14616996912E+02 -0.58704078254E+02  0.10118704639E+03  0.11789250935E+03  0.00000000000E+00 0. -1.
         -1    1    1    2    0  502 -0.15221386211E+02  0.31410969711E+02 -0.46722923676E+02  0.58321275819E+02  0.00000000000E+00 0.  1.
<scales pt_clust_5="13000.00000" pt_clust_6="13000.00000" pt_clust_7="13000.00000" pt_clust_8="13000.00000" pt_clust_9="34.90472"></scales>
<clustering>
<clus scale="   34.905">  2  9  1 -1</clus>
<clus scale="   84.436">  5  6 -1 -1</clus>
<clus scale="   88.752">  7  8 -1 -1</clus>
<clus scale="  196.030">  1  5  2 -1</clus>
<clus scale="   34.905">  2  5  1 -1</clus>
</clustering>
</event>
<event>
 9    1  0.1321469E-005  0.9553798E+02  0.7546771E-02  0.1293661E+00
          1   -1    0    0  502    0 -0.00000000000E+00  0.00000000000E+00  0.18950715789E+03  0.18950715789E+03  0.00000000000E+00 0. -1.
         21   -1    0    0  501  502  0.00000000000E+00 -0.00000000000E+00 -0.69091125206E+02  0.69091125206E+02  0.00000000000E+00 0.  1.
         23    2    1    2    0    0  0.17927962611E+02  0.29297954042E+02  0.93377371562E+02  0.13529093291E+03  0.91676174945E+02 0.  0.
         23    2    1    2    0    0  0.90608673487E+01 -0.21209020023E+02  0.33758514131E+02  0.94342125852E+02  0.85022806273E+02 0.  0.
        -11    1    3    3    0    0  0.41011239723E+02  0.50094891154E+02  0.75453232866E+02  0.99421377245E+02  0.00000000000E+00 0. -1.
         11    1    3    3    0    0 -0.23083277112E+02 -0.20796937111E+02  0.17924138696E+02  0.35869555663E+02  0.00000000000E+00 0.  1.
        -13    1    4    4    0    0  0.83239386737E+01 -0.48270846111E+02  0.43560295755E+02  0.65550453130E+02  0.00000000000E+00 0. -1.
         13    1    4    4    0    0  0.73692867494E+00  0.27061826088E+02 -0.98017816238E+01  0.28791672722E+02  0.00000000000E+00 0.  1.
          1    1    1    2  501    0 -0.26988829960E+02 -0.80889340194E+01 -0.67198530131E+01  0.28965224333E+02  0.00000000000E+00 0. -1.
<scales pt_clust_5="13000.00000" pt_clust_6="13000.00000" pt_clust_7="13000.00000" pt_clust_8="13000.00000" pt_clust_9="28.17495"></scales>
<clustering>
<clus scale="   28.175">  2  9  1 -1</clus>
<clus scale="   85.023">  7  8 -1 -1</clus>
<clus scale="   89.173">  2  7  1 -1</clus>
<clus scale="   91.676">  5  6 -1 -1</clus>
<clus scale="   28.175">  2  5  1 -1</clus>
</clustering>
</event>
<event>
 9    1  0.1321469E-005  0.1008279E+03  0.7546771E-02  0.1278603E+00
          1   -1    0    0  502    0 -0.00000000000E+00  0.00000000000E+00  0.29528321666E+03  0.29528321666E+03  0.00000000000E+00 0. -1.
         21   -1    0    0  501  502  0.00000000000E+00 -0.00000000000E+00 -0.12858810488E+03  0.12858810488E+03  0.00000000000E+00 0. -1.
         23    2    1    2    0    0 -0.41036301417E+02  0.84574042606E+01  0.20406232330E+03  0.22728562792E+03  0.90894549592E+02 0.  0.
         23    2    1    2    0    0  0.58227663001E+02  0.58915114773E+02 -0.17532452085E+02  0.12428066671E+03  0.90977171608E+02 0.  0.
        -11    1    3    3    0    0  0.12138883354E+02 -0.24274808581E+02  0.22397480121E+02  0.35189003062E+02  0.00000000000E+00 0.  1.
         11    1    3    3    0    0 -0.53175184771E+02  0.32732212841E+02  0.18166484318E+03  0.19209662486E+03  0.00000000000E+00 0. -1.
        -13    1    4    4    0    0  0.40890529067E+02  0.42882250672E+02  0.33487226490E+02  0.68061127878E+02  0.00000000000E+00 0. -1.
         13    1    4    4    0    0  0.17337133934E+02  0.16032864101E+02 -0.51019678574E+02  0.56219538829E+02  0.00000000000E+00 0.  1.
          1    1    1    2  501    0 -0.17191361583E+02 -0.67372519034E+02 -0.19834759437E+02  0.72305026907E+02  0.00000000000E+00 0. -1.
<scales pt_clust_5="13000.00000" pt_clust_6="13000.00000" pt_clust_7="13000.00000" pt_clust_8="13000.00000" pt_clust_9="69.53128"></scales>
<clustering>
<clus scale="   69.531">  2  9  1 -1</clus>
<clus scale="   90.895">  5  6 -1 -1</clus>
<clus scale="   90.977">  7  8 -1 -1</clus>
<clus scale="  100.753">  1  5  2 -1</clus>
<clus scale="   69.531">  2  5  1 -1</clus>
</clustering>
</event>
<event>
 9    1  0.1389353E-005  0.1538909E+03  0.7546771E-02  0.1196011E+00
         21   -1    0    0  501  502  0.00000000000E+00  0.00000000000E+00  0.35729303911E+03  0.35729303911E+03  0.00000000000E+00 0. -1.
         -3   -1    0    0    0  501 -0.00000000000E+00 -0.00000000000E+00 -0.76342843173E+03  0.76342843173E+03  0.00000000000E+00 0.  1.
         23    2    1    2    0    0  0.11618010353E+03  0.40466068427E+02 -0.72724046730E+03  0.74343869194E+03  0.93204464705E+02 0.  0.
         23    2    1    2    0    0 -0.10806000475E+03 -0.21782768425E+02  0.16011321415E+03  0.21500714654E+03  0.91871530356E+02 0.  0.
        -13    1    3    3    0    0  0.64123367047E+02  0.67314069040E+02 -0.37440776485E+03  0.38577735091E+03  0.00000000000E+00 0. -1.
         13    1    3    3    0    0  0.52056736487E+02 -0.26848000614E+02 -0.35283270245E+03  0.35766134103E+03  0.00000000000E+00 0.  1.
        -13    1    4    4    0    0 -0.93837025695E+02  0.21733646263E+02  0.93978668513E+02  0.13457239281E+03  0.00000000000E+00 0.  1.
         13    1    4    4    0    0 -0.14222979055E+02 -0.43516414689E+02  0.66134545639E+02  0.80434753729E+02  0.00000000000E+00 0. -1.
         -3    1    1    2    0  502 -0.81200987843E+01 -0.18683300002E+02  0.16099186053E+03  0.16227563237E+03  0.00000000000E+00 0.  1.
<scales pt_clust_5="13000.00000" pt_clust_6="13000.00000" pt_clust_7="13000.00000" pt_clust_8="13000.00000" pt_clust_9="20.37159"></scales>
<clustering>
<clus scale="   20.372">  1  9  2 -1</clus>
<clus scale="   91.872">  7  8 -1 -1</clus>
<clus scale="   93.204">  5  6 -1 -1</clus>
<clus scale="  153.087">  1  7  2 -1</clus>
<clus scale="   20.372">  1  5  2 -1</clus>
</clustering>
</event>
<event>
 9    1  0.1321469E-005  0.8750735E+02  0.7546771E-02  0.1312411E+00
         -2   -1    0    0    0  501 -0.00000000000E+00  0.00000000000E+00  0.69003549325E+02  0.69003549325E+02  0.00000000000E+00 0.  1.
         21   -1    0    0  501  502  0.00000000000E+00 -0.00000000000E+00 -0.31247693732E+03  0.31247693732E+03  0.00000000000E+00 0.  1.
         23    2    1    2    0    0 -0.24957450687E+02 -0.63531902428E+01 -0.51109226345E+01  0.90995874621E+02  0.87125715474E+02 0.  0.
         23    2    1    2    0    0 -0.22295838357E+02 -0.17456917448E+02 -0.62441788276E+02  0.10677865355E+03  0.81858753689E+02 0.  0.
        -11    1    4    4    0    0  0.14023438164E+02 -0.20697107841E+02 -0.65576617503E+02  0.70180623067E+02  0.00000000000E+00 0. -1.
         11    1    4    4    0    0 -0.36319276521E+02  0.32401903930E+01  0.31348292274E+01  0.36598030481E+02  0.00000000000E+00 0.  1.
        -13    1    3    3    0    0  0.18409120472E+02 -0.30381289128E+02 -0.17923017891E+02  0.39788855424E+02  0.00000000000E+00 0. -1.
         13    1    3    3    0    0 -0.43366571159E+02  0.24028098886E+02  0.12812095256E+02  0.51207019197E+02  0.00000000000E+00 0.  1.
         -2    1    1    2    0  502  0.47253289044E+02  0.23810107691E+02 -0.17592067709E+03  0.18370595848E+03  0.00000000000E+00 0.  1.
<scales pt_clust_5="13000.00000" pt_clust_6="13000.00000" pt_clust_7="13000.00000" pt_clust_8="13000.00000" pt_clust_9="52.91308"></scales>
<clustering>
<clus scale="   52.913">  2  9  1 -1</clus>
<clus scale="   81.859">  5  6 -1 -1</clus>
<clus scale="   82.265">  2  5  1 -1</clus>
<clus scale="   87.126">  7  8 -1 -1</clus>
<clus scale="   52.913">  2  5  1 -1</clus>
</clustering>
</event>
<event>
 9    1  0.1321469E-005  0.1137980E+03  0.7546771E-02  0.1254686E+00
          3   -1    0    0  502    0 -0.00000000000E+00  0.00000000000E+00  0.33764722676E+03  0.33764722676E+03  0.00000000000E+00 0. -1.
         21   -1    0    0  501  502  0.00000000000E+00 -0.00000000000E+00 -0.60262042496E+02  0.60262042496E+02  0.00000000000E+00 0.  1.
         23    2    1    2    0    0 -0.53382562387E+02 -0.32656926490E+02  0.18863229066E+03  0.21780294861E+03  0.89105614468E+02 0.  0.
         23    2    1    2    0    0  0.79183507761E+02  0.22046232872E+02  0.51573584620E+02  0.13362431748E+03  0.91867074121E+02 0.  0.
        -11    1    4    4    0    0  0.23127006470E+02 -0.35425056483E+02  0.24563816323E+02  0.48920078980E+02  0.00000000000E+00 0. -1.
         11    1    4    4    0    0  0.56056501290E+02  0.57471289355E+02  0.27009768297E+02  0.84704238504E+02  0.00000000000E+00 0.  1.
        -11    1    3    3    0    0 -0.29745988016E+02  0.17600695512E+01  0.59192566194E+01  0.30380244351E+02  0.00000000000E+00 0.  1.
         11    1    3    3    0    0 -0.23636574371E+02 -0.34416996041E+02  0.18271303404E+03  0.18742270426E+03  0.00000000000E+00 0. -1.
          3    1    1    2  501    0 -0.25800945373E+02  0.10610693617E+02  0.37179308983E+02  0.46482003159E+02  0.00000000000E+00 0. -1.
<scales pt_clust_5="13000.00000" pt_clust_6="13000.00000" pt_clust_7="13000.00000" pt_clust_8="13000.00000" pt_clust_9="27.89761"></scales>
<clustering>
<clus scale="   27.898">  2  9  1 -1</clus>
<clus scale="   89.106">  7  8 -1 -1</clus>
<clus scale="   91.867">  5  6 -1 -1</clus>
<clus scale="  111.581">  1  7  2 -1</clus>
<clus scale="   27.898">  2  5  1 -1</clus>
</clustering>
</event>
<event>
 9    1  0.1321469E-005  0.1046207E+03  0.7546771E-02  0.1274346E+00
         21   -1    0    0  501  502  0.00000000000E+00  0.00000000000E+00  0.66064127065E+02  0.66064127065E+02  0.00000000000E+00 0.  1.
         -2   -1    0    0    0  501 -0.00000000000E+00 -0.00000000000E+00 -0.53792797126E+03  0.53792797126E+03  0.00000000000E+00 0.  1.
         23    2    1    2    0    0  0.52679671986E+02  0.16553253277E+01 -0.37601525089E+03  0.39221181554E+03  0.98309467548E+02 0.  0.
         23    2    1    2    0    0  0.10453449795E+02 -0.32694980666E+02 -0.10222445879E+03  0.14114103781E+03  0.91064351997E+02 0.  0.
        -13    1    4    4    0    0  0.22034806396E+02  0.26446972085E+02 -0.22196125012E+02  0.40959040405E+02  0.00000000000E+00 0.  1.
         13    1    4    4    0    0 -0.11581356601E+02 -0.59141952750E+02 -0.80028333781E+02  0.10018199740E+03  0.00000000000E+00 0. -1.
        -13    1    3    3    0    0  0.51639683945E+02 -0.36124316780E+02 -0.30818971430E+03  0.31456719985E+03  0.00000000000E+00 0.  1.
         13    1    3    3    0    0  0.10399880410E+01  0.37779642108E+02 -0.67825536586E+02  0.77644615693E+02  0.00000000000E+00 0. -1.
         -2    1    1    2    0  502 -0.63133121781E+02  0.31039655338E+02  0.63758654882E+01  0.70639244971E+02  0.00000000000E+00 0.  1.
<scales pt_clust_5="13000.00000" pt_clust_6="13000.00000" pt_clust_7="13000.00000" pt_clust_8="13000.00000" pt_clust_9="70.35092"></scales>
<clustering>
<clus scale="   70.351">  1  9  2 -1</clus>
<clus scale="   91.064">  5  6 -1 -1</clus>
<clus scale="   97.844">  1  5  2 -1</clus>
<clus scale="   98.309">  7  8 -1 -1</clus>
<clus scale="   70.351">  1  5  2 -1</clus>
</clustering>
</event>
<event>
 9    1  0.1321469E-005  0.1484529E+03  0.7546771E-02  0.1224210E+00
         -2   -1    0    0    0  501 -0.00000000000E+00  0.00000000000E+00  0.25821313677E+03  0.25821313677E+03  0.00000000000E+00 0.  1.
         21   -1    0    0  501  502  0.00000000000E+00 -0.00000000000E+00 -0.14469945888E+03  0.14469945888E+03  0.00000000000E+00 0. -1.
         23    2    1    2    0    0  0.17734885852E+02  0.64773192493E+00  0.74687931047E+02  0.11958543992E+03  0.91692118873E+02 0.  0.
         23    2    1    2    0    0  0.32943613811E+02  0.10701413063E+03  0.69347114246E+02  0.16048196517E+03  0.91695872572E+02 0.  0.
        -11    1    3    3    0    0  0.18219512054E+01 -0.41937508876E+02  0.15044320155E+02  0.44591543210E+02  0.00000000000E+00 0.  1.
         11    1    3    3    0    0  0.15912934647E+02  0.42585240801E+02  0.59643610892E+02  0.74993896708E+02  0.00000000000E+00 0. -1.
        -13    1    4    4    0    0  0.64640442996E+02  0.67127421657E+02  0.37845319582E+02  0.10058203529E+03  0.00000000000E+00 0. -1.
         13    1    4    4    0    0 -0.31696829185E+02  0.39886708970E+02  0.31501794665E+02  0.59899929883E+02  0.00000000000E+00 0.  1.
         -2    1    1    2    0  502 -0.50678499663E+02 -0.10766186255E+03 -0.30521367400E+02  0.12284519056E+03  0.00000000000E+00 0.  1.
<scales pt_clust_5="13000.00000" pt_clust_6="13000.00000" pt_clust_7="13000.00000" pt_clust_8="13000.00000" pt_clust_9="116.74816"></scales>
<clustering>
<clus scale="   91.692">  5  6 -1 -1</clus>
<clus scale="   91.696">  7  8 -1 -1</clus>
<clus scale="   93.394">  1  5  2 -1</clus>
<clus scale="  116.748">  2  9  1 -1</clus>
<clus scale="  116.748">  2  5  1 -1</clus>
</clustering>
</event>
<event>
 9    1  0.1321469E-005  0.1525818E+03  0.7546771E-02  0.1219127E+00
         21   -1    0    0  501  502  0.00000000000E+00  0.00000000000E+00  0.35277094846E+03  0.35277094846E+03  0.00000000000E+00 0.  1.
          1   -1    0    0  502    0 -0.00000000000E+00 -0.00000000000E+00 -0.11378027714E+03  0.11378027714E+03  0.00000000000E+00 0. -1.
         23    2    1    2    0    0 -0.19367116927E+02  0.23538481353E+01  0.23619123265E+02  0.98546978211E+02  0.93664390841E+02 0.  0.
         23    2    1    2    0    0 -0.10802830675E+03 -0.27352913461E+01  0.32430879287E+02  0.14507594556E+03  0.91201267371E+02 0.  0.
        -11    1    4    4    0    0 -0.18467745288E+01 -0.21346685381E+02 -0.16153393885E+02  0.26833257106E+02  0.00000000000E+00 0. -1.
         11    1    4    4    0    0 -0.10618153222E+03  0.18611394035E+02  0.48584273172E+02  0.11824268845E+03  0.00000000000E+00 0.  1.
        -11    1    3    3    0    0 -0.40283776814E+02  0.34192411338E+02 -0.15971714527E+01  0.52862601375E+02  0.00000000000E+00 0.  1.
         11    1    3    3    0    0  0.20916659887E+02 -0.31838563203E+02  0.25216294718E+02  0.45684376836E+02  0.00000000000E+00 0. -1.
          1    1    1    2  501    0  0.12739542367E+03  0.38144321085E+00  0.18294066877E+03  0.22292830184E+03  0.00000000000E+00 0. -1.
<scales pt_clust_5="13000.00000" pt_clust_6="13000.00000" pt_clust_7="13000.00000" pt_clust_8="13000.00000" pt_clust_9="122.32558"></scales>
<clustering>
<clus scale="   91.201">  5  6 -1 -1</clus>
<clus scale="   93.664">  7  8 -1 -1</clus>
<clus scale="   95.675">  2  7  1 -1</clus>
<clus scale="  122.326">  1  9  2 -1</clus>
<clus scale="  122.326">  1  5  2 -1</clus>
</clustering>
</event>
<event>
 9    1  0.1321469E-005  0.1565232E+03  0.7546771E-02  0.1199989E+00
         21   -1    0    0  501  502  0.00000000000E+00  0.00000000000E+00  0.86071753340E+02  0.86071753340E+02  0.00000000000E+00 0.  1.
         -1   -1    0    0    0  501 -0.00000000000E+00 -0.00000000000E+00 -0.89130141895E+03  0.89130141895E+03  0.00000000000E+00 0.  1.
         23    2    1    2    0    0  0.20869855539E+01  0.87137713181E+02 -0.47727660889E+03  0.49360576364E+03  0.90864470158E+02 0.  0.
         23    2    1    2    0    0 -0.23574975858E+01 -0.12155874426E+03 -0.38232308246E+03  0.41941695989E+03  0.12230110693E+03 0.  0.
        -11    1    4    4    0    0  0.43914018267E+02 -0.56150047362E+02 -0.82293524375E+02  0.10887374786E+03  0.00000000000E+00 0. -1.
         11    1    4    4    0    0 -0.46271515853E+02 -0.65408696895E+02 -0.30002955809E+03  0.31054321203E+03  0.00000000000E+00 0.  1.
        -11    1    3    3    0    0 -0.44111658599E+02  0.37479315028E+02 -0.23376792228E+03  0.24082769560E+03  0.00000000000E+00 0.  1.
         11    1    3    3    0    0  0.46198644153E+02  0.49658398153E+02 -0.24350868662E+03  0.25277806805E+03  0.00000000000E+00 0. -1.
         -1    1    1    2    0  502  0.27051203190E+00  0.34421031075E+02  0.54370025743E+02  0.64350448765E+02  0.00000000000E+00 0.  1.
<scales pt_clust_5="13000.00000" pt_clust_6="13000.00000" pt_clust_7="13000.00000" pt_clust_8="13000.00000" pt_clust_9="34.42209"></scales>
<clustering>
<clus scale="   34.422">  1  9  2 -1</clus>
<clus scale="   90.864">  7  8 -1 -1</clus>
<clus scale="  122.301">  5  6 -1 -1</clus>
<clus scale="  133.410">  2  7  1 -1</clus>
<clus scale="   34.422">  1  5  2 -1</clus>
</clustering>
</event>
<event>
 9    1  0.1321469E-005  0.1227410E+03  0.7546771E-02  0.1240929E+00
         21   -1    0    0  501  502  0.00000000000E+00  0.00000000000E+00  0.96226911070E+02  0.96226911070E+02  0.00000000000E+00 0.  1.
          2   -1    0    0  502    0 -0.00000000000E+00 -0.00000000000E+00 -0.32498544487E+03  0.32498544487E+03  0.00000000000E+00 0. -1.
         23    2    1    2    0    0  0.71262708691E+02  0.24447958270E+02 -0.22331138902E+03  0.25093889623E+03  0.86175848477E+02 0.  0.
         23    2    1    2    0    0 -0.88692317373E+02 -0.49494779210E+02  0.44370845348E+01  0.13819804098E+03  0.93610632304E+02 0.  0.
        -11    1    4    4    0    0 -0.31377010145E+02 -0.73649215502E+01  0.45731243475E+02  0.55947345467E+02  0.00000000000E+00 0.  1.
         11    1    4    4    0    0 -0.57315307228E+02 -0.42129857660E+02 -0.41294158940E+02  0.82250695508E+02  0.00000000000E+00 0. -1.
        -13    1    3    3    0    0  0.91015200554E+02  0.14871459864E+02 -0.17295899749E+03  0.19600954533E+03  0.00000000000E+00 0. -1.
         13    1    3    3    0    0 -0.19752491863E+02  0.95764984068E+01 -0.50352391532E+02  0.54929350893E+02  0.00000000000E+00 0.  1.
          2    1    1    2  501    0  0.17429608682E+02  0.25046820940E+02 -0.98842293161E+01  0.32075418737E+02  0.00000000000E+00 0. -1.
<scales pt_clust_5="13000.00000" pt_clust_6="13000.00000" pt_clust_7="13000.00000" pt_clust_8="13000.00000" pt_clust_9="30.51450"></scales>
<clustering>
<clus scale="   30.514">  1  9  2 -1</clus>
<clus scale="   86.176">  7  8 -1 -1</clus>
<clus scale="   93.611">  5  6 -1 -1</clus>
<clus scale="  117.169">  2  7  1 -1</clus>
<clus scale="   30.514">  1  5  2 -1</clus>
</clustering>
</event>
<event>
 9    1  0.1321469E-005  0.9213876E+02  0.7546771E-02  0.1298316E+00
         21   -1    0    0  501  502  0.00000000000E+00  0.00000000000E+00  0.16383850495E+03  0.16383850495E+03  0.00000000000E+00 0.  1.
          3   -1    0    0  502    0 -0.00000000000E+00 -0.00000000000E+00 -0.14693331405E+03  0.14693331405E+03  0.00000000000E+00 0. -1.
         23    2    1    2    0    0  0.15553152454E+02 -0.11427602415E+02 -0.94965658490E+02  0.13197350215E+03  0.89588159540E+02 0.  0.
         23    2    1    2    0    0 -0.20052574863E+02 -0.26872138041E+02  0.58331161925E+02  0.11281640224E+03  0.90558260812E+02 0.  0.
        -13    1    3    3    0    0 -0.29903814852E+02  0.86947711834E+01 -0.85752065363E+01  0.32301259353E+02  0.00000000000E+00 0.  1.
         13    1    3    3    0    0  0.45456967306E+02 -0.20122373599E+02 -0.86390451954E+02  0.99672242800E+02  0.00000000000E+00 0. -1.
        -13    1    4    4    0    0 -0.36443229142E+02 -0.53105599885E+02  0.30743834364E+02  0.71368739942E+02  0.00000000000E+00 0.  1.
         13    1    4    4    0    0  0.16390654279E+02  0.26233461844E+02  0.27587327561E+02  0.41447662298E+02  0.00000000000E+00 0. -1.
          3    1    1    2  501    0  0.44994224088E+01  0.38299740457E+02  0.53539687464E+02  0.65981914604E+02  0.00000000000E+00 0. -1.
<scales pt_clust_5="13000.00000" pt_clust_6="13000.00000" pt_clust_7="13000.00000" pt_clust_8="13000.00000" pt_clust_9="38.56313"></scales>
<clustering>
<clus scale="   38.563">  1  9  2 -1</clus>
<clus scale="   89.588">  5  6 -1 -1</clus>
<clus scale="   90.558">  7  8 -1 -1</clus>
<clus scale="   91.185">  2  5  1 -1</clus>
<clus scale="   38.563">  1  5  2 -1</clus>
</clustering>
</event>
<event>
 9    1  0.1321469E-005  0.1429835E+03  0.7546771E-02  0.1218210E+00
          1   -1    0    0  502    0 -0.00000000000E+00  0.00000000000E+00  0.87932505432E+03  0.87932505432E+03  0.00000000000E+00 0. -1.
         21   -1    0    0  501  502  0.00000000000E+00 -0.00000000000E+00 -0.44726996072E+02  0.44726996072E+02  0.00000000000E+00 0.  1.
         23    2    1    2    0    0 -0.41344704595E+02  0.62114417850E+02  0.17921682570E+03  0.21486680385E+03  0.92094990515E+02 0.  0.
         23    2    1    2    0    0  0.48964312645E+02  0.67526161106E+02  0.44802309875E+03  0.46451785233E+03  0.89971394209E+02 0.  0.
        -11    1    3    3    0    0 -0.64060868433E+02  0.46627553633E+02  0.16687622814E+03  0.18473115368E+03  0.00000000000E+00 0.  1.
         11    1    3    3    0    0  0.22716163838E+02  0.15486864217E+02  0.12340597563E+02  0.30135650167E+02  0.00000000000E+00 0. -1.
        -11    1    4    4    0    0  0.33046897914E+02  0.22013837599E+01  0.44722814645E+02  0.55651358491E+02  0.00000000000E+00 0. -1.
         11    1    4    4    0    0  0.15917414732E+02  0.65324777346E+02  0.40330028410E+03  0.40886649384E+03  0.00000000000E+00 0.  1.
          1    1    1    2  501    0 -0.76196080503E+01 -0.12964057896E+03  0.20735813380E+03  0.24466739421E+03  0.00000000000E+00 0. -1.
<scales pt_clust_5="13000.00000" pt_clust_6="13000.00000" pt_clust_7="13000.00000" pt_clust_8="13000.00000" pt_clust_9="111.12800"></scales>
<clustering>
<clus scale="   89.971">  7  8 -1 -1</clus>
<clus scale="   92.095">  5  6 -1 -1</clus>
<clus scale="  118.529">  1  5  2 -1</clus>
<clus scale="  111.128">  2  9  1 -1</clus>
<clus scale="  111.128">  2  5  1 -1</clus>
</clustering>
</event>
<event>
 9    1  0.1321469E-005  0.2080695E+03  0.7546771E-02  0.1143225E+00
          1   -1    0    0  502    0 -0.00000000000E+00  0.00000000000E+00  0.80260724623E+03  0.80260724623E+03  0.00000000000E+00 0. -1.
         21   -1    0    0  501  502  0.00000000000E+00 -0.00000000000E+00 -0.10135434416E+03  0.10135434416E+03  0.00000000000E+00 0. -1.
         23    2    1    2    0    0  0.19665495034E+02  0.17363770114E+03  0.44532230798E+03  0.48684174294E+03  0.90366706976E+02 0.  0.
         23    2    1    2    0    0  0.33606423826E+02 -0.21599351346E+03  0.25621247788E+03  0.34906111080E+03  0.91740044004E+02 0.  0.
        -11    1    4    4    0    0  0.47630802675E+02 -0.49790950385E+02  0.58478280988E+02  0.90374451318E+02  0.00000000000E+00 0.  1.
         11    1    4    4    0    0 -0.14024378848E+02 -0.16620256307E+03  0.19773419689E+03  0.25868665948E+03  0.00000000000E+00 0. -1.
        -13    1    3    3    0    0 -0.34194964495E+02  0.39861785942E+02  0.11879924253E+03  0.12989040611E+03  0.00000000000E+00 0.  1.
         13    1    3    3    0    0  0.53860459529E+02  0.13377591520E+03  0.32652306545E+03  0.35695133683E+03  0.00000000000E+00 0. -1.
          1    1    1    2  501    0 -0.53271918860E+02  0.42355812313E+02 -0.28188379242E+00  0.68058736649E+02  0.00000000000E+00 0. -1.
<scales pt_clust_5="13000.00000" pt_clust_6="13000.00000" pt_clust_7="13000.00000" pt_clust_8="13000.00000" pt_clust_9="68.05815"></scales>
<clustering>
<clus scale="   68.058">  2  9  1 -1</clus>
<clus scale="   90.367">  7  8 -1 -1</clus>
<clus scale="   91.740">  5  6 -1 -1</clus>
<clus scale="  207.468">  1  7  2 -1</clus>
<clus scale="   68.058">  2  5  1 -1</clus>
</clustering>
</event>
<event>
 9    1  0.1321469E-005  0.1480651E+03  0.7546771E-02  0.1219094E+00
         21   -1    0    0  501  502  0.00000000000E+00  0.00000000000E+00  0.42095300354E+03  0.42095300354E+03  0.00000000000E+00 0. -1.
          1   -1    0    0  502    0 -0.00000000000E+00 -0.00000000000E+00 -0.29487707645E+03  0.29487707645E+03  0.00000000000E+00 0. -1.
         23    2    1    2    0    0  0.34948336781E+02 -0.41708028160E+02  0.77173067756E+02  0.13012683749E+03  0.89534158799E+02 0.  0.
         23    2    1    2    0    0  0.82714286933E+02  0.47231303414E+02 -0.23986600197E+03  0.27383395122E+03  0.91525322483E+02 0.  0.
        -11    1    4    4    0    0  0.54839638126E+02  0.66941792238E+02 -0.21451278065E+03  0.23131001388E+03  0.00000000000E+00 0. -1.
         11    1    4    4    0    0  0.27874648807E+02 -0.19710488824E+02 -0.25353221314E+02  0.42523937339E+02  0.00000000000E+00 0.  1.
        -13    1    3    3    0    0  0.60035696620E+01 -0.64911495037E+02  0.62262611952E+02  0.90145315373E+02  0.00000000000E+00 0.  1.
         13    1    3    3    0    0  0.28944767119E+02  0.23203466876E+02  0.14910455804E+02  0.39981522119E+02  0.00000000000E+00 0. -1.
          1    1    1    2  501    0 -0.11766262371E+03 -0.55232752535E+01  0.28876886130E+03  0.31186929128E+03  0.00000000000E+00 0. -1.
<scales pt_clust_5="13000.00000" pt_clust_6="13000.00000" pt_clust_7="13000.00000" pt_clust_8="13000.00000" pt_clust_9="116.38897"></scales>
<clustering>
<clus scale="   89.534">  7  8 -1 -1</clus>
<clus scale="   91.525">  5  6 -1 -1</clus>
<clus scale="  104.773">  2  7  1 -1</clus>
<clus scale="  116.389">  1  9  2 -1</clus>
<clus scale="  116.389">  1  5  2 -1</clus>
</clustering>
</event>
<event>
 9    1  0.1321469E-005  0.1420267E+03  0.7546771E-02  0.1210862E+00
          1   -1    0    0  502    0 -0.00000000000E+00  0.00000000000E+00  0.33532002345E+03  0.33532002345E+03  0.00000000000E+00 0. -1.
         21   -1    0    0  501  502  0.00000000000E+00 -0.00000000000E+00 -0.14844111411E+03  0.14844111411E+03  0.00000000000E+00 0. -1.
         23    2    1    2    0    0 -0.85791366644E+00  0.13464143402E+03  0.17456419541E+03  0.23890817042E+03  0.92061956340E+02 0.  0.
         23    2    1    2    0    0 -0.76992921038E+02 -0.49257155672E+02  0.87705295053E+01  0.12925111293E+03  0.90965656875E+02 0.  0.
        -11    1    4    4    0    0 -0.95046454429E+02 -0.26334869189E+02 -0.52295003752E+00  0.98628734715E+02  0.00000000000E+00 0. -1.
         11    1    4    4    0    0  0.18053533391E+02 -0.22922286482E+02  0.92934795428E+01  0.30622378214E+02  0.00000000000E+00 0.  1.
        -13    1    3    3    0    0  0.43140513864E+02  0.51201118516E+02  0.90367676767E+02  0.11246766414E+03  0.00000000000E+00 0.  1.
         13    1    3    3    0    0 -0.43998427530E+02  0.83440315504E+02  0.84196518638E+02  0.12644050628E+03  0.00000000000E+00 0. -1.
          1    1    1    2  501    0  0.77850834705E+02 -0.85384278348E+02  0.35441844291E+01  0.11560185421E+03  0.00000000000E+00 0. -1.
<scales pt_clust_5="13000.00000" pt_clust_6="13000.00000" pt_clust_7="13000.00000" pt_clust_8="13000.00000" pt_clust_9="115.54751"></scales>
<clustering>
<clus scale="   90.966">  5  6 -1 -1</clus>
<clus scale="   92.062">  7  8 -1 -1</clus>
<clus scale="  115.548">  2  9  1 -1</clus>
<clus scale="  141.319">  2  5  1 -1</clus>
<clus scale="  115.548">  2  5  1 -1</clus>
</clustering>
</event>
<event>
 9    1  0.1321469E-005  0.2337321E+03  0.7546771E-02  0.1124113E+00
          1   -1    0    0  502    0 -0.00000000000E+00  0.00000000000E+00  0.17791923268E+04  0.17791923268E+04  0.00000000000E+00 0. -1.
         21   -1    0    0  501  502  0.00000000000E+00 -0.00000000000E+00 -0.91744591488E+02  0.91744591488E+02  0.00000000000E+00 0. -1.
         23    2    1    2    0    0  0.25056558269E+03  0.10306947940E+03  0.12237092799E+04  0.12567242031E+04  0.92113473029E+02 0.  0.
         23    2    1    2    0    0 -0.15515485203E+03 -0.28466281037E+02  0.45808917000E+03  0.49296602804E+03  0.91029994306E+02 0.  0.
        -11    1    3    3    0    0  0.11922164297E+03  0.28016681642E+01  0.44719390804E+03  0.46282182412E+03  0.00000000000E+00 0.  1.
         11    1    3    3    0    0  0.13134393972E+03  0.10026781124E+03  0.77651537191E+03  0.79390237894E+03  0.00000000000E+00 0. -1.
        -13    1    4    4    0    0 -0.91043243074E+02 -0.61558578769E+02  0.26954196714E+03  0.29108624629E+03  0.00000000000E+00 0. -1.
         13    1    4    4    0    0 -0.64111608957E+02  0.33092297732E+02  0.18854720286E+03  0.20187978175E+03  0.00000000000E+00 0.  1.
          1    1    1    2  501    0 -0.95410730654E+02 -0.74603198365E+02  0.56492853653E+01  0.12124668719E+03  0.00000000000E+00 0. -1.
<scales pt_clust_5="13000.00000" pt_clust_6="13000.00000" pt_clust_7="13000.00000" pt_clust_8="13000.00000" pt_clust_9="121.11501"></scales>
<clustering>
<clus scale="   91.030">  7  8 -1 -1</clus>
<clus scale="   92.113">  5  6 -1 -1</clus>
<clus scale="  121.115">  2  9  1 -1</clus>
<clus scale="  233.307">  2  7  1 -1</clus>
<clus scale="  121.115">  2  5  1 -1</clus>
</clustering>
</event>
<event>
 9    1  0.1321469E-005  0.1372909E+03  0.7546771E-02  0.1236847E+00
         -3   -1    0    0    0  501 -0.00000000000E+00  0.00000000000E+00  0.69931330215E+02  0.69931330215E+02  0.00000000000E+00 0.  1.
         21   -1    0    0  501  502  0.00000000000E+00 -0.00000000000E+00 -0.64957669943E+03  0.64957669943E+03  0.00000000000E+00 0.  1.
         23    2    1    2    0    0  0.18505454098E+01  0.17507596677E+02 -0.13369067265E+02  0.91954004223E+02  0.89257304874E+02 0.  0.
         23    2    1    2    0    0  0.39009000418E+02  0.71453223367E+02 -0.13893788416E+03  0.18914593550E+03  0.99222900678E+02 0.  0.
        -11    1    4    4    0    0  0.60929934335E+01  0.88823257350E+02 -0.81486837913E+02  0.12069300049E+03  0.00000000000E+00 0.  1.
         11    1    4    4    0    0  0.32916006985E+02 -0.17370033983E+02 -0.57451046243E+02  0.68452935005E+02  0.00000000000E+00 0. -1.
        -13    1    3    3    0    0 -0.39749475799E+02 -0.52143071935E+01 -0.18732516452E+02  0.44250615797E+02  0.00000000000E+00 0. -1.
         13    1    3    3    0    0  0.41600021209E+02  0.22721903871E+02  0.53634491868E+01  0.47703388426E+02  0.00000000000E+00 0.  1.
         -3    1    1    2    0  502 -0.40859545828E+02 -0.88960820044E+02 -0.42733841779E+03  0.43840808992E+03  0.00000000000E+00 0.  1.
<scales pt_clust_5="13000.00000" pt_clust_6="13000.00000" pt_clust_7="13000.00000" pt_clust_8="13000.00000" pt_clust_9="94.88737"></scales>
<clustering>
<clus scale="   89.257">  7  8 -1 -1</clus>
<clus scale="   90.977">  1  7  2 -1</clus>
<clus scale="   94.887">  2  9  1 -1</clus>
<clus scale="   99.223">  5  6 -1 -1</clus>
<clus scale="   94.887">  2  5  1 -1</clus>
</clustering>
</event>
<event>
 9    1  0.1321469E-005  0.1239302E+03  0.7546771E-02  0.1237511E+00
         21   -1    0    0  501  502  0.00000000000E+00  0.00000000000E+00  0.18601659344E+03  0.18601659344E+03  0.00000000000E+00 0.  1.
         -1   -1    0    0    0  501 -0.00000000000E+00 -0.00000000000E+00 -0.21304759578E+03  0.21304759578E+03  0.00000000000E+00 0.  1.
         23    2    1    2    0    0  0.74323010102E+02  0.51634844491E+02 -0.11474532629E+03  0.17335548989E+03  0.93250034713E+02 0.  0.
         23    2    1    2    0    0 -0.48904439475E+02 -0.46991094466E+02 -0.19942331360E+02  0.11499454676E+03  0.90698633089E+02 0.  0.
        -13    1    3    3    0    0  0.42626386184E+02  0.70246278301E+02 -0.10845190034E+03  0.13606381996E+03  0.00000000000E+00 0.  1.
         13    1    3    3    0    0  0.31696623918E+02 -0.18611433810E+02 -0.62934259503E+01  0.37291669934E+02  0.00000000000E+00 0. -1.
        -13    1    4    4    0    0  0.55445631433E+01  0.22607086009E+02 -0.12224565985E+02  0.26291871972E+02  0.00000000000E+00 0.  1.
         13    1    4    4    0    0 -0.54449002618E+02 -0.69598180475E+02 -0.77177653750E+01  0.88702674784E+02  0.00000000000E+00 0. -1.
         -1    1    1    2    0  502 -0.25418570628E+02 -0.46437500252E+01  0.10765665531E+03  0.11071415257E+03  0.00000000000E+00 0.  1.
<scales pt_clust_5="13000.00000" pt_clust_6="13000.00000" pt_clust_7="13000.00000" pt_clust_8="13000.00000" pt_clust_9="25.83928"></scales>
<clustering>
<clus scale="   25.839">  1  9  2 -1</clus>
<clus scale="   90.699">  7  8 -1 -1</clus>
<clus scale="   93.250">  5  6 -1 -1</clus>
<clus scale="  122.022">  1  7  2 -1</clus>
<clus scale="   25.839">  1  5  2 -1</clus>
</clustering>
</event>
<event>
 9    1  0.1321469E-005  0.1022031E+03  0.7546771E-02  0.1277574E+00
          2   -1    0    0  502    0 -0.00000000000E+00  0.00000000000E+00  0.22652419623E+03  0.22652419623E+03  0.00000000000E+00 0. -1.
         21   -1    0    0  501  502  0.00000000000E+00 -0.00000000000E+00 -0.41598305067E+03  0.41598305067E+03  0.00000000000E+00 0. -1.
         23    2    1    2    0    0 -0.37249927265E+02 -0.26304034821E+02  0.19572245349E+03  0.21955042650E+03  0.88406174266E+02 0.  0.
         23    2    1    2    0    0  0.35058629883E+01  0.34096973328E+02 -0.11875058356E+03  0.15428467326E+03  0.92342648014E+02 0.  0.
        -11    1    4    4    0    0 -0.32905056960E+02 -0.30364653198E+01 -0.11323207267E+02  0.34931045189E+02  0.00000000000E+00 0. -1.
         11    1    4    4    0    0  0.36410919948E+02  0.37133438648E+02 -0.10742737629E+03  0.11935362807E+03  0.00000000000E+00 0.  1.
        -11    1    3    3    0    0  0.28047621034E+01 -0.49991970456E+02  0.75082908529E+02  0.90246922128E+02  0.00000000000E+00 0.  1.
         11    1    3    3    0    0 -0.40054689369E+02  0.23687935635E+02  0.12063954496E+03  0.12930350437E+03  0.00000000000E+00 0. -1.
          2    1    1    2  501    0  0.33744064277E+02 -0.77929385067E+01 -0.26643072436E+03  0.26867214714E+03  0.00000000000E+00 0. -1.
<scales pt_clust_5="13000.00000" pt_clust_6="13000.00000" pt_clust_7="13000.00000" pt_clust_8="13000.00000" pt_clust_9="34.63224"></scales>
<clustering>
<clus scale="   34.632">  2  9  1 -1</clus>
<clus scale="   88.406">  7  8 -1 -1</clus>
<clus scale="   92.343">  5  6 -1 -1</clus>
<clus scale="   98.661">  1  7  2 -1</clus>
<clus scale="   34.632">  2  5  1 -1</clus>
</clustering>
</event>
<event>
 9    1  0.1321469E-005  0.9459081E+02  0.7546771E-02  0.1292429E+00
         21   -1    0    0  501  502  0.00000000000E+00  0.00000000000E+00  0.38865888233E+03  0.38865888233E+03  0.00000000000E+00 0.  1.
         -1   -1    0    0    0  501 -0.00000000000E+00 -0.00000000000E+00 -0.15129805045E+03  0.15129805045E+03  0.00000000000E+00 0.  1.
         23    2    1    2    0    0 -0.15655433779E+02  0.25624772548E+02 -0.11086016211E+03  0.14643791814E+03  0.90842538234E+02 0.  0.
         23    2    1    2    0    0 -0.51359476858E+02 -0.17212683192E+02  0.14360401074E+03  0.17804309642E+03  0.90239458979E+02 0.  0.
        -11    1    3    3    0    0 -0.48418081791E+02  0.32324406643E+02 -0.89464727671E+02  0.10673853759E+03  0.00000000000E+00 0.  1.
         11    1    3    3    0    0  0.32762648012E+02 -0.66996340954E+01 -0.21395434434E+02  0.39699380554E+02  0.00000000000E+00 0. -1.
        -11    1    4    4    0    0 -0.62743057284E+02 -0.41276703140E+02  0.12404681179E+03  0.14501058229E+03  0.00000000000E+00 0.  1.
         11    1    4    4    0    0  0.11383580426E+02  0.24064019948E+02  0.19557198951E+02  0.33032514136E+02  0.00000000000E+00 0. -1.
         -1    1    1    2    0  502  0.67014910636E+02 -0.84120893557E+01  0.20461698325E+03  0.21547591821E+03  0.00000000000E+00 0.  1.
<scales pt_clust_5="13000.00000" pt_clust_6="13000.00000" pt_clust_7="13000.00000" pt_clust_8="13000.00000" pt_clust_9="67.54081"></scales>
<clustering>
<clus scale="   67.541">  1  9  2 -1</clus>
<clus scale="   90.239">  7  8 -1 -1</clus>
<clus scale="   90.843">  5  6 -1 -1</clus>
<clus scale="   94.012">  1  7  2 -1</clus>
<clus scale="   67.541">  1  5  2 -1</clus>
</clustering>
</event>
<event>
 9    1  0.1321469E-005  0.9663473E+02  0.7546771E-02  0.1289292E+00
         21   -1    0    0  501  502  0.00000000000E+00  0.00000000000E+00  0.17019380993E+03  0.17019380993E+03  0.00000000000E+00 0. -1.
         -1   -1    0    0    0  501 -0.00000000000E+00 -0.00000000000E+00 -0.72595484054E+02  0.72595484054E+02  0.00000000000E+00 0.  1.
         23    2    1    2    0    0  0.33701948089E+02  0.10738209813E+02  0.14856207130E+02  0.97090510858E+02  0.89189292818E+02 0.  0.
         23    2    1    2    0    0 -0.13683018722E+02 -0.13947051702E+02  0.49313116199E+02  0.10660207725E+03  0.92468774144E+02 0.  0.
        -13    1    4    4    0    0  0.24883146788E+02  0.26890271712E+02  0.29510451448E+02  0.47043856681E+02  0.00000000000E+00 0.  1.
         13    1    4    4    0    0 -0.38566165510E+02 -0.40837323414E+02  0.19802664752E+02  0.59558220566E+02  0.00000000000E+00 0. -1.
        -13    1    3    3    0    0 -0.28431919485E+02  0.16507738726E+02 -0.28785576478E+00  0.32877991794E+02  0.00000000000E+00 0.  1.
         13    1    3    3    0    0  0.62133867574E+02 -0.57695289127E+01  0.15144062895E+02  0.64212519064E+02  0.00000000000E+00 0. -1.
         -1    1    1    2    0  502 -0.20018929367E+02  0.32088418891E+01  0.33429002544E+02  0.39096705876E+02  0.00000000000E+00 0.  1.
<scales pt_clust_5="13000.00000" pt_clust_6="13000.00000" pt_clust_7="13000.00000" pt_clust_8="13000.00000" pt_clust_9="20.27447"></scales>
<clustering>
<clus scale="   20.274">  1  9  2 -1</clus>
<clus scale="   89.189">  7  8 -1 -1</clus>
<clus scale="   92.469">  5  6 -1 -1</clus>
<clus scale="   93.501">  2  7  1 -1</clus>
<clus scale="   20.274">  1  5  2 -1</clus>
</clustering>
</event>
<event>
 9    1  0.1321469E-005  0.9960510E+02  0.7546771E-02  0.1281492E+00
         21   -1    0    0  501  502  0.00000000000E+00  0.00000000000E+00  0.13369325977E+03  0.13369325977E+03  0.00000000000E+00 0. -1.
          1   -1    0    0  502    0 -0.00000000000E+00 -0.00000000000E+00 -0.25458563854E+03  0.25458563854E+03  0.00000000000E+00 0. -1.
         23    2    1    2    0    0 -0.82128299125E+01  0.48662824580E+01 -0.11084968381E+03  0.14738258378E+03  0.96658379468E+02 0.  0.
         23    2    1    2    0    0  0.35798650724E+02 -0.21515551980E+02 -0.10036521975E+03  0.14499879544E+03  0.95953170727E+02 0.  0.
        -11    1    3    3    0    0 -0.34400546246E+02  0.21286081877E+02 -0.96789140779E+01  0.41595387261E+02  0.00000000000E+00 0.  1.
         11    1    3    3    0    0  0.26187716333E+02 -0.16419799419E+02 -0.10117076973E+03  0.10578719652E+03  0.00000000000E+00 0. -1.
        -13    1    4    4    0    0 -0.19943070752E+02 -0.31216441426E+02 -0.73624814968E+02  0.82418478908E+02  0.00000000000E+00 0.  1.
         13    1    4    4    0    0  0.55741721476E+02  0.97008894463E+01 -0.26740404782E+02  0.62580316531E+02  0.00000000000E+00 0. -1.
          1    1    1    2  501    0 -0.27585820812E+02  0.16649269522E+02  0.90322524786E+02  0.95897519098E+02  0.00000000000E+00 0. -1.
<scales pt_clust_5="13000.00000" pt_clust_6="13000.00000" pt_clust_7="13000.00000" pt_clust_8="13000.00000" pt_clust_9="32.22073"></scales>
<clustering>
<clus scale="   32.221">  1  9  2 -1</clus>
<clus scale="   95.953">  7  8 -1 -1</clus>
<clus scale="   96.658">  5  6 -1 -1</clus>
<clus scale="   98.921">  1  7  2 -1</clus>
<clus scale="   32.221">  1  5  2 -1</clus>
</clustering>
</event>
<event>
 9    1  0.1321469E-005  0.1396912E+03  0.7546771E-02  0.1213776E+00
         -4   -1    0    0    0  501 -0.00000000000E+00  0.00000000000E+00  0.20910161011E+03  0.20910161011E+03  0.00000000000E+00 0.  1.
         21   -1    0    0  501  502  0.00000000000E+00 -0.00000000000E+00 -0.14708646530E+03  0.14708646530E+03  0.00000000000E+00 0. -1.
         23    2    1    2    0    0  0.91595261567E+02  0.50478640891E+02  0.72804015607E+02  0.15646599751E+03  0.90793163626E+02 0.  0.
         23    2    1    2    0    0 -0.11148402981E+03 -0.16157046540E+02  0.24467808340E+02  0.14665072625E+03  0.90653311080E+02 0.  0.
        -13    1    3    3    0    0  0.23333773153E+01 -0.22850636815E+02  0.11504868837E+02  0.25689652771E+02  0.00000000000E+00 0. -1.
         13    1    3    3    0    0  0.89261884252E+02  0.73329277706E+02  0.61299146770E+02  0.13077634474E+03  0.00000000000E+00 0.  1.
        -13    1    4    4    0    0 -0.14431250466E+02  0.32774405682E+02  0.37864189315E+01  0.36010548818E+02  0.00000000000E+00 0.  1.
         13    1    4    4    0    0 -0.97052779347E+02 -0.48931452222E+02  0.20681389408E+02  0.11064017744E+03  0.00000000000E+00 0. -1.
         -4    1    1    2    0  502  0.19888768246E+02 -0.34321594351E+02 -0.35256679138E+02  0.53071351641E+02  0.00000000000E+00 0.  1.
<scales pt_clust_5="13000.00000" pt_clust_6="13000.00000" pt_clust_7="13000.00000" pt_clust_8="13000.00000" pt_clust_9="39.66781"></scales>
<clustering>
<clus scale="   39.668">  2  9  1 -1</clus>
<clus scale="   90.653">  7  8 -1 -1</clus>
<clus scale="   90.793">  5  6 -1 -1</clus>
<clus scale="  139.600">  2  7  1 -1</clus>
<clus scale="   39.668">  2  5  1 -1</clus>
</clustering>
</event>
<event>
 9    1  0.1321469E-005  0.2015868E+03  0.7546771E-02  0.1150537E+00
          2   -1    0    0  502    0 -0.00000000000E+00  0.00000000000E+00  0.35203319188E+03  0.35203319188E+03  0.00000000000E+00 0. -1.
         21   -1    0    0  501  502  0.00000000000E+00 -0.00000000000E+00 -0.26375971988E+03  0.26375971988E+03  0.00000000000E+00 0.  1.
         23    2    1    2    0    0 -0.10548654601E+03 -0.11069838090E+03  0.16947301184E+03  0.24592769038E+03  0.91530236704E+02 0.  0.
         23    2    1    2    0    0  0.10620031382E+03  0.20592803039E+03 -0.22111734987E+02  0.25779129805E+03  0.11082673041E+03 0.  0.
        -13    1    3    3    0    0 -0.11451802579E+03 -0.68132635469E+02  0.11355986392E+03  0.17507791677E+03  0.00000000000E+00 0. -1.
         13    1    3    3    0    0  0.90314797759E+01 -0.42565745427E+02  0.55913147913E+02  0.70849773608E+02  0.00000000000E+00 0.  1.
        -13    1    4    4    0    0  0.62995561322E+02  0.50644238996E+02  0.33201741216E+02  0.87382122367E+02  0.00000000000E+00 0.  1.
         13    1    4    4    0    0  0.43204752494E+02  0.15528379140E+03 -0.55313476203E+02  0.17040917569E+03  0.00000000000E+00 0. -1.
          2    1    1    2  501    0 -0.71376780261E+00 -0.95229649496E+02 -0.59087804847E+02  0.11207392332E+03  0.00000000000E+00 0. -1.
<scales pt_clust_5="13000.00000" pt_clust_6="13000.00000" pt_clust_7="13000.00000" pt_clust_8="13000.00000" pt_clust_9="95.23232"></scales>
<clustering>
<clus scale="   91.530">  5  6 -1 -1</clus>
<clus scale="   95.232">  2  9  1 -1</clus>
<clus scale="  110.827">  7  8 -1 -1</clus>
<clus scale="  191.657">  1  5  2 -1</clus>
<clus scale="   95.232">  2  5  1 -1</clus>
</clustering>
</event>
<event>
 9    1  0.1321469E-005  0.1163657E+03  0.7546771E-02  0.1251284E+00
         21   -1    0    0  501  502  0.00000000000E+00  0.00000000000E+00  0.89435808314E+02  0.89435808314E+02  0.00000000000E+00 0. -1.
         -1   -1    0    0    0  501 -0.00000000000E+00 -0.00000000000E+00 -0.39175938678E+03  0.39175938678E+03  0.00000000000E+00 0.  1.
         23    2    1    2    0    0  0.65218404109E+02 -0.75833199540E+01 -0.32523728595E+03  0.34543132978E+03  0.96086234422E+02 0.  0.
         23    2    1    2    0    0 -0.62356245247E+02  0.27387195136E+02  0.14473776723E+02  0.11404710089E+03  0.90326580974E+02 0.  0.
        -11    1    3    3    0    0 -0.12476779018E+02  0.16203205774E+02 -0.16786206039E+02  0.26457335565E+02  0.00000000000E+00 0. -1.
         11    1    3    3    0    0  0.77695183126E+02 -0.23786525728E+02 -0.30845107991E+03  0.31897399422E+03  0.00000000000E+00 0.  1.
        -13    1    4    4    0    0 -0.82831768444E+01 -0.27130594001E+02  0.23361690787E+02  0.36748452292E+02  0.00000000000E+00 0. -1.
         13    1    4    4    0    0 -0.54073068402E+02  0.54517789137E+02 -0.88879140639E+01  0.77298648599E+02  0.00000000000E+00 0.  1.
         -1    1    1    2    0  502 -0.28621588617E+01 -0.19803875182E+02  0.84399307649E+01  0.21716764420E+02  0.00000000000E+00 0.  1.
<scales pt_clust_5="13000.00000" pt_clust_6="13000.00000" pt_clust_7="13000.00000" pt_clust_8="13000.00000" pt_clust_9="20.00963"></scales>
<clustering>
<clus scale="   20.010">  1  9  2 -1</clus>
<clus scale="   90.327">  7  8 -1 -1</clus>
<clus scale="   96.086">  5  6 -1 -1</clus>
<clus scale="  111.657">  1  7  2 -1</clus>
<clus scale="   20.010">  1  5  2 -1</clus>
</clustering>
</event>
<event>
 9    1  0.1321469E-005  0.9192488E+02  0.7546771E-02  0.1298301E+00
         21   -1    0    0  501  502  0.00000000000E+00  0.00000000000E+00  0.24540185531E+02  0.24540185531E+02  0.00000000000E+00 0.  1.
          2   -1    0    0  502    0 -0.00000000000E+00 -0.00000000000E+00 -0.55497745836E+03  0.55497745836E+03  0.00000000000E+00 0. -1.
         23    2    1    2    0    0 -0.19812772058E+01  0.16092525106E+02 -0.27545039644E+03  0.29048100904E+03  0.90793176459E+02 0.  0.
         23    2    1    2    0    0  0.18404255711E+02 -0.43886511897E+01 -0.25218997625E+03  0.26867693107E+03  0.90716769571E+02 0.  0.
        -11    1    3    3    0    0 -0.35579988156E+02  0.15218841205E+02 -0.23370386386E+03  0.23688614284E+03  0.00000000000E+00 0. -1.
         11    1    3    3    0    0  0.33598710950E+02  0.87368390088E+00 -0.41746532575E+02  0.53594866201E+02  0.00000000000E+00 0.  1.
        -13    1    4    4    0    0  0.11010175761E+02  0.38683626854E+02 -0.64871099937E+02  0.76327626479E+02  0.00000000000E+00 0. -1.
         13    1    4    4    0    0  0.73940799494E+01 -0.43072278043E+02 -0.18731887631E+03  0.19234930459E+03  0.00000000000E+00 0.  1.
          2    1    1    2  501    0 -0.16422978505E+02 -0.11703873916E+02 -0.27969001425E+01  0.20359703780E+02  0.00000000000E+00 0. -1.
<scales pt_clust_5="13000.00000" pt_clust_6="13000.00000" pt_clust_7="13000.00000" pt_clust_8="13000.00000" pt_clust_9="20.16668"></scales>
<clustering>
<clus scale="   20.167">  1  9  2 -1</clus>
<clus scale="   90.717">  7  8 -1 -1</clus>
<clus scale="   90.793">  5  6 -1 -1</clus>
<clus scale="   91.849">  1  7  2 -1</clus>
<clus scale="   20.167">  1  5  2 -1</clus>
</clustering>
</event>
<event>
 9    1  0.1321469E-005  0.2166681E+03  0.7546771E-02  0.1169265E+00
          2   -1    0    0  502    0 -0.00000000000E+00  0.00000000000E+00  0.10795580020E+03  0.10795580020E+03  0.00000000000E+00 0. -1.
         21   -1    0    0  501  502  0.00000000000E+00 -0.00000000000E+00 -0.10281277582E+04  0.10281277582E+04  0.00000000000E+00 0. -1.
         23    2    1    2    0    0  0.27314141912E+02 -0.24985523983E+02  0.25994858186E+02  0.10313328872E+03  0.92684431446E+02 0.  0.
         23    2    1    2    0    0 -0.12003009713E+03  0.17877768515E+03 -0.55280484858E+03  0.60053621494E+03  0.93176498727E+02 0.  0.
        -11    1    4    4    0    0 -0.45142330617E+02  0.52277188772E+01 -0.11633434282E+03  0.12489530967E+03  0.00000000000E+00 0.  1.
         11    1    4    4    0    0 -0.74887766512E+02  0.17354996627E+03 -0.43647050575E+03  0.47564090526E+03  0.00000000000E+00 0. -1.
        -13    1    3    3    0    0  0.15043793784E+02 -0.49163979332E+02 -0.15380456502E+02  0.53665361616E+02  0.00000000000E+00 0.  1.
         13    1    3    3    0    0  0.12270348128E+02  0.24178455348E+02  0.41375314688E+02  0.49467927102E+02  0.00000000000E+00 0. -1.
          2    1    1    2  501    0  0.92715955217E+02 -0.15379216117E+03 -0.39336196762E+03  0.43241405477E+03  0.00000000000E+00 0. -1.
<scales pt_clust_5="13000.00000" pt_clust_6="13000.00000" pt_clust_7="13000.00000" pt_clust_8="13000.00000" pt_clust_9="195.60988"></scales>
<clustering>
<clus scale="   92.684">  7  8 -1 -1</clus>
<clus scale="   93.176">  5  6 -1 -1</clus>
<clus scale="   99.804">  1  7  2 -1</clus>
<clus scale="  195.610">  2  9  1 -1</clus>
<clus scale="  195.610">  2  5  1 -1</clus>
</clustering>
</event>
<event>
 9    1  0.1321469E-005  0.1510067E+03  0.7546771E-02  0.1204846E+00
          2   -1    0    0  502    0 -0.00000000000E+00  0.00000000000E+00  0.13331989952E+03  0.13331989952E+03  0.00000000000E+00 0. -1.
         21   -1    0    0  501  502  0.00000000000E+00 -0.00000000000E+00 -0.51896294073E+03  0.51896294073E+03  0.00000000000E+00 0.  1.
         23    2    1    2    0    0 -0.69162729079E+02 -0.62991168565E+02  0.25811402513E+02  0.15131978691E+03  0.11610374240E+03 0.  0.
         23    2    1    2    0    0  0.43157075021E+02  0.99050046035E+02 -0.73573363296E+02  0.16016962441E+03  0.92562541310E+02 0.  0.
        -13    1    4    4    0    0 -0.13652361550E+02  0.81014647925E+02 -0.35899532144E+02  0.89657886225E+02  0.00000000000E+00 0. -1.
         13    1    4    4    0    0  0.56809436571E+02  0.18035398110E+02 -0.37673831152E+02  0.70511738187E+02  0.00000000000E+00 0.  1.
        -13    1    3    3    0    0 -0.21668453475E+02 -0.46609226119E+02 -0.42380776773E+02  0.66618856755E+02  0.00000000000E+00 0.  1.
         13    1    3    3    0    0 -0.47494275604E+02 -0.16381942446E+02  0.68192179287E+02  0.84700930156E+02  0.00000000000E+00 0. -1.
          2    1    1    2  501    0  0.26005654058E+02 -0.36058877470E+02 -0.33788108043E+03  0.34079342892E+03  0.00000000000E+00 0. -1.
<scales pt_clust_5="13000.00000" pt_clust_6="13000.00000" pt_clust_7="13000.00000" pt_clust_8="13000.00000" pt_clust_9="44.45826"></scales>
<clustering>
<clus scale="   44.458">  2  9  1 -1</clus>
<clus scale="   92.563">  5  6 -1 -1</clus>
<clus scale="  116.104">  7  8 -1 -1</clus>
<clus scale="  133.756">  2  5  1 -1</clus>
<clus scale="   44.458">  2  5  1 -1</clus>
</clustering>
</event>
<event>
 9    1  0.1321469E-005  0.9714016E+02  0.7546771E-02  0.1286684E+00
          1   -1    0    0  502    0 -0.00000000000E+00  0.00000000000E+00  0.23594079197E+03  0.23594079197E+03  0.00000000000E+00 0. -1.
         21   -1    0    0  501  502  0.00000000000E+00 -0.00000000000E+00 -0.16324809781E+03  0.16324809781E+03  0.00000000000E+00 0.  1.
         23    2    1    2    0    0  0.20165074016E+02 -0.25216137488E+02  0.19034649179E+03  0.21325740445E+03  0.90578418046E+02 0.  0.
         23    2    1    2    0    0 -0.32273586915E+02  0.41571987757E+02 -0.12582403818E+03  0.16400244630E+03  0.91078533314E+02 0.  0.
        -11    1    3    3    0    0  0.39658975840E+02 -0.44371660505E+02  0.16708846851E+03  0.17737033272E+03  0.00000000000E+00 0. -1.
         11    1    3    3    0    0 -0.19493901824E+02  0.19155523016E+02  0.23258023279E+02  0.35887071728E+02  0.00000000000E+00 0.  1.
        -13    1    4    4    0    0 -0.66368222206E+01  0.62296275860E+02 -0.46253328653E+02  0.77873254759E+02  0.00000000000E+00 0.  1.
         13    1    4    4    0    0 -0.25636764694E+02 -0.20724288103E+02 -0.79570709524E+02  0.86129191541E+02  0.00000000000E+00 0. -1.
          1    1    1    2  501    0  0.12108512899E+02 -0.16355850269E+02  0.81702405471E+01  0.21929039040E+02  0.00000000000E+00 0. -1.
<scales pt_clust_5="13000.00000" pt_clust_6="13000.00000" pt_clust_7="13000.00000" pt_clust_8="13000.00000" pt_clust_9="20.35019"></scales>
<clustering>
<clus scale="   20.350">  2  9  1 -1</clus>
<clus scale="   90.578">  5  6 -1 -1</clus>
<clus scale="   91.079">  7  8 -1 -1</clus>
<clus scale="   96.671">  1  5  2 -1</clus>
<clus scale="   20.350">  2  5  1 -1</clus>
</clustering>
</event>
<event>
 9    1  0.1321469E-005  0.1002570E+03  0.7546771E-02  0.1281141E+00
          1   -1    0    0  502    0 -0.00000000000E+00  0.00000000000E+00  0.17414118610E+03  0.17414118610E+03  0.00000000000E+00 0. -1.
         21   -1    0    0  501  502  0.00000000000E+00 -0.00000000000E+00 -0.15155431386E+03  0.15155431386E+03  0.00000000000E+00 0.  1.
         23    2    1    2    0    0  0.14458916547E+02  0.30387499574E+02  0.10902203957E+03  0.14604933914E+03  0.91170960037E+02 0.  0.
         23    2    1    2    0    0 -0.57620874891E+02 -0.13317942470E+02 -0.63033637479E+02  0.12766581811E+03  0.93956313493E+02 0.  0.
        -11    1    3    3    0    0 -0.28195896963E+02 -0.15339166552E+02  0.22099014624E+02  0.38970053675E+02  0.00000000000E+00 0.  1.
         11    1    3    3    0    0  0.42654813510E+02  0.45726666126E+02  0.86923024947E+02  0.10707928547E+03  0.00000000000E+00 0. -1.
        -13    1    4    4    0    0 -0.50380524011E+02 -0.46762696541E+02 -0.17907781756E+02  0.71032637814E+02  0.00000000000E+00 0.  1.
         13    1    4    4    0    0 -0.72403508804E+01  0.33444754071E+02 -0.45125855723E+02  0.56633180297E+02  0.00000000000E+00 0. -1.
          1    1    1    2  501    0  0.43161958344E+02 -0.17069557104E+02 -0.23401529856E+02  0.51980342702E+02  0.00000000000E+00 0. -1.
<scales pt_clust_5="13000.00000" pt_clust_6="13000.00000" pt_clust_7="13000.00000" pt_clust_8="13000.00000" pt_clust_9="46.41470"></scales>
<clustering>
<clus scale="   46.415">  2  9  1 -1</clus>
<clus scale="   91.171">  5  6 -1 -1</clus>
<clus scale="   93.956">  7  8 -1 -1</clus>
<clus scale="   97.652">  1  5  2 -1</clus>
<clus scale="   46.415">  2  5  1 -1</clus>
</clustering>
</event>
<event>
 9    1  0.1321469E-005  0.2011980E+03  0.7546771E-02  0.1162379E+00
          4   -1    0    0  502    0 -0.00000000000E+00  0.00000000000E+00  0.12271845732E+03  0.12271845732E+03  0.00000000000E+00 0. -1.
         21   -1    0    0  501  502  0.00000000000E+00 -0.00000000000E+00 -0.10399077540E+04  0.10399077540E+04  0.00000000000E+00 0.  1.
         23    2    1    2    0    0  0.99157941822E+02  0.57773502904E+02  0.15322182309E+02  0.14687397499E+03  0.90372120677E+02 0.  0.
         23    2    1    2    0    0 -0.20228194547E+03  0.57577428016E+02 -0.69818064394E+03  0.73494743286E+03  0.91969407017E+02 0.  0.
        -13    1    4    4    0    0 -0.17760731871E+03  0.81288368276E+02 -0.59415969164E+03  0.62544216171E+03  0.00000000000E+00 0.  1.
         13    1    4    4    0    0 -0.24674626759E+02 -0.23710940260E+02 -0.10402095229E+03  0.10950527115E+03  0.00000000000E+00 0. -1.
        -13    1    3    3    0    0 -0.22010052275E+01  0.39176842370E+02 -0.10535803649E+02  0.40628469829E+02  0.00000000000E+00 0.  1.
         13    1    3    3    0    0  0.10135894705E+03  0.18596660534E+02  0.25857985957E+02  0.10624550516E+03  0.00000000000E+00 0. -1.
          4    1    1    2  501    0  0.10312400365E+03 -0.11535093092E+03 -0.23433083504E+03  0.28080480345E+03  0.00000000000E+00 0. -1.
<scales pt_clust_5="13000.00000" pt_clust_6="13000.00000" pt_clust_7="13000.00000" pt_clust_8="13000.00000" pt_clust_9="178.94772"></scales>
<clustering>
<clus scale="   90.372">  7  8 -1 -1</clus>
<clus scale="   91.969">  5  6 -1 -1</clus>
<clus scale="  146.073">  1  7  2 -1</clus>
<clus scale="  178.948">  2  9  1 -1</clus>
<clus scale="  178.948">  2  5  1 -1</clus>
</clustering>
</event>
<event>
 9    1  0.1321469E-005  0.1484522E+03  0.7546771E-02  0.1210555E+00
         21   -1    0    0  501  502  0.00000000000E+00  0.00000000000E+00  0.24385751146E+03  0.24385751146E+03  0.00000000000E+00 0. -1.
          4   -1    0    0  502    0 -0.00000000000E+00 -0.00000000000E+00 -0.37776247201E+03  0.37776247201E+03  0.00000000000E+00 0. -1.
         23    2    1    2    0    0 -0.54396069947E+02 -0.64495019629E+02 -0.31379734831E+03  0.33770653863E+03  0.91969508215E+02 0.  0.
         23    2    1    2    0    0  0.28499203899E+02  0.80782437646E+02  0.61370521520E+02  0.16150690730E+03  0.12239335496E+03 0.  0.
        -13    1    3    3    0    0 -0.39592556760E+02 -0.87915638585E+02 -0.25751464024E+03  0.27497367146E+03  0.00000000000E+00 0.  1.
         13    1    3    3    0    0 -0.14803513188E+02  0.23420618957E+02 -0.56282708069E+02  0.62732867164E+02  0.00000000000E+00 0. -1.
        -13    1    4    4    0    0  0.59984137309E+02  0.25962887435E+02 -0.10046439925E+02  0.66129412578E+02  0.00000000000E+00 0.  1.
         13    1    4    4    0    0 -0.31484933410E+02  0.54819550211E+02  0.71416961445E+02  0.95377494721E+02  0.00000000000E+00 0. -1.
          4    1    1    2  501    0  0.25896866048E+02 -0.16287418018E+02  0.11852186625E+03  0.12240653755E+03  0.00000000000E+00 0. -1.
<scales pt_clust_5="13000.00000" pt_clust_6="13000.00000" pt_clust_7="13000.00000" pt_clust_8="13000.00000" pt_clust_9="30.59293"></scales>
<clustering>
<clus scale="   30.593">  1  9  2 -1</clus>
<clus scale="   91.970">  5  6 -1 -1</clus>
<clus scale="  122.393">  7  8 -1 -1</clus>
<clus scale="  124.564">  2  5  1 -1</clus>
<clus scale="   30.593">  1  5  2 -1</clus>
</clustering>
</event>
<event>
 9    1  0.1321469E-005  0.9731866E+02  0.7546771E-02  0.1286269E+00
          2   -1    0    0  502    0 -0.00000000000E+00  0.00000000000E+00  0.17573731024E+03  0.17573731024E+03  0.00000000000E+00 0. -1.
         21   -1    0    0  501  502  0.00000000000E+00 -0.00000000000E+00 -0.28708363290E+03  0.28708363290E+03  0.00000000000E+00 0. -1.
         23    2    1    2    0    0  0.34468578890E+02  0.19495556936E+01  0.14144252254E+03  0.17247809391E+03  0.92470654808E+02 0.  0.
         23    2    1    2    0    0  0.13536126833E+02  0.62857447567E+01 -0.15023605138E+03  0.17681158716E+03  0.92025696979E+02 0.  0.
        -11    1    3    3    0    0 -0.11045749953E+02  0.21279679969E+02  0.14620505930E+01  0.24020219889E+02  0.00000000000E+00 0.  1.
         11    1    3    3    0    0  0.45514328843E+02 -0.19330124275E+02  0.13998047194E+03  0.14845787403E+03  0.00000000000E+00 0. -1.
        -13    1    4    4    0    0  0.50996522305E+02  0.74231095433E+01 -0.59945866824E+02  0.79052228253E+02  0.00000000000E+00 0. -1.
         13    1    4    4    0    0 -0.37460395473E+02 -0.11373647866E+01 -0.90290184553E+02  0.97759358909E+02  0.00000000000E+00 0.  1.
          2    1    1    2  501    0 -0.48004705723E+02 -0.82353004503E+01 -0.10255279382E+03  0.11353126206E+03  0.00000000000E+00 0. -1.
<scales pt_clust_5="13000.00000" pt_clust_6="13000.00000" pt_clust_7="13000.00000" pt_clust_8="13000.00000" pt_clust_9="48.70597"></scales>
<clustering>
<clus scale="   48.706">  2  9  1 -1</clus>
<clus scale="   92.026">  7  8 -1 -1</clus>
<clus scale="   92.471">  5  6 -1 -1</clus>
<clus scale="   96.896">  2  7  1 -1</clus>
<clus scale="   48.706">  2  5  1 -1</clus>
</clustering>
</event>
<event>
 9    1  0.1321469E-005  0.9591214E+02  0.7546771E-02  0.1292269E+00
         21   -1    0    0  501  502  0.00000000000E+00  0.00000000000E+00  0.34645184800E+02  0.34645184800E+02  0.00000000000E+00 0. -1.
          2   -1    0    0  502    0 -0.00000000000E+00 -0.00000000000E+00 -0.36940506321E+03  0.36940506321E+03  0.00000000000E+00 0. -1.
         23    2    1    2    0    0  0.10251512668E+02 -0.11507122145E+02 -0.15990893044E+03  0.18690452991E+03  0.95524498930E+02 0.  0.
         23    2    1    2    0    0 -0.33925947916E+01 -0.22508208277E+02 -0.13969346427E+03  0.16774798416E+03  0.90038842117E+02 0.  0.
        -13    1    3    3    0    0  0.33617736591E+02  0.31068149053E+02 -0.98461449412E+02  0.10858194656E+03  0.00000000000E+00 0.  1.
         13    1    3    3    0    0 -0.23366223924E+02 -0.42575271198E+02 -0.61447481025E+02  0.78322583348E+02  0.00000000000E+00 0. -1.
        -13    1    4    4    0    0  0.16110233393E+02  0.26214400208E+02 -0.19062724054E+02  0.36195605349E+02  0.00000000000E+00 0.  1.
         13    1    4    4    0    0 -0.19502828185E+02 -0.48722608485E+02 -0.12063074022E+03  0.13155237881E+03  0.00000000000E+00 0. -1.
          2    1    1    2  501    0 -0.68589178761E+01  0.34015330422E+02 -0.35157483699E+02  0.49397733938E+02  0.00000000000E+00 0. -1.
<scales pt_clust_5="13000.00000" pt_clust_6="13000.00000" pt_clust_7="13000.00000" pt_clust_8="13000.00000" pt_clust_9="34.69996"></scales>
<clustering>
<clus scale="   34.700">  1  9  2 -1</clus>
<clus scale="   90.039">  7  8 -1 -1</clus>
<clus scale="   90.450">  1  7  2 -1</clus>
<clus scale="   95.524">  5  6 -1 -1</clus>
<clus scale="   34.700">  1  5  2 -1</clus>
</clustering>
</event>
<event>
 9    1  0.1321469E-005  0.1039064E+03  0.7546771E-02  0.1275845E+00
          2   -1    0    0  502    0 -0.00000000000E+00  0.00000000000E+00  0.10795643915E+03  0.10795643915E+03  0.00000000000E+00 0. -1.
         21   -1    0    0  501  502  0.00000000000E+00 -0.00000000000E+00 -0.12322910926E+03  0.12322910926E+03  0.00000000000E+00 0.  1.
         23    2    1    2    0    0 -0.35136087748E+02 -0.23231919552E+02  0.17979890250E+02  0.96806865827E+02  0.85287901074E+02 0.  0.
         23    2    1    2    0    0  0.32847720662E+02  0.44903479697E+02 -0.26843299449E+02  0.11166367062E+03  0.93021058741E+02 0.  0.
        -13    1    3    3    0    0 -0.62603250878E+02 -0.18122512554E+02  0.33252317394E+01  0.65258330103E+02  0.00000000000E+00 0. -1.
         13    1    3    3    0    0  0.27467163130E+02 -0.51094069977E+01  0.14654658511E+02  0.31548535724E+02  0.00000000000E+00 0.  1.
        -13    1    4    4    0    0  0.25634135766E+02 -0.18061151457E+01 -0.52087095478E+02  0.58081292029E+02  0.00000000000E+00 0.  1.
         13    1    4    4    0    0  0.72135848960E+01  0.46709594843E+02  0.25243796029E+02  0.53582378590E+02  0.00000000000E+00 0. -1.
          2    1    1    2  501    0  0.22883670858E+01 -0.21671560145E+02 -0.64092609078E+01  0.22715011962E+02  0.00000000000E+00 0. -1.
<scales pt_clust_5="13000.00000" pt_clust_6="13000.00000" pt_clust_7="13000.00000" pt_clust_8="13000.00000" pt_clust_9="21.79204"></scales>
<clustering>
<clus scale="   21.792">  2  9  1 -1</clus>
<clus scale="   85.288">  5  6 -1 -1</clus>
<clus scale="   93.021">  7  8 -1 -1</clus>
<clus scale="   97.045">  1  5  2 -1</clus>
<clus scale="   21.792">  2  5  1 -1</clus>
</clustering>
</event>
<event>
 9    1  0.1321469E-005  0.1014787E+03  0.7546771E-02  0.1281636E+00
          1   -1    0    0  502    0 -0.00000000000E+00  0.00000000000E+00  0.19557432997E+03  0.19557432997E+03  0.00000000000E+00 0. -1.
         21   -1    0    0  501  502  0.00000000000E+00 -0.00000000000E+00 -0.17595190376E+03  0.17595190376E+03  0.00000000000E+00 0. -1.
         23    2    1    2    0    0  0.25542946576E+02  0.31619293367E+02  0.87560421013E+02  0.13341510719E+03  0.92089856472E+02 0.  0.
         23    2    1    2    0    0  0.19282352662E+02  0.16661918982E+02  0.40522252776E+02  0.11120955751E+03  0.10037969935E+03 0.  0.
        -11    1    3    3    0    0 -0.23683678568E+02 -0.40994976242E+01 -0.31090942460E+01  0.24236108977E+02  0.00000000000E+00 0.  1.
         11    1    3    3    0    0  0.49226625144E+02  0.35718790991E+02  0.90669515259E+02  0.10917899821E+03  0.00000000000E+00 0. -1.
        -13    1    4    4    0    0 -0.12827399458E+00 -0.40019015532E+02  0.21801362669E+01  0.40078561008E+02  0.00000000000E+00 0.  1.
         13    1    4    4    0    0  0.19410626656E+02  0.56680934514E+02  0.38342116509E+02  0.71130996499E+02  0.00000000000E+00 0. -1.
          1    1    1    2  501    0 -0.44825299237E+02 -0.48281212349E+02 -0.10846024758E+03  0.12690156903E+03  0.00000000000E+00 0. -1.
<scales pt_clust_5="13000.00000" pt_clust_6="13000.00000" pt_clust_7="13000.00000" pt_clust_8="13000.00000" pt_clust_9="65.88158"></scales>
<clustering>
<clus scale="   65.882">  2  9  1 -1</clus>
<clus scale="   92.090">  5  6 -1 -1</clus>
<clus scale="   93.287">  1  5  2 -1</clus>
<clus scale="  100.380">  7  8 -1 -1</clus>
<clus scale="   65.882">  2  5  1 -1</clus>
</clustering>
</event>
<event>
 9    1  0.1321469E-005  0.9128238E+02  0.7546771E-02  0.1300101E+00
         -1   -1    0    0    0  501 -0.00000000000E+00  0.00000000000E+00  0.11619425271E+03  0.11619425271E+03  0.00000000000E+00 0.  1.
         21   -1    0    0  501  502  0.00000000000E+00 -0.00000000000E+00 -0.16283345461E+03  0.16283345461E+03  0.00000000000E+00 0. -1.
         23    2    1    2    0    0 -0.23646246192E+01 -0.53775030508E+01  0.60327963213E+02  0.10950406093E+03  0.91198504513E+02 0.  0.
         23    2    1    2    0    0 -0.27805998151E+02 -0.13720530123E+02 -0.77896864349E+02  0.12347927935E+03  0.90651996520E+02 0.  0.
        -11    1    4    4    0    0 -0.30928924098E+02 -0.37742587731E+02 -0.85194739945E+02  0.98179656696E+02  0.00000000000E+00 0. -1.
         11    1    4    4    0    0  0.31229259465E+01  0.24022057608E+02  0.72978755962E+01  0.25299622653E+02  0.00000000000E+00 0.  1.
        -13    1    3    3    0    0  0.18597105492E+02 -0.43800904788E+02  0.32888363368E+02  0.57844758086E+02  0.00000000000E+00 0. -1.
         13    1    3    3    0    0 -0.20961730111E+02  0.38423401738E+02  0.27439599845E+02  0.51659302841E+02  0.00000000000E+00 0.  1.
         -1    1    1    2    0  502  0.30170622771E+02  0.19098033174E+02 -0.29070300762E+02  0.46044367037E+02  0.00000000000E+00 0.  1.
<scales pt_clust_5="13000.00000" pt_clust_6="13000.00000" pt_clust_7="13000.00000" pt_clust_8="13000.00000" pt_clust_9="35.70716"></scales>
<clustering>
<clus scale="   35.707">  2  9  1 -1</clus>
<clus scale="   90.652">  5  6 -1 -1</clus>
<clus scale="   90.736">  2  5  1 -1</clus>
<clus scale="   91.199">  7  8 -1 -1</clus>
<clus scale="   35.707">  2  5  1 -1</clus>
</clustering>
</event>
<event>
 9    1  0.1321469E-005  0.1264483E+03  0.7546771E-02  0.1233016E+00
         -1   -1    0    0    0  501 -0.00000000000E+00  0.00000000000E+00  0.26686733712E+03  0.26686733712E+03  0.00000000000E+00 0.  1.
         21   -1    0    0  501  502  0.00000000000E+00 -0.00000000000E+00 -0.15480273496E+03  0.15480273496E+03  0.00000000000E+00 0.  1.
         23    2    1    2    0    0 -0.68318212821E+02 -0.31909805544E+02  0.13542838394E+03  0.17974657441E+03  0.91007526850E+02 0.  0.
         23    2    1    2    0    0  0.12665430055E+03  0.75750393668E+01  0.29765157813E+02  0.15935253306E+03  0.91698266633E+02 0.  0.
        -13    1    3    3    0    0 -0.54460931872E+02 -0.17487983182E+02  0.14622756809E+03  0.15701695554E+03  0.00000000000E+00 0.  1.
         13    1    3    3    0    0 -0.13857280949E+02 -0.14421822363E+02 -0.10799184157E+02  0.22729618871E+02  0.00000000000E+00 0. -1.
        -13    1    4    4    0    0  0.78513313986E+02  0.30652089893E+02 -0.19718129946E+02  0.86560358921E+02  0.00000000000E+00 0.  1.
         13    1    4    4    0    0  0.48140986559E+02 -0.23077050526E+02  0.49483287759E+02  0.72792174135E+02  0.00000000000E+00 0. -1.
         -1    1    1    2    0  502 -0.58336087725E+02  0.24334766177E+02 -0.53128939585E+02  0.82570964614E+02  0.00000000000E+00 0.  1.
<scales pt_clust_5="13000.00000" pt_clust_6="13000.00000" pt_clust_7="13000.00000" pt_clust_8="13000.00000" pt_clust_9="63.20823"></scales>
<clustering>
<clus scale="   63.208">  2  9  1 -1</clus>
<clus scale="   91.008">  5  6 -1 -1</clus>
<clus scale="   91.698">  7  8 -1 -1</clus>
<clus scale="  125.948">  1  5  2 -1</clus>
<clus scale="   63.208">  2  5  1 -1</clus>
</clustering>
</event>
<event>
 9    1  0.1321469E-005  0.9307713E+02  0.7546771E-02  0.1298042E+00
         21   -1    0    0  501  502  0.00000000000E+00  0.00000000000E+00  0.30299687973E+03  0.30299687973E+03  0.00000000000E+00 0.  1.
          2   -1    0    0  502    0 -0.00000000000E+00 -0.00000000000E+00 -0.55571984352E+02  0.55571984352E+02  0.00000000000E+00 0. -1.
         23    2    1    2    0    0  0.62962722448E+01 -0.43036754312E+00  0.18266741593E+02  0.90370280899E+02  0.88279587454E+02 0.  0.
         23    2    1    2    0    0 -0.13076631094E+02 -0.22213176450E+02  0.10692370386E+03  0.14369973139E+03  0.92479786246E+02 0.  0.
        -11    1    3    3    0    0  0.31425121107E+00 -0.41375410852E+02 -0.68860010034E+01  0.41945683768E+02  0.00000000000E+00 0.  1.
         11    1    3    3    0    0  0.59820210337E+01  0.40945043308E+02  0.25152742596E+02  0.48424597131E+02  0.00000000000E+00 0. -1.
        -11    1    4    4    0    0 -0.17954911221E+01  0.28537406444E+02  0.46485814193E+01  0.28969236513E+02  0.00000000000E+00 0. -1.
         11    1    4    4    0    0 -0.11281139972E+02 -0.50750582895E+02  0.10227512244E+03  0.11473049487E+03  0.00000000000E+00 0.  1.
          2    1    1    2  501    0  0.67803588488E+01  0.22643543993E+02  0.12223444992E+03  0.12449885180E+03  0.00000000000E+00 0. -1.
<scales pt_clust_5="13000.00000" pt_clust_6="13000.00000" pt_clust_7="13000.00000" pt_clust_8="13000.00000" pt_clust_9="23.63691"></scales>
<clustering>
<clus scale="   23.637">  1  9  2 -1</clus>
<clus scale="   88.280">  5  6 -1 -1</clus>
<clus scale="   88.905">  2  5  1 -1</clus>
<clus scale="   92.480">  7  8 -1 -1</clus>
<clus scale="   23.637">  1  5  2 -1</clus>
</clustering>
</event>
<event>
 9    1  0.1321469E-005  0.1337838E+03  0.7546771E-02  0.1232491E+00
         -1   -1    0    0    0  501 -0.00000000000E+00  0.00000000000E+00  0.29051554864E+03  0.29051554864E+03  0.00000000000E+00 0.  1.
         21   -1    0    0  501  502  0.00000000000E+00 -0.00000000000E+00 -0.62457736076E+02  0.62457736076E+02  0.00000000000E+00 0.  1.
         23    2    1    2    0    0 -0.15443520541E+02 -0.42591905057E+02  0.10667488157E+03  0.16809865272E+03  0.12175817831E+03 0.  0.
         23    2    1    2    0    0  0.56214951367E+01  0.65211937663E+02  0.87216540522E+02  0.14273818345E+03  0.92104647292E+02 0.  0.
        -11    1    3    3    0    0 -0.39581477218E+02 -0.77251744454E+02  0.62360472131E+02  0.10688009096E+03  0.00000000000E+00 0. -1.
         11    1    3    3    0    0  0.24137956677E+02  0.34659839397E+02  0.44314409443E+02  0.61218561759E+02  0.00000000000E+00 0.  1.
        -13    1    4    4    0    0 -0.36144851074E+02  0.57810416652E+02  0.67575195133E+02  0.95994278631E+02  0.00000000000E+00 0. -1.
         13    1    4    4    0    0  0.41766346211E+02  0.74015210116E+01  0.19641345389E+02  0.46743904820E+02  0.00000000000E+00 0.  1.
         -1    1    1    2    0  502  0.98220254045E+01 -0.22620032606E+02  0.34166390468E+02  0.42136448542E+02  0.00000000000E+00 0.  1.
<scales pt_clust_5="13000.00000" pt_clust_6="13000.00000" pt_clust_7="13000.00000" pt_clust_8="13000.00000" pt_clust_9="24.66047"></scales>
<clustering>
<clus scale="   24.660">  2  9  1 -1</clus>
<clus scale="   92.105">  7  8 -1 -1</clus>
<clus scale="  107.500">  2  7  1 -1</clus>
<clus scale="  121.758">  5  6 -1 -1</clus>
<clus scale="   24.660">  2  5  1 -1</clus>
</clustering>
</event>
<event>
 9    1  0.1321469E-005  0.1172095E+03  0.7546771E-02  0.1248147E+00
         21   -1    0    0  501  502  0.00000000000E+00  0.00000000000E+00  0.47438879101E+02  0.47438879101E+02  0.00000000000E+00 0.  1.
          1   -1    0    0  502    0 -0.00000000000E+00 -0.00000000000E+00 -0.72295479595E+03  0.72295479595E+03  0.00000000000E+00 0. -1.
         23    2    1    2    0    0  0.16622451927E+02  0.85751958648E+02 -0.42963106485E+03  0.44754175138E+03  0.89894733008E+02 0.  0.
         23    2    1    2    0    0 -0.45805445604E+02 -0.47820782149E+02 -0.25137170427E+03  0.27468007693E+03  0.88749337471E+02 0.  0.
        -13    1    3    3    0    0  0.19123628246E+02 -0.12025425894E+02 -0.41215266034E+02  0.47000235952E+02  0.00000000000E+00 0.  1.
         13    1    3    3    0    0 -0.25011763189E+01  0.97777384542E+02 -0.38841579881E+03  0.40054151542E+03  0.00000000000E+00 0. -1.
        -13    1    4    4    0    0  0.10199781701E+02 -0.31755024256E+02 -0.17744985474E+03  0.18055710471E+03  0.00000000000E+00 0.  1.
         13    1    4    4    0    0 -0.56005227305E+02 -0.16065757893E+02 -0.73921849529E+02  0.94122972223E+02  0.00000000000E+00 0. -1.
          1    1    1    2  501    0  0.29182993677E+02 -0.37931176499E+02  0.54868522747E+01  0.48171846741E+02  0.00000000000E+00 0. -1.
<scales pt_clust_5="13000.00000" pt_clust_6="13000.00000" pt_clust_7="13000.00000" pt_clust_8="13000.00000" pt_clust_9="47.85835"></scales>
<clustering>
<clus scale="   47.858">  1  9  2 -1</clus>
<clus scale="   88.749">  7  8 -1 -1</clus>
<clus scale="   89.895">  5  6 -1 -1</clus>
<clus scale="  116.333">  1  7  2 -1</clus>
<clus scale="   47.858">  1  5  2 -1</clus>
</clustering>
</event>
<event>
 9    1  0.1321469E-005  0.1075086E+03  0.7546771E-02  0.1268605E+00
         21   -1    0    0  501  502  0.00000000000E+00  0.00000000000E+00  0.10007794391E+03  0.10007794391E+03  0.00000000000E+00 0. -1.
          1   -1    0    0  502    0 -0.00000000000E+00 -0.00000000000E+00 -0.20216642736E+03  0.20216642736E+03  0.00000000000E+00 0. -1.
         23    2    1    2    0    0 -0.10979736247E+02 -0.23641762626E+02 -0.71423686273E+02  0.12399435114E+03  0.97947785097E+02 0.  0.
         23    2    1    2    0    0  0.27593122992E+01  0.75643390086E+02 -0.40467807330E+02  0.12469776867E+03  0.90456364145E+02 0.  0.
        -13    1    3    3    0    0  0.34677016061E+02  0.87608788382E+01 -0.34501533300E+01  0.35932603564E+02  0.00000000000E+00 0.  1.
         13    1    3    3    0    0 -0.45656752308E+02 -0.32402641465E+02 -0.67973532943E+02  0.88061747575E+02  0.00000000000E+00 0. -1.
        -13    1    4    4    0    0  0.39108764950E+02  0.83488002416E+01 -0.23396971179E+02  0.46331589890E+02  0.00000000000E+00 0.  1.
         13    1    4    4    0    0 -0.36349452651E+02  0.67294589844E+02 -0.17070836151E+02  0.78366178784E+02  0.00000000000E+00 0. -1.
          1    1    1    2  501    0  0.82204239483E+01 -0.52001627459E+02  0.98030101539E+01  0.53552251459E+02  0.00000000000E+00 0. -1.
<scales pt_clust_5="13000.00000" pt_clust_6="13000.00000" pt_clust_7="13000.00000" pt_clust_8="13000.00000" pt_clust_9="52.64736"></scales>
<clustering>
<clus scale="   52.647">  1  9  2 -1</clus>
<clus scale="   90.456">  7  8 -1 -1</clus>
<clus scale="   97.948">  5  6 -1 -1</clus>
<clus scale="  100.731">  1  7  2 -1</clus>
<clus scale="   52.647">  1  5  2 -1</clus>
</clustering>
</event>
<event>
 9    1  0.1321469E-005  0.9136566E+02  0.7546771E-02  0.1300493E+00
          3   -1    0    0  502    0 -0.00000000000E+00  0.00000000000E+00  0.22429786279E+03  0.22429786279E+03  0.00000000000E+00 0. -1.
         21   -1    0    0  501  502  0.00000000000E+00 -0.00000000000E+00 -0.50601451487E+02  0.50601451487E+02  0.00000000000E+00 0.  1.
         23    2    1    2    0    0 -0.47557866126E+01 -0.87030954858E+00  0.98648430459E+02  0.13440168373E+03  0.91153303902E+02 0.  0.
         23    2    1    2    0    0 -0.10759550494E+02 -0.13689152784E+02  0.76585279036E+02  0.11916533310E+03  0.89620928449E+02 0.  0.
        -11    1    4    4    0    0 -0.47081041465E+02  0.17080731390E+01  0.22468484942E+02  0.52195543822E+02  0.00000000000E+00 0.  1.
         11    1    4    4    0    0  0.36321490971E+02 -0.15397225923E+02  0.54116794094E+02  0.66969789275E+02  0.00000000000E+00 0. -1.
        -13    1    3    3    0    0 -0.22817319283E+02  0.33461138824E+02  0.83411292352E+02  0.92723899630E+02  0.00000000000E+00 0.  1.
         13    1    3    3    0    0  0.18061532671E+02 -0.34331448372E+02  0.15237138107E+02  0.41677784099E+02  0.00000000000E+00 0. -1.
          3    1    1    2  501    0  0.15515337106E+02  0.14559462332E+02 -0.15372981902E+01  0.21332297454E+02  0.00000000000E+00 0. -1.
<scales pt_clust_5="13000.00000" pt_clust_6="13000.00000" pt_clust_7="13000.00000" pt_clust_8="13000.00000" pt_clust_9="21.27683"></scales>
<clustering>
<clus scale="   21.277">  2  9  1 -1</clus>
<clus scale="   89.621">  5  6 -1 -1</clus>
<clus scale="   89.837">  2  5  1 -1</clus>
<clus scale="   91.153">  7  8 -1 -1</clus>
<clus scale="   21.277">  2  5  1 -1</clus>
</clustering>
</event>
<event>
 9    1  0.1321469E-005  0.1447095E+03  0.7546771E-02  0.1220679E+00
          2   -1    0    0  502    0 -0.00000000000E+00  0.00000000000E+00  0.15931063590E+03  0.15931063590E+03  0.00000000000E+00 0. -1.
         21   -1    0    0  501  502  0.00000000000E+00 -0.00000000000E+00 -0.23002014648E+03  0.23002014648E+03  0.00000000000E+00 0.  1.
         23    2    1    2    0    0 -0.65643698295E+02 -0.69415715584E+01  0.11577889331E+02  0.10917361019E+03  0.86183229796E+02 0.  0.
         23    2    1    2    0    0 -0.74945679595E+02  0.18620897512E+02 -0.48320837751E+02  0.13505201317E+03  0.99702307830E+02 0.  0.
        -11    1    4    4    0    0 -0.23340721022E+02 -0.13069976497E+02  0.27266156256E+02  0.38197602286E+02  0.00000000000E+00 0. -1.
         11    1    4    4    0    0 -0.51604958574E+02  0.31690874009E+02 -0.75586994007E+02  0.96854410885E+02  0.00000000000E+00 0.  1.
        -13    1    3    3    0    0 -0.60776890504E+02  0.29257481456E+02 -0.76707672826E+01  0.67887195487E+02  0.00000000000E+00 0.  1.
         13    1    3    3    0    0 -0.48668077918E+01 -0.36199053015E+02  0.19248656613E+02  0.41286414698E+02  0.00000000000E+00 0. -1.
          2    1    1    2  501    0  0.14058937789E+03 -0.11679325954E+02 -0.33966562151E+02  0.14510515902E+03  0.00000000000E+00 0. -1.
<scales pt_clust_5="13000.00000" pt_clust_6="13000.00000" pt_clust_7="13000.00000" pt_clust_8="13000.00000" pt_clust_9="104.88235"></scales>
<clustering>
<clus scale="   86.183">  7  8 -1 -1</clus>
<clus scale="   99.702">  5  6 -1 -1</clus>
<clus scale="  108.558">  1  7  2 -1</clus>
<clus scale="  104.882">  2  9  1 -1</clus>
<clus scale="  104.882">  2  5  1 -1</clus>
</clustering>
</event>
<event>
 9    1  0.1321469E-005  0.1109903E+03  0.7546771E-02  0.1258906E+00
         21   -1    0    0  501  502  0.00000000000E+00  0.00000000000E+00  0.43061070450E+02  0.43061070450E+02  0.00000000000E+00 0.  1.
          1   -1    0    0  502    0 -0.00000000000E+00 -0.00000000000E+00 -0.38445823223E+03  0.38445823223E+03  0.00000000000E+00 0. -1.
         23    2    1    2    0    0  0.73150045884E+01 -0.74220643424E+02 -0.21748354069E+03  0.24706731243E+03  0.90448621862E+02 0.  0.
         23    2    1    2    0    0  0.13187308680E+01  0.48736438838E+02 -0.10733358451E+03  0.14884686908E+03  0.90873057337E+02 0.  0.
        -13    1    4    4    0    0  0.28372224072E+02  0.41867197815E+02 -0.10973793686E+03  0.12083153619E+03  0.00000000000E+00 0. -1.
         13    1    4    4    0    0 -0.27053493204E+02  0.68692410222E+01  0.24043523508E+01  0.28015332891E+02  0.00000000000E+00 0.  1.
        -13    1    3    3    0    0 -0.20631581084E+02  0.10634074139E+02 -0.21313100898E+02  0.31511806370E+02  0.00000000000E+00 0.  1.
         13    1    3    3    0    0  0.27946585673E+02 -0.84854717563E+02 -0.19617043979E+03  0.21555550606E+03  0.00000000000E+00 0. -1.
          1    1    1    2  501    0 -0.86337354564E+01  0.25484204587E+02 -0.16580036587E+02  0.31605121177E+02  0.00000000000E+00 0. -1.
<scales pt_clust_5="13000.00000" pt_clust_6="13000.00000" pt_clust_7="13000.00000" pt_clust_8="13000.00000" pt_clust_9="26.90699"></scales>
<clustering>
<clus scale="   26.907">  1  9  2 -1</clus>
<clus scale="   90.449">  7  8 -1 -1</clus>
<clus scale="   90.873">  5  6 -1 -1</clus>
<clus scale="  110.643">  2  7  1 -1</clus>
<clus scale="   26.907">  1  5  2 -1</clus>
</clustering>
</event>
<event>
 9    1  0.1321469E-005  0.1082915E+03  0.7546771E-02  0.1263978E+00
         21   -1    0    0  501  502  0.00000000000E+00  0.00000000000E+00  0.12560456664E+03  0.12560456664E+03  0.00000000000E+00 0. -1.
         -3   -1    0    0    0  501 -0.00000000000E+00 -0.00000000000E+00 -0.14946915021E+03  0.14946915021E+03  0.00000000000E+00 0.  1.
         23    2    1    2    0    0 -0.27780175777E+02  0.55297718260E+02 -0.73495433361E+02  0.13232854716E+03  0.90992801128E+02 0.  0.
         23    2    1    2    0    0  0.38953828261E+02 -0.31387181586E+02  0.51430784196E+02  0.11629136018E+03  0.91520483962E+02 0.  0.
        -11    1    3    3    0    0 -0.38323679472E+02 -0.11896836908E+02 -0.15760082557E+02  0.43111707678E+02  0.00000000000E+00 0.  1.
         11    1    3    3    0    0  0.10543503695E+02  0.67194555168E+02 -0.57735350804E+02  0.89216839480E+02  0.00000000000E+00 0. -1.
        -13    1    4    4    0    0  0.57178715098E+02  0.82753923438E+01  0.42538440182E+02  0.71745428229E+02  0.00000000000E+00 0. -1.
         13    1    4    4    0    0 -0.18224886838E+02 -0.39662573930E+02  0.88923440139E+01  0.44545931947E+02  0.00000000000E+00 0.  1.
         -3    1    1    2    0  502 -0.11173652484E+02 -0.23910536674E+02 -0.17999344125E+01  0.26453809513E+02  0.00000000000E+00 0.  1.
<scales pt_clust_5="13000.00000" pt_clust_6="13000.00000" pt_clust_7="13000.00000" pt_clust_8="13000.00000" pt_clust_9="26.39250"></scales>
<clustering>
<clus scale="   26.393">  1  9  2 -1</clus>
<clus scale="   90.993">  5  6 -1 -1</clus>
<clus scale="   91.520">  7  8 -1 -1</clus>
<clus scale="  107.846">  2  5  1 -1</clus>
<clus scale="   26.393">  1  5  2 -1</clus>
</clustering>
</event>
<event>
 9    1  0.1321469E-005  0.1209589E+03  0.7546771E-02  0.1248950E+00
         21   -1    0    0  501  502  0.00000000000E+00  0.00000000000E+00  0.15567298976E+03  0.15567298976E+03  0.00000000000E+00 0.  1.
          2   -1    0    0  502    0 -0.00000000000E+00 -0.00000000000E+00 -0.20642954952E+03  0.20642954952E+03  0.00000000000E+00 0. -1.
         23    2    1    2    0    0  0.14605914487E+02  0.34815445152E+02 -0.11775825032E+03  0.16705538685E+03  0.11231673427E+03 0.  0.
         23    2    1    2    0    0 -0.70764228478E+02 -0.34514089049E+02  0.25528409061E+02  0.12523397227E+03  0.93984305957E+02 0.  0.
        -11    1    3    3    0    0 -0.16176189726E+02 -0.23343038835E+02 -0.92181304717E+02  0.96457034556E+02  0.00000000000E+00 0.  1.
         11    1    3    3    0    0  0.30782104213E+02  0.58158483988E+02 -0.25576945607E+02  0.70598352290E+02  0.00000000000E+00 0. -1.
        -13    1    4    4    0    0  0.15824437274E+02 -0.18898821165E+02  0.27884198726E+02  0.37217022920E+02  0.00000000000E+00 0.  1.
         13    1    4    4    0    0 -0.86588665751E+02 -0.15615267884E+02 -0.23557896649E+01  0.88016949349E+02  0.00000000000E+00 0. -1.
          2    1    1    2  501    0  0.56158313991E+02 -0.30135610366E+00  0.41473281503E+02  0.69813180162E+02  0.00000000000E+00 0. -1.
<scales pt_clust_5="13000.00000" pt_clust_6="13000.00000" pt_clust_7="13000.00000" pt_clust_8="13000.00000" pt_clust_9="56.15912"></scales>
<clustering>
<clus scale="   56.159">  1  9  2 -1</clus>
<clus scale="   93.984">  7  8 -1 -1</clus>
<clus scale="  104.159">  1  7  2 -1</clus>
<clus scale="  112.317">  5  6 -1 -1</clus>
<clus scale="   56.159">  1  5  2 -1</clus>
</clustering>
</event>
<event>
 9    1  0.1321469E-005  0.1366927E+03  0.7546771E-02  0.1218104E+00
         21   -1    0    0  501  502  0.00000000000E+00  0.00000000000E+00  0.19098785967E+03  0.19098785967E+03  0.00000000000E+00 0. -1.
          2   -1    0    0  502    0 -0.00000000000E+00 -0.00000000000E+00 -0.18784722140E+03  0.18784722140E+03  0.00000000000E+00 0. -1.
         23    2    1    2    0    0 -0.16575681958E+02 -0.86962541351E+02 -0.53834478810E+02  0.13917070680E+03  0.92914464390E+02 0.  0.
         23    2    1    2    0    0  0.80900920335E+02  0.10945227254E+03  0.33361769163E+02  0.16754562150E+03  0.91835552844E+02 0.  0.
        -11    1    3    3    0    0  0.16057387672E+02 -0.92750169109E+02 -0.31732761336E+02  0.99334796072E+02  0.00000000000E+00 0. -1.
         11    1    3    3    0    0 -0.32633069630E+02  0.57876277579E+01 -0.22101717473E+02  0.39835910731E+02  0.00000000000E+00 0.  1.
        -13    1    4    4    0    0  0.23042408107E+02  0.53589895644E+02 -0.29593011441E+02  0.65410823360E+02  0.00000000000E+00 0.  1.
         13    1    4    4    0    0  0.57858512228E+02  0.55862376901E+02  0.62954780604E+02  0.10213479814E+03  0.00000000000E+00 0. -1.
          2    1    1    2  501    0 -0.64325238377E+02 -0.22489731194E+02  0.23613347919E+02  0.72118752772E+02  0.00000000000E+00 0. -1.
<scales pt_clust_5="13000.00000" pt_clust_6="13000.00000" pt_clust_7="13000.00000" pt_clust_8="13000.00000" pt_clust_9="68.14341"></scales>
<clustering>
<clus scale="   68.143">  1  9  2 -1</clus>
<clus scale="   91.836">  7  8 -1 -1</clus>
<clus scale="   92.914">  5  6 -1 -1</clus>
<clus scale="  135.962">  1  7  2 -1</clus>
<clus scale="   68.143">  1  5  2 -1</clus>
</clustering>
</event>
<event>
 9    1  0.1321469E-005  0.2491442E+03  0.7546771E-02  0.1114902E+00
          1   -1    0    0  502    0 -0.00000000000E+00  0.00000000000E+00  0.21181929544E+03  0.21181929544E+03  0.00000000000E+00 0. -1.
         21   -1    0    0  501  502  0.00000000000E+00 -0.00000000000E+00 -0.38998321834E+03  0.38998321834E+03  0.00000000000E+00 0. -1.
         23    2    1    2    0    0 -0.11447020633E+03  0.19629338216E+03 -0.31512620419E+02  0.25058439314E+03  0.10082148989E+03 0.  0.
         23    2    1    2    0    0  0.55694819662E+02 -0.22775478356E+03 -0.13642561108E+03  0.28377236006E+03  0.83310567173E+02 0.  0.
        -11    1    4    4    0    0 -0.11033149622E+02 -0.25748503665E+02  0.48012518640E+01  0.28421257027E+02  0.00000000000E+00 0.  1.
         11    1    4    4    0    0  0.66727969284E+02 -0.20200627989E+03 -0.14122686295E+03  0.25535110303E+03  0.00000000000E+00 0. -1.
        -13    1    3    3    0    0  0.84286635179E+01  0.52878583384E+02 -0.30679521585E+02  0.61712397409E+02  0.00000000000E+00 0.  1.
         13    1    3    3    0    0 -0.12289886984E+03  0.14341479878E+03 -0.83309883429E+00  0.18887199573E+03  0.00000000000E+00 0. -1.
          1    1    1    2  501    0  0.58775386663E+02  0.31461401398E+02 -0.10225691402E+02  0.67445760578E+02  0.00000000000E+00 0. -1.
<scales pt_clust_5="13000.00000" pt_clust_6="13000.00000" pt_clust_7="13000.00000" pt_clust_8="13000.00000" pt_clust_9="66.66611"></scales>
<clustering>
<clus scale="   66.666">  2  9  1 -1</clus>
<clus scale="   83.311">  5  6 -1 -1</clus>
<clus scale="  100.821">  7  8 -1 -1</clus>
<clus scale="  242.587">  2  5  1 -1</clus>
<clus scale="   66.666">  2  5  1 -1</clus>
</clustering>
</event>
<event>
 9    1  0.1321469E-005  0.1008591E+03  0.7546771E-02  0.1279181E+00
         21   -1    0    0  501  502  0.00000000000E+00  0.00000000000E+00  0.14124983595E+03  0.14124983595E+03  0.00000000000E+00 0.  1.
          2   -1    0    0  502    0 -0.00000000000E+00 -0.00000000000E+00 -0.92690054556E+02  0.92690054556E+02  0.00000000000E+00 0. -1.
         23    2    1    2    0    0  0.72511213119E+01 -0.33850366505E+02  0.11044889275E+02  0.99604839943E+02  0.92740004788E+02 0.  0.
         23    2    1    2    0    0 -0.27496974949E+02  0.37901396045E+02  0.14883750564E+02  0.10370052759E+03  0.91321815236E+02 0.  0.
        -11    1    3    3    0    0  0.43135113282E+02 -0.40702618839E+02  0.18883684573E+02  0.62240940876E+02  0.00000000000E+00 0. -1.
         11    1    3    3    0    0 -0.35883991970E+02  0.68522523335E+01 -0.78387952975E+01  0.37363899066E+02  0.00000000000E+00 0.  1.
        -11    1    4    4    0    0 -0.36257409631E+02  0.60236857566E+02  0.28785844472E+02  0.75971728982E+02  0.00000000000E+00 0.  1.
         11    1    4    4    0    0  0.87604346827E+01 -0.22335461521E+02 -0.13902093907E+02  0.27728798607E+02  0.00000000000E+00 0. -1.
          2    1    1    2  501    0  0.20245853637E+02 -0.40510295396E+01  0.22631141556E+02  0.30634522976E+02  0.00000000000E+00 0. -1.
<scales pt_clust_5="13000.00000" pt_clust_6="13000.00000" pt_clust_7="13000.00000" pt_clust_8="13000.00000" pt_clust_9="20.64717"></scales>
<clustering>
<clus scale="   20.647">  1  9  2 -1</clus>
<clus scale="   91.322">  7  8 -1 -1</clus>
<clus scale="   92.740">  5  6 -1 -1</clus>
<clus scale="   99.557">  1  7  2 -1</clus>
<clus scale="   20.647">  1  5  2 -1</clus>
</clustering>
</event>
<event>
 9    1  0.1321469E-005  0.1372153E+03  0.7546771E-02  0.1217458E+00
          1   -1    0    0  502    0 -0.00000000000E+00  0.00000000000E+00  0.13975359473E+03  0.13975359473E+03  0.00000000000E+00 0. -1.
         21   -1    0    0  501  502  0.00000000000E+00 -0.00000000000E+00 -0.32367477802E+03  0.32367477802E+03  0.00000000000E+00 0. -1.
         23    2    1    2    0    0 -0.69017229967E+02 -0.56868409124E+02  0.38963420494E+02  0.13278842399E+03  0.90095634858E+02 0.  0.
         23    2    1    2    0    0  0.12455422172E+03  0.80237405197E+02 -0.12029600646E+03  0.21166563334E+03  0.91539149150E+02 0.  0.
        -13    1    4    4    0    0  0.52687920182E+02  0.15454006733E+02 -0.98062772395E+02  0.11238839169E+03  0.00000000000E+00 0.  1.
         13    1    4    4    0    0  0.71866301535E+02  0.64783398463E+02 -0.22233234069E+02  0.99277241651E+02  0.00000000000E+00 0. -1.
        -13    1    3    3    0    0 -0.31156092118E+02 -0.73722709329E+02  0.67914506297E+01  0.80323494374E+02  0.00000000000E+00 0. -1.
         13    1    3    3    0    0 -0.37861137850E+02  0.16854300205E+02  0.32171969864E+02  0.52464929616E+02  0.00000000000E+00 0.  1.
          1    1    1    2  501    0 -0.55536991749E+02 -0.23368996073E+02 -0.10258859732E+03  0.11897431542E+03  0.00000000000E+00 0. -1.
<scales pt_clust_5="13000.00000" pt_clust_6="13000.00000" pt_clust_7="13000.00000" pt_clust_8="13000.00000" pt_clust_9="60.25336"></scales>
<clustering>
<clus scale="   60.253">  2  9  1 -1</clus>
<clus scale="   90.096">  7  8 -1 -1</clus>
<clus scale="   91.539">  5  6 -1 -1</clus>
<clus scale="  136.257">  1  7  2 -1</clus>
<clus scale="   60.253">  2  5  1 -1</clus>
</clustering>
</event>
<event>
 9    1  0.1321469E-005  0.1268197E+03  0.7546771E-02  0.1233500E+00
         21   -1    0    0  501  502  0.00000000000E+00  0.00000000000E+00  0.44852594566E+02  0.44852594566E+02  0.00000000000E+00 0. -1.
         -1   -1    0    0    0  501 -0.00000000000E+00 -0.00000000000E+00 -0.90033547921E+03  0.90033547921E+03  0.00000000000E+00 0.  1.
         23    2    1    2    0    0 -0.33602065909E+02 -0.74474612706E+02 -0.55262085302E+03  0.56530811429E+03  0.86648082038E+02 0.  0.
         23    2    1    2    0    0  0.50118509221E+02  0.11413084656E+03 -0.13032138903E+03  0.20207196436E+03  0.91168521103E+02 0.  0.
        -11    1    4    4    0    0  0.17838114388E+02  0.40347858795E+02  0.52063593228E+01  0.44421326091E+02  0.00000000000E+00 0.  1.
         11    1    4    4    0    0  0.32280394833E+02  0.73782987760E+02 -0.13552774835E+03  0.15765063827E+03  0.00000000000E+00 0. -1.
        -13    1    3    3    0    0 -0.59649457661E+02 -0.57407759355E+02 -0.46514003060E+03  0.47244995153E+03  0.00000000000E+00 0.  1.
         13    1    3    3    0    0  0.26047391752E+02 -0.17066853351E+02 -0.87480822418E+02  0.92858162760E+02  0.00000000000E+00 0. -1.
         -1    1    1    2    0  502 -0.16516443312E+02 -0.39656233850E+02 -0.17254064260E+03  0.17780799513E+03  0.00000000000E+00 0.  1.
<scales pt_clust_5="13000.00000" pt_clust_6="13000.00000" pt_clust_7="13000.00000" pt_clust_8="13000.00000" pt_clust_9="42.95825"></scales>
<clustering>
<clus scale="   42.958">  1  9  2 -1</clus>
<clus scale="   86.648">  7  8 -1 -1</clus>
<clus scale="   91.169">  5  6 -1 -1</clus>
<clus scale="  123.610">  2  7  1 -1</clus>
<clus scale="   42.958">  1  5  2 -1</clus>
</clustering>
</event>
<event>
 9    1  0.1321469E-005  0.9921787E+02  0.7546771E-02  0.1282164E+00
          2   -1    0    0  502    0 -0.00000000000E+00  0.00000000000E+00  0.47252268806E+03  0.47252268806E+03  0.00000000000E+00 0. -1.
         21   -1    0    0  501  502  0.00000000000E+00 -0.00000000000E+00 -0.45253540415E+02  0.45253540415E+02  0.00000000000E+00 0.  1.
         23    2    1    2    0    0  0.83362199822E+01 -0.41452019538E+02  0.27818098557E+03  0.29599655514E+03  0.91877839737E+02 0.  0.
         23    2    1    2    0    0 -0.37580107283E+02  0.92790215531E+01  0.45081823629E+02  0.10905157045E+03  0.91441289858E+02 0.  0.
        -11    1    3    3    0    0  0.47467123277E+02 -0.18116843346E+02  0.19083093853E+03  0.19747859354E+03  0.00000000000E+00 0. -1.
         11    1    3    3    0    0 -0.39130903295E+02 -0.23335176192E+02  0.87350047036E+02  0.98517961599E+02  0.00000000000E+00 0.  1.
        -13    1    4    4    0    0 -0.59748367739E+02 -0.13620650318E+02  0.46838314732E+02  0.77131169377E+02  0.00000000000E+00 0. -1.
         13    1    4    4    0    0  0.22168260456E+02  0.22899671871E+02 -0.17564911026E+01  0.31920401070E+02  0.00000000000E+00 0.  1.
          2    1    1    2  501    0  0.29243887301E+02  0.32172997985E+02  0.10400633845E+03  0.11272810289E+03  0.00000000000E+00 0. -1.
<scales pt_clust_5="13000.00000" pt_clust_6="13000.00000" pt_clust_7="13000.00000" pt_clust_8="13000.00000" pt_clust_9="43.47768"></scales>
<clustering>
<clus scale="   43.478">  2  9  1 -1</clus>
<clus scale="   91.441">  7  8 -1 -1</clus>
<clus scale="   91.878">  5  6 -1 -1</clus>
<clus scale="   98.814">  2  7  1 -1</clus>
<clus scale="   43.478">  2  5  1 -1</clus>
</clustering>
</event>
<event>
 9    1  0.1321469E-005  0.1757829E+03  0.7546771E-02  0.1172300E+00
          2   -1    0    0  502    0 -0.00000000000E+00  0.00000000000E+00  0.26775582322E+03  0.26775582322E+03  0.00000000000E+00 0. -1.
         21   -1    0    0  501  502  0.00000000000E+00 -0.00000000000E+00 -0.16325426063E+03  0.16325426063E+03  0.00000000000E+00 0.  1.
         23    2    1    2    0    0 -0.81249956402E+02 -0.12654516309E+03  0.12536832085E+03  0.21762799197E+03  0.95023645992E+02 0.  0.
         23    2    1    2    0    0  0.10403983933E+03  0.95665142473E+02 -0.49123660634E+01  0.17181892228E+03  0.97578189481E+02 0.  0.
        -11    1    4    4    0    0  0.79239549410E+02  0.15287988139E+02  0.21746022603E+02  0.83579412962E+02  0.00000000000E+00 0. -1.
         11    1    4    4    0    0  0.24800289916E+02  0.80377154333E+02 -0.26658388666E+02  0.88239509320E+02  0.00000000000E+00 0.  1.
        -11    1    3    3    0    0 -0.83602544310E+02 -0.71482302015E+02  0.11915854560E+03  0.16216616141E+03  0.00000000000E+00 0.  1.
         11    1    3    3    0    0  0.23525879075E+01 -0.55062861079E+02  0.62097752449E+01  0.55461830557E+02  0.00000000000E+00 0. -1.
          2    1    1    2  501    0 -0.22789882924E+02  0.30880020621E+02 -0.15954392196E+02  0.41563169605E+02  0.00000000000E+00 0. -1.
<scales pt_clust_5="13000.00000" pt_clust_6="13000.00000" pt_clust_7="13000.00000" pt_clust_8="13000.00000" pt_clust_9="38.37909"></scales>
<clustering>
<clus scale="   38.379">  2  9  1 -1</clus>
<clus scale="   95.024">  7  8 -1 -1</clus>
<clus scale="   97.578">  5  6 -1 -1</clus>
<clus scale="  174.378">  1  7  2 -1</clus>
<clus scale="   38.379">  2  5  1 -1</clus>
</clustering>
</event>
<event>
 9    1  0.1321469E-005  0.1145913E+03  0.7546771E-02  0.1252617E+00
          1   -1    0    0  502    0 -0.00000000000E+00  0.00000000000E+00  0.17030930013E+03  0.17030930013E+03  0.00000000000E+00 0. -1.
         21   -1    0    0  501  502  0.00000000000E+00 -0.00000000000E+00 -0.23831072761E+03  0.23831072761E+03  0.00000000000E+00 0. -1.
         23    2    1    2    0    0  0.42835630247E+02  0.30168216640E+02  0.38056030528E+02  0.11144565186E+03  0.90702036062E+02 0.  0.
         23    2    1    2    0    0 -0.93852263333E+02 -0.12898942722E+02  0.43047346243E+02  0.13863994011E+03  0.91615112945E+02 0.  0.
        -11    1    3    3    0    0  0.62371120190E+02 -0.55196030596E+01  0.13931202917E+02  0.64145935696E+02  0.00000000000E+00 0. -1.
         11    1    3    3    0    0 -0.19535489942E+02  0.35687819700E+02  0.24124827611E+02  0.47299716167E+02  0.00000000000E+00 0.  1.
        -11    1    4    4    0    0 -0.12200908081E+02 -0.28062718370E+02 -0.18060884505E+02  0.35532715480E+02  0.00000000000E+00 0.  1.
         11    1    4    4    0    0 -0.81651355252E+02  0.15163775648E+02  0.61108230748E+02  0.10310722463E+03  0.00000000000E+00 0. -1.
          1    1    1    2  501    0  0.51016633086E+02 -0.17269273918E+02 -0.14910480425E+03  0.15853443577E+03  0.00000000000E+00 0. -1.
<scales pt_clust_5="13000.00000" pt_clust_6="13000.00000" pt_clust_7="13000.00000" pt_clust_8="13000.00000" pt_clust_9="53.86023"></scales>
<clustering>
<clus scale="   53.860">  2  9  1 -1</clus>
<clus scale="   90.702">  5  6 -1 -1</clus>
<clus scale="   91.615">  7  8 -1 -1</clus>
<clus scale="  113.863">  1  5  2 -1</clus>
<clus scale="   53.860">  2  5  1 -1</clus>
</clustering>
</event>
<event>
 9    1  0.1321469E-005  0.2151273E+03  0.7546771E-02  0.1138046E+00
          3   -1    0    0  502    0 -0.00000000000E+00  0.00000000000E+00  0.25060612794E+03  0.25060612794E+03  0.00000000000E+00 0. -1.
         21   -1    0    0  501  502  0.00000000000E+00 -0.00000000000E+00 -0.57613369570E+03  0.57613369570E+03  0.00000000000E+00 0. -1.
         23    2    1    2    0    0  0.19972149006E+03  0.60924085710E+02  0.12344539270E+03  0.25909817648E+03  0.91064165668E+02 0.  0.
         23    2    1    2    0    0 -0.15987475179E+03  0.67835117656E+01 -0.10422134538E+03  0.21405183197E+03  0.96696151145E+02 0.  0.
        -13    1    3    3    0    0  0.13002517804E+03  0.19045491973E+02  0.11961224959E+03  0.17769740556E+03  0.00000000000E+00 0. -1.
         13    1    3    3    0    0  0.69696312012E+02  0.41878593737E+02  0.38331431096E+01  0.81400770928E+02  0.00000000000E+00 0.  1.
        -13    1    4    4    0    0 -0.15057302454E+03  0.37201364600E+02 -0.88444702645E+02  0.17854591195E+03  0.00000000000E+00 0.  1.
         13    1    4    4    0    0 -0.93017272519E+01 -0.30417852835E+02 -0.15776642732E+02  0.35505920025E+02  0.00000000000E+00 0. -1.
          3    1    1    2  501    0 -0.39846738265E+02 -0.67707597476E+02 -0.34475161508E+03  0.35358981519E+03  0.00000000000E+00 0. -1.
<scales pt_clust_5="13000.00000" pt_clust_6="13000.00000" pt_clust_7="13000.00000" pt_clust_8="13000.00000" pt_clust_9="78.56259"></scales>
<clustering>
<clus scale="   78.563">  2  9  1 -1</clus>
<clus scale="   91.064">  5  6 -1 -1</clus>
<clus scale="   96.696">  7  8 -1 -1</clus>
<clus scale="  212.655">  1  5  2 -1</clus>
<clus scale="   78.563">  2  5  1 -1</clus>
</clustering>
</event>
<event>
 9    1  0.1321469E-005  0.1092671E+03  0.7546771E-02  0.1263484E+00
          1   -1    0    0  502    0 -0.00000000000E+00  0.00000000000E+00  0.58896371385E+02  0.58896371385E+02  0.00000000000E+00 0. -1.
         21   -1    0    0  501  502  0.00000000000E+00 -0.00000000000E+00 -0.43707188112E+03  0.43707188112E+03  0.00000000000E+00 0.  1.
         23    2    1    2    0    0 -0.49471174246E+02  0.30222908823E+01 -0.38817991295E+02  0.11113975957E+03  0.91589728605E+02 0.  0.
         23    2    1    2    0    0  0.96222368627E+02  0.14946995326E+02 -0.25596271766E+03  0.28754919287E+03  0.87666804419E+02 0.  0.
        -11    1    4    4    0    0  0.40994695321E+02  0.54457349483E+01 -0.21288985490E+03  0.21686934176E+03  0.00000000000E+00 0.  1.
         11    1    4    4    0    0  0.55227673306E+02  0.95012603772E+01 -0.43072862752E+02  0.70679851112E+02  0.00000000000E+00 0. -1.
        -11    1    3    3    0    0 -0.70982316331E+02 -0.17723414835E+02 -0.34696320744E+02  0.80971867573E+02  0.00000000000E+00 0.  1.
         11    1    3    3    0    0  0.21511142085E+02  0.20745705717E+02 -0.41216705503E+01  0.30167891998E+02  0.00000000000E+00 0. -1.
          1    1    1    2  501    0 -0.46751194382E+02 -0.17969286208E+02 -0.83394800779E+02  0.97279300059E+02  0.00000000000E+00 0. -1.
<scales pt_clust_5="13000.00000" pt_clust_6="13000.00000" pt_clust_7="13000.00000" pt_clust_8="13000.00000" pt_clust_9="50.08562"></scales>
<clustering>
<clus scale="   50.086">  2  9  1 -1</clus>
<clus scale="   87.667">  5  6 -1 -1</clus>
<clus scale="   91.590">  7  8 -1 -1</clus>
<clus scale="  106.000">  2  5  1 -1</clus>
<clus scale="   50.086">  2  5  1 -1</clus>
</clustering>
</event>
<event>
 9    1  0.1321469E-005  0.1456555E+03  0.7546771E-02  0.1206407E+00
         21   -1    0    0  501  502  0.00000000000E+00  0.00000000000E+00  0.15360707740E+03  0.15360707740E+03  0.00000000000E+00 0. -1.
          2   -1    0    0  502    0 -0.00000000000E+00 -0.00000000000E+00 -0.41619040100E+03  0.41619040100E+03  0.00000000000E+00 0. -1.
         23    2    1    2    0    0 -0.33197398714E+02  0.11364903265E+03 -0.34359413978E+03  0.37456179811E+03  0.90672144603E+02 0.  0.
         23    2    1    2    0    0  0.36819749119E+02 -0.58848645150E+02  0.78683808018E+02  0.14026642652E+03  0.93084218874E+02 0.  0.
        -11    1    3    3    0    0  0.29877827459E+02  0.51926095609E+02 -0.11841761821E+03  0.13270921702E+03  0.00000000000E+00 0.  1.
         11    1    3    3    0    0 -0.63075226173E+02  0.61722937043E+02 -0.22517652157E+03  0.24185258109E+03  0.00000000000E+00 0. -1.
        -13    1    4    4    0    0  0.39458520081E+01 -0.60895664539E+02  0.87025751095E+02  0.10628891316E+03  0.00000000000E+00 0.  1.
         13    1    4    4    0    0  0.32873897111E+02  0.20470193889E+01 -0.83419430774E+01  0.33977513357E+02  0.00000000000E+00 0. -1.
          2    1    1    2  501    0 -0.36223504050E+01 -0.54800387502E+02  0.23270081562E+01  0.54969253768E+02  0.00000000000E+00 0. -1.
<scales pt_clust_5="13000.00000" pt_clust_6="13000.00000" pt_clust_7="13000.00000" pt_clust_8="13000.00000" pt_clust_9="54.91998"></scales>
<clustering>
<clus scale="   54.920">  1  9  2 -1</clus>
<clus scale="   90.672">  5  6 -1 -1</clus>
<clus scale="   93.084">  7  8 -1 -1</clus>
<clus scale="  144.126">  2  5  1 -1</clus>
<clus scale="   54.920">  1  5  2 -1</clus>
</clustering>
</event>
<event>
 9    1  0.1321469E-005  0.1118067E+03  0.7546771E-02  0.1257822E+00
         21   -1    0    0  501  502  0.00000000000E+00  0.00000000000E+00  0.14593104360E+02  0.14593104360E+02  0.00000000000E+00 0. -1.
          2   -1    0    0  502    0 -0.00000000000E+00 -0.00000000000E+00 -0.10525803877E+04  0.10525803877E+04  0.00000000000E+00 0.  1.
         23    2    1    2    0    0 -0.14399128505E+02 -0.61213963639E+02 -0.50741949372E+03  0.51899099062E+03  0.89009109024E+02 0.  0.
         23    2    1    2    0    0  0.35424591152E+02  0.60806495863E+02 -0.47805933386E+03  0.49161949201E+03  0.90535444099E+02 0.  0.
        -13    1    4    4    0    0  0.51164242579E+01  0.69436225792E+02 -0.41835479333E+03  0.42410883079E+03  0.00000000000E+00 0.  1.
         13    1    4    4    0    0  0.30308166894E+02 -0.86297299290E+01 -0.59704540529E+02  0.67510661224E+02  0.00000000000E+00 0. -1.
        -13    1    3    3    0    0 -0.52184346730E+02 -0.36800484628E+02 -0.31057523995E+03  0.31707169754E+03  0.00000000000E+00 0.  1.
         13    1    3    3    0    0  0.37785218225E+02 -0.24413479011E+02 -0.19684425377E+03  0.20191929307E+03  0.00000000000E+00 0. -1.
          2    1    1    2  501    0 -0.21025462646E+02  0.40746777514E+00 -0.52508455751E+02  0.56563009422E+02  0.00000000000E+00 0.  1.
<scales pt_clust_5="13000.00000" pt_clust_6="13000.00000" pt_clust_7="13000.00000" pt_clust_8="13000.00000" pt_clust_9="21.02941"></scales>
<clustering>
<clus scale="   21.029">  1  9  2 -1</clus>
<clus scale="   89.009">  7  8 -1 -1</clus>
<clus scale="   90.535">  5  6 -1 -1</clus>
<clus scale="  110.574">  2  7  1 -1</clus>
<clus scale="   21.029">  1  5  2 -1</clus>
</clustering>
</event>
<event>
 9    1  0.1321469E-005  0.1109042E+03  0.7546771E-02  0.1260513E+00
          1   -1    0    0  502    0 -0.00000000000E+00  0.00000000000E+00  0.29122154080E+02  0.29122154080E+02  0.00000000000E+00 0. -1.
         21   -1    0    0  501  502  0.00000000000E+00 -0.00000000000E+00 -0.76225497071E+03  0.76225497071E+03  0.00000000000E+00 0. -1.
         23    2    1    2    0    0 -0.42262503469E+02  0.15981928674E+02 -0.16991876900E+03  0.19810437876E+03  0.91276588356E+02 0.  0.
         23    2    1    2    0    0  0.76621093132E+02  0.36965164939E+01 -0.25845858340E+03  0.28595589509E+03  0.95317776207E+02 0.  0.
        -11    1    4    4    0    0  0.59028244410E+02  0.34198118431E+02 -0.23224833611E+03  0.24206018790E+03  0.00000000000E+00 0. -1.
         11    1    4    4    0    0  0.17592848723E+02 -0.30501601937E+02 -0.26210247285E+02  0.43895707189E+02  0.00000000000E+00 0.  1.
        -11    1    3    3    0    0 -0.58136176754E+02  0.30817490896E+02 -0.70892968520E+02  0.96723036440E+02  0.00000000000E+00 0. -1.
         11    1    3    3    0    0  0.15873673285E+02 -0.14835562222E+02 -0.99025800476E+02  0.10138134232E+03  0.00000000000E+00 0.  1.
          1    1    1    2  501    0 -0.34358589663E+02 -0.19678445168E+02 -0.30475546424E+03  0.30731685094E+03  0.00000000000E+00 0. -1.
<scales pt_clust_5="13000.00000" pt_clust_6="13000.00000" pt_clust_7="13000.00000" pt_clust_8="13000.00000" pt_clust_9="39.59487"></scales>
<clustering>
<clus scale="   39.595">  2  9  1 -1</clus>
<clus scale="   91.277">  7  8 -1 -1</clus>
<clus scale="   95.318">  5  6 -1 -1</clus>
<clus scale="  107.451">  1  7  2 -1</clus>
<clus scale="   39.595">  2  5  1 -1</clus>
</clustering>
</event>
<event>
 9    1  0.1321469E-005  0.9630863E+02  0.7546771E-02  0.1293157E+00
          3   -1    0    0  502    0 -0.00000000000E+00  0.00000000000E+00  0.92897055806E+02  0.92897055806E+02  0.00000000000E+00 0. -1.
         21   -1    0    0  501  502  0.00000000000E+00 -0.00000000000E+00 -0.40310971093E+03  0.40310971093E+03  0.00000000000E+00 0.  1.
         23    2    1    2    0    0 -0.10024923402E+02 -0.13494993484E+02  0.56497707250E+02  0.11191463890E+03  0.95132967668E+02 0.  0.
         23    2    1    2    0    0  0.82244540656E+01 -0.77506594718E+01 -0.23559007185E+03  0.25124955165E+03  0.86579101893E+02 0.  0.
        -13    1    3    3    0    0  0.15268270471E+02 -0.28161061676E+02 -0.14477325892E+02  0.35153356068E+02  0.00000000000E+00 0.  1.
         13    1    3    3    0    0 -0.25293193873E+02  0.14666068191E+02  0.70975033143E+02  0.76761282832E+02  0.00000000000E+00 0. -1.
        -13    1    4    4    0    0  0.33246867538E+02 -0.32289484714E+02 -0.17709502255E+03  0.18305903976E+03  0.00000000000E+00 0.  1.
         13    1    4    4    0    0 -0.25022413473E+02  0.24538825242E+02 -0.58495049302E+02  0.68190511899E+02  0.00000000000E+00 0. -1.
          3    1    1    2  501    0  0.18004693361E+01  0.21245652956E+02 -0.13112029052E+03  0.13284257618E+03  0.00000000000E+00 0. -1.
<scales pt_clust_5="13000.00000" pt_clust_6="13000.00000" pt_clust_7="13000.00000" pt_clust_8="13000.00000" pt_clust_9="21.32181"></scales>
<clustering>
<clus scale="   21.322">  2  9  1 -1</clus>
<clus scale="   86.579">  7  8 -1 -1</clus>
<clus scale="   87.869">  2  7  1 -1</clus>
<clus scale="   95.133">  5  6 -1 -1</clus>
<clus scale="   21.322">  2  5  1 -1</clus>
</clustering>
</event>
<event>
 9    1  0.1321469E-005  0.1526673E+03  0.7546771E-02  0.1211911E+00
         21   -1    0    0  501  502  0.00000000000E+00  0.00000000000E+00  0.12730601810E+03  0.12730601810E+03  0.00000000000E+00 0.  1.
         -1   -1    0    0    0  501 -0.00000000000E+00 -0.00000000000E+00 -0.36255150890E+03  0.36255150890E+03  0.00000000000E+00 0.  1.
         23    2    1    2    0    0  0.64330081962E+02  0.20205921359E+02 -0.58525514134E+02  0.12572074075E+03  0.88508926930E+02 0.  0.
         23    2    1    2    0    0  0.62890902777E+02  0.30065110229E+02 -0.19453652960E+03  0.22618829901E+03  0.91964714716E+02 0.  0.
        -11    1    4    4    0    0  0.68075811473E+01 -0.31249991395E+02 -0.46765605571E+02  0.56656217555E+02  0.00000000000E+00 0. -1.
         11    1    4    4    0    0  0.56083321630E+02  0.61315101624E+02 -0.14777092403E+03  0.16953208145E+03  0.00000000000E+00 0.  1.
        -13    1    3    3    0    0  0.48693422448E+02  0.50068065591E+01  0.13245120839E+02  0.50710459746E+02  0.00000000000E+00 0.  1.
         13    1    3    3    0    0  0.15636659514E+02  0.15199114800E+02 -0.71770634974E+02  0.75010281002E+02  0.00000000000E+00 0. -1.
         -1    1    1    2    0  502 -0.12722098474E+03 -0.50271031589E+02  0.17816552934E+02  0.13794848725E+03  0.00000000000E+00 0.  1.
<scales pt_clust_5="13000.00000" pt_clust_6="13000.00000" pt_clust_7="13000.00000" pt_clust_8="13000.00000" pt_clust_9="121.85977"></scales>
<clustering>
<clus scale="   88.509">  7  8 -1 -1</clus>
<clus scale="   91.965">  5  6 -1 -1</clus>
<clus scale="  111.268">  2  7  1 -1</clus>
<clus scale="  121.860">  1  9  2 -1</clus>
<clus scale="  121.860">  1  5  2 -1</clus>
</clustering>
</event>
<event>
 9    1  0.1321469E-005  0.1313241E+03  0.7546771E-02  0.1227670E+00
         21   -1    0    0  501  502  0.00000000000E+00  0.00000000000E+00  0.71544471593E+02  0.71544471593E+02  0.00000000000E+00 0. -1.
          2   -1    0    0  502    0 -0.00000000000E+00 -0.00000000000E+00 -0.39420972228E+03  0.39420972228E+03  0.00000000000E+00 0. -1.
         23    2    1    2    0    0 -0.21500857623E+02  0.92955282112E+02 -0.12427219319E+03  0.17814722440E+03  0.84793184932E+02 0.  0.
         23    2    1    2    0    0 -0.48086357873E+02 -0.90674482613E+02 -0.13071668679E+03  0.19051076070E+03  0.93130758207E+02 0.  0.
        -11    1    3    3    0    0  0.20356685311E+02  0.10060222735E+01 -0.34823393644E+01  0.20676880933E+02  0.00000000000E+00 0.  1.
         11    1    3    3    0    0 -0.41857542934E+02  0.91949259838E+02 -0.12078985382E+03  0.15747034347E+03  0.00000000000E+00 0. -1.
        -13    1    4    4    0    0 -0.29128982727E+02 -0.35477567097E+02  0.15611555928E+01  0.45930301639E+02  0.00000000000E+00 0.  1.
         13    1    4    4    0    0 -0.18957375146E+02 -0.55196915516E+02 -0.13227784239E+03  0.14458045906E+03  0.00000000000E+00 0. -1.
          2    1    1    2  501    0  0.69587215496E+02 -0.22807994985E+01 -0.67676370708E+02  0.97096208778E+02  0.00000000000E+00 0. -1.
<scales pt_clust_5="13000.00000" pt_clust_6="13000.00000" pt_clust_7="13000.00000" pt_clust_8="13000.00000" pt_clust_9="69.62462"></scales>
<clustering>
<clus scale="   69.625">  1  9  2 -1</clus>
<clus scale="   84.793">  5  6 -1 -1</clus>
<clus scale="   93.131">  7  8 -1 -1</clus>
<clus scale="  125.549">  2  5  1 -1</clus>
<clus scale="   69.625">  1  5  2 -1</clus>
</clustering>
</event>
<event>
 9    1  0.1321469E-005  0.1344081E+03  0.7546771E-02  0.1221423E+00
          2   -1    0    0  502    0 -0.00000000000E+00  0.00000000000E+00  0.30916301698E+03  0.30916301698E+03  0.00000000000E+00 0. -1.
         21   -1    0    0  501  502  0.00000000000E+00 -0.00000000000E+00 -0.72627566501E+02  0.72627566501E+02  0.00000000000E+00 0.  1.
         23    2    1    2    0    0  0.79954860030E+02  0.51621434799E+02  0.12636707531E+03  0.18247377948E+03  0.90942236073E+02 0.  0.
         23    2    1    2    0    0 -0.97402431335E+02 -0.31600910547E+02  0.10189038684E+03  0.17150018619E+03  0.92438150970E+02 0.  0.
        -11    1    4    4    0    0 -0.43890053155E+02 -0.60556629713E+02  0.40434551934E+02  0.85019969174E+02  0.00000000000E+00 0.  1.
         11    1    4    4    0    0 -0.53512378180E+02  0.28955719166E+02  0.61455834904E+02  0.86480217013E+02  0.00000000000E+00 0. -1.
        -13    1    3    3    0    0  0.16457381389E+02  0.24654622221E+02  0.10669644268E+03  0.11073764798E+03  0.00000000000E+00 0. -1.
         13    1    3    3    0    0  0.63497478641E+02  0.26966812578E+02  0.19670632625E+02  0.71736131497E+02  0.00000000000E+00 0.  1.
          2    1    1    2  501    0  0.17447571305E+02 -0.20020524252E+02  0.82779883301E+01  0.27816617813E+02  0.00000000000E+00 0. -1.
<scales pt_clust_5="13000.00000" pt_clust_6="13000.00000" pt_clust_7="13000.00000" pt_clust_8="13000.00000" pt_clust_9="26.55634"></scales>
<clustering>
<clus scale="   26.556">  2  9  1 -1</clus>
<clus scale="   90.942">  7  8 -1 -1</clus>
<clus scale="   92.438">  5  6 -1 -1</clus>
<clus scale="  133.384">  1  7  2 -1</clus>
<clus scale="   26.556">  2  5  1 -1</clus>
</clustering>
</event>
<event>
 9    1  0.1321469E-005  0.1254042E+03  0.7546771E-02  0.1249891E+00
         21   -1    0    0  501  502  0.00000000000E+00  0.00000000000E+00  0.43018751258E+03  0.43018751258E+03  0.00000000000E+00 0. -1.
         -1   -1    0    0    0  501 -0.00000000000E+00 -0.00000000000E+00 -0.47060332011E+02  0.47060332011E+02  0.00000000000E+00 0.  1.
         23    2    1    2    0    0  0.13291560698E+02  0.20086251474E+02  0.47850697386E+02  0.10461132211E+03  0.89853861297E+02 0.  0.
         23    2    1    2    0    0  0.35520223793E+01 -0.49132272000E+01  0.19961091798E+03  0.23508990297E+03  0.12404026458E+03 0.  0.
        -11    1    4    4    0    0 -0.37012991580E+02 -0.14840303830E+02  0.18737629412E+03  0.19157262791E+03  0.00000000000E+00 0. -1.
         11    1    4    4    0    0  0.40565013959E+02  0.99270766302E+01  0.12234623856E+02  0.43517275062E+02  0.00000000000E+00 0.  1.
        -13    1    3    3    0    0  0.98892844540E+01  0.51063979863E+02  0.51547393792E+02  0.73228831708E+02  0.00000000000E+00 0.  1.
         13    1    3    3    0    0  0.34022762443E+01 -0.30977728389E+02 -0.36966964067E+01  0.31382490406E+02  0.00000000000E+00 0. -1.
         -1    1    1    2    0  502 -0.16843583078E+02 -0.15173024274E+02  0.13566556520E+03  0.13754661951E+03  0.00000000000E+00 0.  1.
<scales pt_clust_5="13000.00000" pt_clust_6="13000.00000" pt_clust_7="13000.00000" pt_clust_8="13000.00000" pt_clust_9="22.66996"></scales>
<clustering>
<clus scale="   22.670">  1  9  2 -1</clus>
<clus scale="   89.854">  7  8 -1 -1</clus>
<clus scale="   91.728">  2  7  1 -1</clus>
<clus scale="  124.040">  5  6 -1 -1</clus>
<clus scale="   22.670">  1  5  2 -1</clus>
</clustering>
</event>
<event>
 9    1  0.1321469E-005  0.1787352E+03  0.7546771E-02  0.1169607E+00
         21   -1    0    0  501  502  0.00000000000E+00  0.00000000000E+00  0.26786931762E+03  0.26786931762E+03  0.00000000000E+00 0. -1.
          3   -1    0    0  502    0 -0.00000000000E+00 -0.00000000000E+00 -0.16692521115E+03  0.16692521115E+03  0.00000000000E+00 0. -1.
         23    2    1    2    0    0 -0.15681256672E+03 -0.40289588893E+02 -0.34654574767E+02  0.18998705725E+03  0.93170329594E+02 0.  0.
         23    2    1    2    0    0  0.12963075701E+03  0.44932590118E+02  0.78099952311E+02  0.18103826212E+03  0.88612521593E+02 0.  0.
        -11    1    3    3    0    0 -0.12946397030E+03 -0.69226023533E+02 -0.23878460570E+02  0.14873917715E+03  0.00000000000E+00 0. -1.
         11    1    3    3    0    0 -0.27348596421E+02  0.28936434640E+02 -0.10776114197E+02  0.41247880104E+02  0.00000000000E+00 0.  1.
        -13    1    4    4    0    0  0.94419095618E+01  0.41688811578E+02  0.25763915577E+02  0.49908776912E+02  0.00000000000E+00 0.  1.
         13    1    4    4    0    0  0.12018884745E+03  0.32437785398E+01  0.52336036734E+02  0.13112948521E+03  0.00000000000E+00 0. -1.
          3    1    1    2  501    0  0.27181809706E+02 -0.46430012251E+01  0.57498728930E+02  0.63769209403E+02  0.00000000000E+00 0. -1.
<scales pt_clust_5="13000.00000" pt_clust_6="13000.00000" pt_clust_7="13000.00000" pt_clust_8="13000.00000" pt_clust_9="27.57550"></scales>
<clustering>
<clus scale="   27.576">  1  9  2 -1</clus>
<clus scale="   88.613">  7  8 -1 -1</clus>
<clus scale="   93.170">  5  6 -1 -1</clus>
<clus scale="  176.402">  1  7  2 -1</clus>
<clus scale="   27.576">  1  5  2 -1</clus>
</clustering>
</event>
<event>
 9    1  0.1321469E-005  0.2315826E+03  0.7546771E-02  0.1162684E+00
          1   -1    0    0  502    0 -0.00000000000E+00  0.00000000000E+00  0.65879013331E+03  0.65879013331E+03  0.00000000000E+00 0. -1.
         21   -1    0    0  501  502  0.00000000000E+00 -0.00000000000E+00 -0.17374993400E+03  0.17374993400E+03  0.00000000000E+00 0.  1.
         23    2    1    2    0    0  0.21835275344E+02 -0.32144157502E+02  0.92825436425E+02  0.13290409310E+03  0.86815379996E+02 0.  0.
         23    2    1    2    0    0  0.17619672104E+03 -0.66384052514E+02 -0.24432977962E+02  0.22791590922E+03  0.12608157808E+03 0.  0.
        -13    1    4    4    0    0  0.14468753279E+02 -0.15950123683E+02  0.40998198289E+02  0.46309864283E+02  0.00000000000E+00 0. -1.
         13    1    4    4    0    0  0.16172796776E+03 -0.50433928831E+02 -0.65431176250E+02  0.18160604494E+03  0.00000000000E+00 0.  1.
        -13    1    3    3    0    0 -0.30219879429E+02 -0.29750842025E+02  0.34305205253E+02  0.54545401468E+02  0.00000000000E+00 0.  1.
         13    1    3    3    0    0  0.52055154774E+02 -0.23933154771E+01  0.58520231172E+02  0.78358691630E+02  0.00000000000E+00 0. -1.
          1    1    1    2  501    0 -0.19803199638E+03  0.98528210015E+02  0.41664774085E+03  0.47172006499E+03  0.00000000000E+00 0. -1.
<scales pt_clust_5="13000.00000" pt_clust_6="13000.00000" pt_clust_7="13000.00000" pt_clust_8="13000.00000" pt_clust_9="194.25234"></scales>
<clustering>
<clus scale="   86.815">  7  8 -1 -1</clus>
<clus scale="   95.115">  1  7  2 -1</clus>
<clus scale="  126.082">  5  6 -1 -1</clus>
<clus scale="  194.252">  2  9  1 -1</clus>
<clus scale="  194.252">  2  5  1 -1</clus>
</clustering>
</event>
<event>
 9    1  0.1321469E-005  0.9450614E+02  0.7546771E-02  0.1292728E+00
         21   -1    0    0  501  502  0.00000000000E+00  0.00000000000E+00  0.10229916157E+03  0.10229916157E+03  0.00000000000E+00 0.  1.
          4   -1    0    0  502    0 -0.00000000000E+00 -0.00000000000E+00 -0.39897009009E+03  0.39897009009E+03  0.00000000000E+00 0.  1.
         23    2    1    2    0    0  0.24279819995E+02 -0.16336657262E+02 -0.22525103383E+03  0.24488540657E+03  0.91511955942E+02 0.  0.
         23    2    1    2    0    0 -0.20582830443E+02 -0.72108658115E+01 -0.14867849643E+03  0.17553184995E+03  0.90722023515E+02 0.  0.
        -11    1    3    3    0    0  0.38815347226E+02 -0.37339537822E+02 -0.20593530450E+03  0.21286197854E+03  0.00000000000E+00 0.  1.
         11    1    3    3    0    0 -0.14535527230E+02  0.21002880559E+02 -0.19315729324E+02  0.32023428033E+02  0.00000000000E+00 0. -1.
        -11    1    4    4    0    0  0.27787679672E+02  0.53368424479E+01 -0.13379159264E+02  0.31299184199E+02  0.00000000000E+00 0. -1.
         11    1    4    4    0    0 -0.48370510116E+02 -0.12547708259E+02 -0.13529933717E+03  0.14423266575E+03  0.00000000000E+00 0.  1.
          4    1    1    2  501    0 -0.36969895521E+01  0.23547523074E+02  0.77258601748E+02  0.80851995144E+02  0.00000000000E+00 0.  1.
<scales pt_clust_5="13000.00000" pt_clust_6="13000.00000" pt_clust_7="13000.00000" pt_clust_8="13000.00000" pt_clust_9="23.83597"></scales>
<clustering>
<clus scale="   23.836">  1  9  2 -1</clus>
<clus scale="   90.722">  7  8 -1 -1</clus>
<clus scale="   91.512">  5  6 -1 -1</clus>
<clus scale="   93.741">  1  7  2 -1</clus>
<clus scale="   23.836">  1  5  2 -1</clus>
</clustering>
</event>
<event>
 9    1  0.1321469E-005  0.9683645E+02  0.7546771E-02  0.1288106E+00
         -3   -1    0    0    0  501 -0.00000000000E+00  0.00000000000E+00  0.20915267854E+03  0.20915267854E+03  0.00000000000E+00 0.  1.
         21   -1    0    0  501  502  0.00000000000E+00 -0.00000000000E+00 -0.20951600591E+03  0.20951600591E+03  0.00000000000E+00 0.  1.
         23    2    1    2    0    0  0.26836599577E+02 -0.10318043907E+02  0.87254138837E+02  0.12925222496E+03  0.90918577899E+02 0.  0.
         23    2    1    2    0    0  0.16436639218E+02  0.48223605996E+02  0.66413787670E+02  0.12499312780E+03  0.92826782349E+02 0.  0.
        -11    1    4    4    0    0  0.38602262054E+02  0.99116974494E+01  0.70037578570E+02  0.80583117301E+02  0.00000000000E+00 0.  1.
         11    1    4    4    0    0 -0.22165622837E+02  0.38311908547E+02 -0.36237909000E+01  0.44410010501E+02  0.00000000000E+00 0. -1.
        -13    1    3    3    0    0 -0.27357281140E+02 -0.26385698585E+02  0.26919045216E+02  0.46575325190E+02  0.00000000000E+00 0. -1.
         13    1    3    3    0    0  0.54193880718E+02  0.16067654678E+02  0.60335093621E+02  0.82676899775E+02  0.00000000000E+00 0.  1.
         -3    1    1    2    0  502 -0.43273238795E+02 -0.37905562090E+02 -0.15403125387E+03  0.16442333168E+03  0.00000000000E+00 0.  1.
<scales pt_clust_5="13000.00000" pt_clust_6="13000.00000" pt_clust_7="13000.00000" pt_clust_8="13000.00000" pt_clust_9="57.52743"></scales>
<clustering>
<clus scale="   57.527">  2  9  1 -1</clus>
<clus scale="   90.919">  7  8 -1 -1</clus>
<clus scale="   92.827">  5  6 -1 -1</clus>
<clus scale="   95.009">  1  7  2 -1</clus>
<clus scale="   57.527">  2  5  1 -1</clus>
</clustering>
</event>
<event>
 9    1  0.1563795E-005  0.1169209E+03  0.7546771E-02  0.1252731E+00
          1   -1    0    0  502    0 -0.00000000000E+00  0.00000000000E+00  0.11906663712E+03  0.11906663712E+03  0.00000000000E+00 0. -1.
         21   -1    0    0  501  502  0.00000000000E+00 -0.00000000000E+00 -0.54861173531E+03  0.54861173531E+03  0.00000000000E+00 0. -1.
         23    2    1    2    0    0  0.16050907675E+02 -0.50911561774E+02  0.73487859455E+02  0.12854892762E+03  0.90965611878E+02 0.  0.
         23    2    1    2    0    0 -0.58934236697E+02  0.77490491401E+02 -0.33290039916E+03  0.36167379721E+03  0.10250482582E+03 0.  0.
        -11    1    4    4    0    0 -0.78415985394E+02  0.88770397900E+02 -0.26893546293E+03  0.29386312040E+03  0.00000000000E+00 0. -1.
         11    1    4    4    0    0  0.19481748697E+02 -0.11279906499E+02 -0.63964936231E+02  0.67810676814E+02  0.00000000000E+00 0.  1.
        -13    1    3    3    0    0  0.21637052444E+02 -0.72370980698E+02  0.33091781640E+02  0.82466883643E+02  0.00000000000E+00 0. -1.
         13    1    3    3    0    0 -0.55861447688E+01  0.21459418924E+02  0.40396077815E+02  0.46082043973E+02  0.00000000000E+00 0.  1.
          1    1    1    2  501    0  0.42883329022E+02 -0.26578929627E+02 -0.17013255848E+03  0.17745564760E+03  0.00000000000E+00 0. -1.
<scales pt_clust_5="13000.00000" pt_clust_6="13000.00000" pt_clust_7="13000.00000" pt_clust_8="13000.00000" pt_clust_9="50.45215"></scales>
<clustering>
<clus scale="   50.452">  2  9  1 -1</clus>
<clus scale="   90.966">  7  8 -1 -1</clus>
<clus scale="  102.505">  5  6 -1 -1</clus>
<clus scale="  106.949">  1  7  2 -1</clus>
<clus scale="   50.452">  2  5  1 -1</clus>
</clustering>
</event>
<event>
 9    1  0.1321469E-005  0.1579985E+03  0.7546771E-02  0.1211697E+00
          2   -1    0    0  502    0 -0.00000000000E+00  0.00000000000E+00  0.13786163251E+03  0.13786163251E+03  0.00000000000E+00 0. -1.
         21   -1    0    0  501  502  0.00000000000E+00 -0.00000000000E+00 -0.35874966571E+03  0.35874966571E+03  0.00000000000E+00 0. -1.
         23    2    1    2    0    0 -0.13155779432E+02  0.25076420386E+00 -0.17500336046E+03  0.20197677668E+03  0.99976520900E+02 0.  0.
         23    2    1    2    0    0  0.60804917081E+02 -0.11720085003E+03 -0.50991110150E+02  0.16824686947E+03  0.90959543659E+02 0.  0.
        -13    1    3    3    0    0  0.39298470248E+02  0.13342565567E+02 -0.10915150617E+03  0.11677519051E+03  0.00000000000E+00 0.  1.
         13    1    3    3    0    0 -0.52454249680E+02 -0.13091801363E+02 -0.65851854286E+02  0.85201586167E+02  0.00000000000E+00 0. -1.
        -13    1    4    4    0    0  0.71139890979E+02 -0.41717409958E+02 -0.14359772561E+02  0.83710390336E+02  0.00000000000E+00 0. -1.
         13    1    4    4    0    0 -0.10334973899E+02 -0.75483440074E+02 -0.36631337589E+02  0.84536479134E+02  0.00000000000E+00 0.  1.
          2    1    1    2  501    0 -0.47649137648E+02  0.11695008583E+03  0.51064374081E+01  0.12638765207E+03  0.00000000000E+00 0. -1.
<scales pt_clust_5="13000.00000" pt_clust_6="13000.00000" pt_clust_7="13000.00000" pt_clust_8="13000.00000" pt_clust_9="129.18943"></scales>
<clustering>
<clus scale="   90.960">  7  8 -1 -1</clus>
<clus scale="   99.977">  5  6 -1 -1</clus>
<clus scale="  100.839">  1  5  2 -1</clus>
<clus scale="  129.189">  2  9  1 -1</clus>
<clus scale="  129.189">  2  5  1 -1</clus>
</clustering>
</event>
<event>
 9    1  0.1321469E-005  0.9488623E+02  0.7546771E-02  0.1293052E+00
          1   -1    0    0  502    0 -0.00000000000E+00  0.00000000000E+00  0.78018240218E+02  0.78018240218E+02  0.00000000000E+00 0. -1.
         21   -1    0    0  501  502  0.00000000000E+00 -0.00000000000E+00 -0.19847745983E+03  0.19847745983E+03  0.00000000000E+00 0.  1.
         23    2    1    2    0    0  0.70806960850E+01  0.47775218085E+01 -0.67254168089E+01  0.91322862411E+02  0.90673441514E+02 0.  0.
         23    2    1    2    0    0 -0.85196783675E+01 -0.27038989162E+02 -0.35772487389E+02  0.10408270075E+03  0.93540610900E+02 0.  0.
        -11    1    3    3    0    0 -0.34356109086E+02  0.27063145378E+02 -0.68810968935E+01  0.44273079447E+02  0.00000000000E+00 0.  1.
         11    1    3    3    0    0  0.41436805171E+02 -0.22285623569E+02  0.15568008458E+00  0.47049782964E+02  0.00000000000E+00 0. -1.
        -11    1    4    4    0    0 -0.17092482946E+02 -0.49713682990E+02 -0.52761702958E+02  0.74480873711E+02  0.00000000000E+00 0.  1.
         11    1    4    4    0    0  0.85728045784E+01  0.22674693828E+02  0.16989215569E+02  0.29601827041E+02  0.00000000000E+00 0. -1.
          1    1    1    2  501    0  0.14389822826E+01  0.22261467353E+02 -0.77961315414E+02  0.81090136883E+02  0.00000000000E+00 0. -1.
<scales pt_clust_5="13000.00000" pt_clust_6="13000.00000" pt_clust_7="13000.00000" pt_clust_8="13000.00000" pt_clust_9="22.30793"></scales>
<clustering>
<clus scale="   22.308">  2  9  1 -1</clus>
<clus scale="   90.673">  5  6 -1 -1</clus>
<clus scale="   92.061">  1  5  2 -1</clus>
<clus scale="   93.541">  7  8 -1 -1</clus>
<clus scale="   22.308">  2  5  1 -1</clus>
</clustering>
</event>
<event>
 9    1  0.1321469E-005  0.2110093E+03  0.7546771E-02  0.1141325E+00
          1   -1    0    0  502    0 -0.00000000000E+00  0.00000000000E+00  0.44555799326E+03  0.44555799326E+03  0.00000000000E+00 0. -1.
         21   -1    0    0  501  502  0.00000000000E+00 -0.00000000000E+00 -0.12095381275E+03  0.12095381275E+03  0.00000000000E+00 0.  1.
         23    2    1    2    0    0 -0.57362332316E+02 -0.19381630556E+03  0.17939782762E+03  0.28412342119E+03  0.87677479695E+02 0.  0.
         23    2    1    2    0    0  0.75966220570E+02  0.15748608919E+03  0.10312094146E+03  0.22376099247E+03  0.94139886482E+02 0.  0.
        -13    1    4    4    0    0  0.12140964146E+01  0.10263325699E+03  0.74147120115E+02  0.12662091017E+03  0.00000000000E+00 0.  1.
         13    1    4    4    0    0  0.74752124156E+02  0.54852832206E+02  0.28973821345E+02  0.97140082305E+02  0.00000000000E+00 0. -1.
        -13    1    3    3    0    0 -0.34849892148E+02 -0.16933212644E+03  0.18167317603E+03  0.25078482195E+03  0.00000000000E+00 0.  1.
         13    1    3    3    0    0 -0.22512440167E+02 -0.24484179113E+02 -0.22753484132E+01  0.33338599243E+02  0.00000000000E+00 0. -1.
          1    1    1    2  501    0 -0.18603888255E+02  0.36330216361E+02  0.42085411429E+02  0.58627392353E+02  0.00000000000E+00 0. -1.
<scales pt_clust_5="13000.00000" pt_clust_6="13000.00000" pt_clust_7="13000.00000" pt_clust_8="13000.00000" pt_clust_9="40.81655"></scales>
<clustering>
<clus scale="   40.817">  2  9  1 -1</clus>
<clus scale="   87.677">  7  8 -1 -1</clus>
<clus scale="   94.140">  5  6 -1 -1</clus>
<clus scale="  208.206">  1  7  2 -1</clus>
<clus scale="   40.817">  2  5  1 -1</clus>
</clustering>
</event>
<event>
 9    1  0.1321469E-005  0.1043514E+03  0.7546771E-02  0.1272347E+00
          2   -1    0    0  502    0 -0.00000000000E+00  0.00000000000E+00  0.90604524208E+03  0.90604524208E+03  0.00000000000E+00 0. -1.
         21   -1    0    0  501  502  0.00000000000E+00 -0.00000000000E+00 -0.27365764092E+02  0.27365764092E+02  0.00000000000E+00 0.  1.
         23    2    1    2    0    0  0.53822479815E+02  0.53389921297E+02  0.44011527483E+03  0.45578978165E+03  0.91079783094E+02 0.  0.
         23    2    1    2    0    0  0.10652096360E+02 -0.13669621464E+02  0.12100500262E+03  0.15115756798E+03  0.88916106486E+02 0.  0.
        -13    1    4    4    0    0  0.38421614917E+02  0.17116338462E+02  0.31607211213E+02  0.52613737140E+02  0.00000000000E+00 0.  1.
         13    1    4    4    0    0 -0.27769518558E+02 -0.30785959925E+02  0.89397791405E+02  0.98543830844E+02  0.00000000000E+00 0. -1.
        -13    1    3    3    0    0 -0.25493378239E+02  0.64176478609E+01  0.93292362001E+02  0.96925555690E+02  0.00000000000E+00 0. -1.
         13    1    3    3    0    0  0.79315858055E+02  0.46972273436E+02  0.34682291283E+03  0.35886422596E+03  0.00000000000E+00 0.  1.
          2    1    1    2  501    0 -0.64474576175E+02 -0.39720299834E+02  0.31755920054E+03  0.32646365653E+03  0.00000000000E+00 0. -1.
<scales pt_clust_5="13000.00000" pt_clust_6="13000.00000" pt_clust_7="13000.00000" pt_clust_8="13000.00000" pt_clust_9="75.72766"></scales>
<clustering>
<clus scale="   75.728">  2  9  1 -1</clus>
<clus scale="   88.916">  5  6 -1 -1</clus>
<clus scale="   91.080">  7  8 -1 -1</clus>
<clus scale="  102.468">  2  5  1 -1</clus>
<clus scale="   75.728">  2  5  1 -1</clus>
</clustering>
</event>
<event>
 9    1  0.1321469E-005  0.9538098E+02  0.7546771E-02  0.1290497E+00
         21   -1    0    0  501  502  0.00000000000E+00  0.00000000000E+00  0.39870238725E+03  0.39870238725E+03  0.00000000000E+00 0.  1.
          1   -1    0    0  502    0 -0.00000000000E+00 -0.00000000000E+00 -0.92754457000E+02  0.92754457000E+02  0.00000000000E+00 0. -1.
         23    2    1    2    0    0 -0.18850829730E+02 -0.24690036252E+02 -0.38733027539E+02  0.10254547501E+03  0.89723883950E+02 0.  0.
         23    2    1    2    0    0  0.48828872819E+02 -0.25179350443E+01  0.10833020092E+03  0.14911846475E+03  0.90057122322E+02 0.  0.
        -11    1    4    4    0    0  0.62464898482E+02 -0.25522585288E+02  0.10086277811E+03  0.12135306304E+03  0.00000000000E+00 0.  1.
         11    1    4    4    0    0 -0.13636025663E+02  0.23004650243E+02  0.74674228130E+01  0.27765401711E+02  0.00000000000E+00 0. -1.
        -13    1    3    3    0    0  0.23922693667E+02 -0.42050225038E+02 -0.24563323774E+02  0.54257474811E+02  0.00000000000E+00 0.  1.
         13    1    3    3    0    0 -0.42773523397E+02  0.17360188786E+02 -0.14169703765E+02  0.48288000200E+02  0.00000000000E+00 0. -1.
          1    1    1    2  501    0 -0.29978043089E+02  0.27207971297E+02  0.23635075687E+03  0.23979290449E+03  0.00000000000E+00 0. -1.
<scales pt_clust_5="13000.00000" pt_clust_6="13000.00000" pt_clust_7="13000.00000" pt_clust_8="13000.00000" pt_clust_9="40.48403"></scales>
<clustering>
<clus scale="   40.484">  1  9  2 -1</clus>
<clus scale="   89.724">  7  8 -1 -1</clus>
<clus scale="   90.057">  5  6 -1 -1</clus>
<clus scale="   95.066">  2  7  1 -1</clus>
<clus scale="   40.484">  1  5  2 -1</clus>
</clustering>
</event>
<event>
 9    1  0.1321469E-005  0.1164455E+03  0.7546771E-02  0.1249559E+00
         21   -1    0    0  501  502  0.00000000000E+00  0.00000000000E+00  0.11644751415E+03  0.11644751415E+03  0.00000000000E+00 0.  1.
          3   -1    0    0  502    0 -0.00000000000E+00 -0.00000000000E+00 -0.25564136705E+03  0.25564136705E+03  0.00000000000E+00 0. -1.
         23    2    1    2    0    0  0.23247432846E+02 -0.68135275117E+02 -0.18704981999E+03  0.22162894503E+03  0.94598600765E+02 0.  0.
         23    2    1    2    0    0  0.76727881544E+01  0.53725055956E+02  0.42443038867E+02  0.11591989745E+03  0.93224233762E+02 0.  0.
        -11    1    4    4    0    0  0.29499099297E+02  0.59607812494E+02  0.58190028169E+02  0.88370626047E+02  0.00000000000E+00 0.  1.
         11    1    4    4    0    0 -0.21826311143E+02 -0.58827565379E+01 -0.15746989302E+02  0.27549271400E+02  0.00000000000E+00 0. -1.
        -11    1    3    3    0    0 -0.17465755424E+02 -0.65767506307E+02 -0.15656231131E+03  0.17071079292E+03  0.00000000000E+00 0. -1.
         11    1    3    3    0    0  0.40713188270E+02 -0.23677688105E+01 -0.30487508684E+02  0.50918152107E+02  0.00000000000E+00 0.  1.
          3    1    1    2  501    0 -0.30920221000E+02  0.14410219161E+02  0.54129282330E+01  0.34540038724E+02  0.00000000000E+00 0. -1.
<scales pt_clust_5="13000.00000" pt_clust_6="13000.00000" pt_clust_7="13000.00000" pt_clust_8="13000.00000" pt_clust_9="34.11326"></scales>
<clustering>
<clus scale="   34.113">  1  9  2 -1</clus>
<clus scale="   93.224">  5  6 -1 -1</clus>
<clus scale="   94.599">  7  8 -1 -1</clus>
<clus scale="  115.332">  1  5  2 -1</clus>
<clus scale="   34.113">  1  5  2 -1</clus>
</clustering>
</event>
<event>
 9    1  0.1321469E-005  0.1089199E+03  0.7546771E-02  0.1263087E+00
         -3   -1    0    0    0  501 -0.00000000000E+00  0.00000000000E+00  0.69494585909E+03  0.69494585909E+03  0.00000000000E+00 0.  1.
         21   -1    0    0  501  502  0.00000000000E+00 -0.00000000000E+00 -0.38586545856E+02  0.38586545856E+02  0.00000000000E+00 0.  1.
         23    2    1    2    0    0  0.20011454208E+02 -0.56547775292E+02  0.38959215160E+03  0.40406771549E+03  0.88828851881E+02 0.  0.
         23    2    1    2    0    0 -0.44198097556E+02  0.48843256756E+02  0.27957168620E+03  0.30103391086E+03  0.90121874180E+02 0.  0.
        -13    1    3    3    0    0  0.46832421155E+02 -0.30382027422E+01  0.15410141217E+03  0.16108926587E+03  0.00000000000E+00 0.  1.
         13    1    3    3    0    0 -0.26820966947E+02 -0.53509572550E+02  0.23549073943E+03  0.24297844962E+03  0.00000000000E+00 0. -1.
        -13    1    4    4    0    0 -0.23797977954E+02  0.54820123035E+02  0.27196878326E+03  0.27845755280E+03  0.00000000000E+00 0.  1.
         13    1    4    4    0    0 -0.20400119601E+02 -0.59768662792E+01  0.76029029450E+01  0.22576358065E+02  0.00000000000E+00 0. -1.
         -3    1    1    2    0  502  0.24186643347E+02  0.77045185363E+01 -0.12804524561E+02  0.28430778595E+02  0.00000000000E+00 0.  1.
<scales pt_clust_5="13000.00000" pt_clust_6="13000.00000" pt_clust_7="13000.00000" pt_clust_8="13000.00000" pt_clust_9="25.38412"></scales>
<clustering>
<clus scale="   25.384">  2  9  1 -1</clus>
<clus scale="   88.829">  5  6 -1 -1</clus>
<clus scale="   90.122">  7  8 -1 -1</clus>
<clus scale="  107.852">  1  5  2 -1</clus>
<clus scale="   25.384">  2  5  1 -1</clus>
</clustering>
</event>
<event>
 9    1  0.1321469E-005  0.1412582E+03  0.7546771E-02  0.1211844E+00
          2   -1    0    0  502    0 -0.00000000000E+00  0.00000000000E+00  0.44888894670E+03  0.44888894670E+03  0.00000000000E+00 0. -1.
         21   -1    0    0  501  502  0.00000000000E+00 -0.00000000000E+00 -0.14611010270E+03  0.14611010270E+03  0.00000000000E+00 0.  1.
         23    2    1    2    0    0  0.37211760567E+02  0.86655588230E+02  0.25462619447E+03  0.28643042490E+03  0.91181046832E+02 0.  0.
         23    2    1    2    0    0 -0.80247584627E+02 -0.11829718622E+03  0.12776612350E+03  0.21269590620E+03  0.92094880934E+02 0.  0.
        -11    1    3    3    0    0 -0.22492359463E+02  0.53913880050E+02  0.15602206356E+03  0.16659981096E+03  0.00000000000E+00 0.  1.
         11    1    3    3    0    0  0.59704120031E+02  0.32741708180E+02  0.98604130916E+02  0.11983061394E+03  0.00000000000E+00 0. -1.
        -13    1    4    4    0    0 -0.77872332260E+02 -0.48851448515E+02  0.38725446649E+02  0.99750811384E+02  0.00000000000E+00 0.  1.
         13    1    4    4    0    0 -0.23752523674E+01 -0.69445737708E+02  0.89040676848E+02  0.11294509482E+03  0.00000000000E+00 0. -1.
          2    1    1    2  501    0  0.43035824059E+02  0.31641597993E+02 -0.79613473969E+02  0.95872718296E+02  0.00000000000E+00 0. -1.
<scales pt_clust_5="13000.00000" pt_clust_6="13000.00000" pt_clust_7="13000.00000" pt_clust_8="13000.00000" pt_clust_9="53.41604"></scales>
<clustering>
<clus scale="   53.416">  2  9  1 -1</clus>
<clus scale="   91.181">  5  6 -1 -1</clus>
<clus scale="   92.095">  7  8 -1 -1</clus>
<clus scale="  140.664">  1  5  2 -1</clus>
<clus scale="   53.416">  2  5  1 -1</clus>
</clustering>
</event>
<event>
 9    1  0.1321469E-005  0.1231265E+03  0.7546771E-02  0.1238875E+00
         21   -1    0    0  501  502  0.00000000000E+00  0.00000000000E+00  0.11580114704E+03  0.11580114704E+03  0.00000000000E+00 0.  1.
          2   -1    0    0  502    0 -0.00000000000E+00 -0.00000000000E+00 -0.44333413396E+03  0.44333413396E+03  0.00000000000E+00 0. -1.
         23    2    1    2    0    0 -0.57336906631E+02 -0.51061478750E+02 -0.24661831386E+03  0.27305809451E+03  0.88573894399E+02 0.  0.
         23    2    1    2    0    0  0.25244963296E+01  0.14105853139E+03 -0.60953419691E+02  0.17882831031E+03  0.91435019748E+02 0.  0.
        -11    1    4    4    0    0 -0.15934412012E+02  0.88228092451E+02  0.80132311539E+01  0.90012852733E+02  0.00000000000E+00 0.  1.
         11    1    4    4    0    0  0.18458908341E+02  0.52830438940E+02 -0.68966650845E+02  0.88815457576E+02  0.00000000000E+00 0. -1.
        -13    1    3    3    0    0 -0.62443321586E+02 -0.71579127518E+02 -0.18586658653E+03  0.20873219181E+03  0.00000000000E+00 0. -1.
         13    1    3    3    0    0  0.51064149543E+01  0.20517648768E+02 -0.60751727330E+02  0.64325902701E+02  0.00000000000E+00 0.  1.
          2    1    1    2  501    0  0.54812410302E+02 -0.89997052640E+02 -0.19961253364E+02  0.10724887618E+03  0.00000000000E+00 0. -1.
<scales pt_clust_5="13000.00000" pt_clust_6="13000.00000" pt_clust_7="13000.00000" pt_clust_8="13000.00000" pt_clust_9="105.37490"></scales>
<clustering>
<clus scale="   88.574">  7  8 -1 -1</clus>
<clus scale="   91.435">  5  6 -1 -1</clus>
<clus scale="  105.375">  1  9  2 -1</clus>
<clus scale="  121.017">  2  7  1 -1</clus>
<clus scale="  105.375">  1  5  2 -1</clus>
</clustering>
</event>
<event>
 9    1  0.1321469E-005  0.9593516E+02  0.7546771E-02  0.1290710E+00
         -4   -1    0    0    0  501 -0.00000000000E+00  0.00000000000E+00  0.65458408913E+02  0.65458408913E+02  0.00000000000E+00 0. -1.
         21   -1    0    0  501  502  0.00000000000E+00 -0.00000000000E+00 -0.38163576675E+03  0.38163576675E+03  0.00000000000E+00 0.  1.
         23    2    1    2    0    0  0.35255354013E+02 -0.31446745701E+02 -0.70567889424E+01  0.10062469198E+03  0.88564623661E+02 0.  0.
         23    2    1    2    0    0  0.23739196832E+02  0.12445959443E+02 -0.22350316832E+03  0.24077309685E+03  0.85437500821E+02 0.  0.
        -13    1    3    3    0    0 -0.12817536047E+02 -0.32415938938E+02  0.24946704003E+02  0.42865141644E+02  0.00000000000E+00 0. -1.
         13    1    3    3    0    0  0.48072890060E+02  0.96919323764E+00 -0.32003492946E+02  0.57759550336E+02  0.00000000000E+00 0.  1.
        -13    1    4    4    0    0 -0.52700157533E+01  0.37563726770E+02 -0.17428107588E+03  0.17836115061E+03  0.00000000000E+00 0.  1.
         13    1    4    4    0    0  0.29009212585E+02 -0.25117767327E+02 -0.49222092434E+02  0.62411946243E+02  0.00000000000E+00 0. -1.
         -4    1    1    2    0  502 -0.58994550845E+02  0.19000786258E+02 -0.85617400577E+02  0.10569638683E+03  0.00000000000E+00 0. -1.
<scales pt_clust_5="13000.00000" pt_clust_6="13000.00000" pt_clust_7="13000.00000" pt_clust_8="13000.00000" pt_clust_9="61.97892"></scales>
<clustering>
<clus scale="   61.979">  2  9  1 -1</clus>
<clus scale="   85.438">  7  8 -1 -1</clus>
<clus scale="   88.565">  5  6 -1 -1</clus>
<clus scale="   93.056">  2  7  1 -1</clus>
<clus scale="   61.979">  2  5  1 -1</clus>
</clustering>
</event>
<event>
 9    1  0.1321469E-005  0.1448884E+03  0.7546771E-02  0.1207030E+00
         21   -1    0    0  501  502  0.00000000000E+00  0.00000000000E+00  0.11339901229E+03  0.11339901229E+03  0.00000000000E+00 0. -1.
          2   -1    0    0  502    0 -0.00000000000E+00 -0.00000000000E+00 -0.75347391201E+03  0.75347391201E+03  0.00000000000E+00 0. -1.
         23    2    1    2    0    0 -0.61671453362E+02  0.12792642639E+03 -0.51089222263E+03  0.53785140955E+03  0.90026312159E+02 0.  0.
         23    2    1    2    0    0  0.32225292157E+02 -0.70624876815E+02 -0.20023117025E+03  0.23311305645E+03  0.90679837163E+02 0.  0.
        -11    1    3    3    0    0 -0.79240418833E+02  0.10681435323E+03 -0.47100593575E+03  0.48942307010E+03  0.00000000000E+00 0. -1.
         11    1    3    3    0    0  0.17568965471E+02  0.21112073161E+02 -0.39886286881E+02  0.48428339451E+02  0.00000000000E+00 0.  1.
        -13    1    4    4    0    0  0.61969327072E+02 -0.55498246009E+02 -0.16377056098E+03  0.18368736879E+03  0.00000000000E+00 0. -1.
         13    1    4    4    0    0 -0.29744034915E+02 -0.15126630806E+02 -0.36460609262E+02  0.49425687657E+02  0.00000000000E+00 0.  1.
          2    1    1    2  501    0  0.29446161205E+02 -0.57301549577E+02  0.71048493156E+02  0.95908458299E+02  0.00000000000E+00 0. -1.
<scales pt_clust_5="13000.00000" pt_clust_6="13000.00000" pt_clust_7="13000.00000" pt_clust_8="13000.00000" pt_clust_9="64.42472"></scales>
<clustering>
<clus scale="   64.425">  1  9  2 -1</clus>
<clus scale="   90.026">  5  6 -1 -1</clus>
<clus scale="   90.680">  7  8 -1 -1</clus>
<clus scale="  144.480">  2  5  1 -1</clus>
<clus scale="   64.425">  1  5  2 -1</clus>
</clustering>
</event>
<event>
 9    1  0.1321469E-005  0.1141549E+03  0.7546771E-02  0.1254910E+00
         21   -1    0    0  501  502  0.00000000000E+00  0.00000000000E+00  0.10709344384E+03  0.10709344384E+03  0.00000000000E+00 0.  1.
         -2   -1    0    0    0  501 -0.00000000000E+00 -0.00000000000E+00 -0.24216931594E+03  0.24216931594E+03  0.00000000000E+00 0.  1.
         23    2    1    2    0    0  0.56681375951E+02  0.45520799598E+02 -0.13575162487E+03  0.17888205938E+03  0.91023985512E+02 0.  0.
         23    2    1    2    0    0 -0.27873859297E+02 -0.60925490179E+02 -0.41952057405E+02  0.11667494923E+03  0.85814924526E+02 0.  0.
        -11    1    4    4    0    0  0.17135014622E+02 -0.26518743157E+02 -0.50321765472E+02  0.59406502548E+02  0.00000000000E+00 0.  1.
         11    1    4    4    0    0 -0.45008873920E+02 -0.34406747022E+02  0.83697080672E+01  0.57268446681E+02  0.00000000000E+00 0. -1.
        -13    1    3    3    0    0 -0.20818420264E+01  0.53564111262E+02 -0.42688601332E+02  0.68525650418E+02  0.00000000000E+00 0. -1.
         13    1    3    3    0    0  0.58763217977E+02 -0.80433116646E+01 -0.93063023537E+02  0.11035640896E+03  0.00000000000E+00 0.  1.
         -2    1    1    2    0  502 -0.28807516654E+02  0.15404690581E+02  0.42627810179E+02  0.53705751166E+02  0.00000000000E+00 0.  1.
<scales pt_clust_5="13000.00000" pt_clust_6="13000.00000" pt_clust_7="13000.00000" pt_clust_8="13000.00000" pt_clust_9="32.66768"></scales>
<clustering>
<clus scale="   32.668">  1  9  2 -1</clus>
<clus scale="   85.815">  5  6 -1 -1</clus>
<clus scale="   91.024">  7  8 -1 -1</clus>
<clus scale="  110.046">  1  5  2 -1</clus>
<clus scale="   32.668">  1  5  2 -1</clus>
</clustering>
</event>
<event>
 9    1  0.1321469E-005  0.1025379E+03  0.7546771E-02  0.1276268E+00
          1   -1    0    0  502    0 -0.00000000000E+00  0.00000000000E+00  0.75570102904E+03  0.75570102904E+03  0.00000000000E+00 0. -1.
         21   -1    0    0  501  502  0.00000000000E+00 -0.00000000000E+00 -0.88425744232E+02  0.88425744232E+02  0.00000000000E+00 0. -1.
         23    2    1    2    0    0  0.32123094435E+02 -0.50990644592E+02  0.52332728196E+03  0.53491684585E+03  0.92912049266E+02 0.  0.
         23    2    1    2    0    0 -0.40641718107E+02 -0.31685951020E+02  0.18823300430E+03  0.21503377459E+03  0.90289044547E+02 0.  0.
        -11    1    3    3    0    0  0.34350910737E+02  0.19668390766E+02  0.21204660596E+03  0.21570951246E+03  0.00000000000E+00 0.  1.
         11    1    3    3    0    0 -0.22278163029E+01 -0.70659035358E+02  0.31128067599E+03  0.31920733339E+03  0.00000000000E+00 0. -1.
        -11    1    4    4    0    0 -0.18727717593E+02 -0.60903858403E+02  0.90344397609E+02  0.11055368630E+03  0.00000000000E+00 0. -1.
         11    1    4    4    0    0 -0.21914000514E+02  0.29217907383E+02  0.97888606687E+02  0.10448008829E+03  0.00000000000E+00 0.  1.
          1    1    1    2  501    0  0.85186236727E+01  0.82676595612E+02 -0.44285001440E+02  0.94176152841E+02  0.00000000000E+00 0. -1.
<scales pt_clust_5="13000.00000" pt_clust_6="13000.00000" pt_clust_7="13000.00000" pt_clust_8="13000.00000" pt_clust_9="83.11430"></scales>
<clustering>
<clus scale="   83.114">  2  9  1 -1</clus>
<clus scale="   90.289">  7  8 -1 -1</clus>
<clus scale="   92.912">  5  6 -1 -1</clus>
<clus scale="  100.167">  2  7  1 -1</clus>
<clus scale="   83.114">  2  5  1 -1</clus>
</clustering>
</event>
<event>
 9    1  0.1321469E-005  0.2118962E+03  0.7546771E-02  0.1169583E+00
         21   -1    0    0  501  502  0.00000000000E+00  0.00000000000E+00  0.36176350595E+03  0.36176350595E+03  0.00000000000E+00 0. -1.
          2   -1    0    0  502    0 -0.00000000000E+00 -0.00000000000E+00 -0.45252092556E+03  0.45252092556E+03  0.00000000000E+00 0. -1.
         23    2    1    2    0    0 -0.52193736830E+02 -0.19105533936E+02 -0.32048008408E+03  0.33753157188E+03  0.90171337619E+02 0.  0.
         23    2    1    2    0    0  0.16032267043E+03  0.15487667554E+03  0.10478372878E+03  0.26289447933E+03  0.91889793575E+02 0.  0.
        -13    1    3    3    0    0  0.24967470985E+02  0.41490603304E+01 -0.79809238437E+02  0.83726362926E+02  0.00000000000E+00 0.  1.
         13    1    3    3    0    0 -0.77161207815E+02 -0.23254594266E+02 -0.24067084565E+03  0.25380520895E+03  0.00000000000E+00 0. -1.
        -13    1    4    4    0    0  0.12434138057E+03  0.99726354610E+02  0.28157648214E+02  0.16186098319E+03  0.00000000000E+00 0. -1.
         13    1    4    4    0    0  0.35981289859E+02  0.55150320930E+02  0.76626080568E+02  0.10103349614E+03  0.00000000000E+00 0.  1.
          2    1    1    2  501    0 -0.10812893360E+03 -0.13577114160E+03  0.12493893569E+03  0.21385838030E+03  0.00000000000E+00 0. -1.
<scales pt_clust_5="13000.00000" pt_clust_6="13000.00000" pt_clust_7="13000.00000" pt_clust_8="13000.00000" pt_clust_9="190.93523"></scales>
<clustering>
<clus scale="   90.171">  5  6 -1 -1</clus>
<clus scale="   91.890">  7  8 -1 -1</clus>
<clus scale="  105.925">  2  5  1 -1</clus>
<clus scale="  190.935">  1  9  2 -1</clus>
<clus scale="  190.935">  1  5  2 -1</clus>
</clustering>
</event>
<event>
 9    1  0.1321469E-005  0.1194023E+03  0.7546771E-02  0.1244281E+00
          1   -1    0    0  502    0 -0.00000000000E+00  0.00000000000E+00  0.57691939256E+03  0.57691939256E+03  0.00000000000E+00 0. -1.
         21   -1    0    0  501  502  0.00000000000E+00 -0.00000000000E+00 -0.38694565838E+02  0.38694565838E+02  0.00000000000E+00 0. -1.
         23    2    1    2    0    0 -0.50533965711E+02 -0.63349010894E+02  0.27461897076E+03  0.29977518109E+03  0.88785140796E+02 0.  0.
         23    2    1    2    0    0  0.78848078658E+02  0.30721047767E+02  0.23232809593E+03  0.26250425525E+03  0.88155190344E+02 0.  0.
        -13    1    4    4    0    0  0.53001207740E+02 -0.26033512596E+02  0.12787710772E+03  0.14085249901E+03  0.00000000000E+00 0. -1.
         13    1    4    4    0    0  0.25846870917E+02  0.56754560363E+02  0.10445098821E+03  0.12165175624E+03  0.00000000000E+00 0.  1.
        -13    1    3    3    0    0 -0.25796536857E+02 -0.73249995379E+02  0.12041237037E+03  0.14328350245E+03  0.00000000000E+00 0. -1.
         13    1    3    3    0    0 -0.24737428854E+02  0.99009844843E+01  0.15420660039E+03  0.15649167864E+03  0.00000000000E+00 0.  1.
          1    1    1    2  501    0 -0.28314112947E+02  0.32627963127E+02  0.31277760034E+02  0.53334522052E+02  0.00000000000E+00 0. -1.
<scales pt_clust_5="13000.00000" pt_clust_6="13000.00000" pt_clust_7="13000.00000" pt_clust_8="13000.00000" pt_clust_9="43.20038"></scales>
<clustering>
<clus scale="   43.200">  2  9  1 -1</clus>
<clus scale="   88.155">  5  6 -1 -1</clus>
<clus scale="   88.785">  7  8 -1 -1</clus>
<clus scale="  118.935">  2  5  1 -1</clus>
<clus scale="   43.200">  2  5  1 -1</clus>
</clustering>
</event>
<event>
 9    1  0.1321469E-005  0.1105345E+03  0.7546771E-02  0.1260836E+00
         21   -1    0    0  501  502  0.00000000000E+00  0.00000000000E+00  0.21571432230E+03  0.21571432230E+03  0.00000000000E+00 0. -1.
         -3   -1    0    0    0  501 -0.00000000000E+00 -0.00000000000E+00 -0.70002162076E+02  0.70002162076E+02  0.00000000000E+00 0.  1.
         23    2    1    2    0    0 -0.57340414162E+02 -0.39225903326E+02  0.47012877022E+02  0.12310073604E+03  0.90094317353E+02 0.  0.
         23    2    1    2    0    0  0.38567177695E+02  0.28138582109E+02  0.67877145576E+02  0.12486171190E+03  0.93294872364E+02 0.  0.
        -13    1    4    4    0    0  0.68900457557E+01  0.26864103122E+02  0.84592161478E+02  0.89022393534E+02  0.00000000000E+00 0. -1.
         13    1    4    4    0    0  0.31677131939E+02  0.12744789867E+01 -0.16715015902E+02  0.35839318369E+02  0.00000000000E+00 0.  1.
        -13    1    3    3    0    0 -0.80711212772E+02 -0.40529867853E+02  0.35897863385E+02  0.97188613793E+02  0.00000000000E+00 0.  1.
         13    1    3    3    0    0  0.23370798610E+02  0.13039645268E+01  0.11115013637E+02  0.25912122246E+02  0.00000000000E+00 0. -1.
         -3    1    1    2    0  502  0.18773236468E+02  0.11087321218E+02  0.30822137626E+02  0.37754036434E+02  0.00000000000E+00 0.  1.
<scales pt_clust_5="13000.00000" pt_clust_6="13000.00000" pt_clust_7="13000.00000" pt_clust_8="13000.00000" pt_clust_9="21.80282"></scales>
<clustering>
<clus scale="   21.803">  1  9  2 -1</clus>
<clus scale="   90.094">  7  8 -1 -1</clus>
<clus scale="   93.295">  5  6 -1 -1</clus>
<clus scale="  107.847">  2  7  1 -1</clus>
<clus scale="   21.803">  1  5  2 -1</clus>
</clustering>
</event>
<event>
 9    1  0.1321469E-005  0.9988653E+02  0.7546771E-02  0.1284218E+00
         -1   -1    0    0    0  501 -0.00000000000E+00  0.00000000000E+00  0.53222549293E+02  0.53222549293E+02  0.00000000000E+00 0.  1.
         21   -1    0    0  501  502  0.00000000000E+00 -0.00000000000E+00 -0.25591114967E+03  0.25591114967E+03  0.00000000000E+00 0. -1.
         23    2    1    2    0    0  0.38029567614E+02 -0.29847039763E+02 -0.65846854406E+02  0.12229807153E+03  0.91016022050E+02 0.  0.
         23    2    1    2    0    0 -0.17272661661E+02  0.31663361132E+02 -0.64506289267E+02  0.11155902772E+03  0.83566991275E+02 0.  0.
        -11    1    3    3    0    0 -0.48224558950E+01 -0.47534013116E+02 -0.84527484946E+01  0.48519969506E+02  0.00000000000E+00 0.  1.
         11    1    3    3    0    0  0.42852023509E+02  0.17686973353E+02 -0.57394105912E+02  0.73778102026E+02  0.00000000000E+00 0. -1.
        -13    1    4    4    0    0 -0.43790410140E+02 -0.14827021696E+01 -0.14921751455E+02  0.46286683749E+02  0.00000000000E+00 0.  1.
         13    1    4    4    0    0  0.26517748480E+02  0.33146063302E+02 -0.49584537812E+02  0.65272343967E+02  0.00000000000E+00 0. -1.
         -1    1    1    2    0  502 -0.20756905953E+02 -0.18163213690E+01 -0.72335456700E+02  0.75276599711E+02  0.00000000000E+00 0.  1.
<scales pt_clust_5="13000.00000" pt_clust_6="13000.00000" pt_clust_7="13000.00000" pt_clust_8="13000.00000" pt_clust_9="20.83622"></scales>
<clustering>
<clus scale="   20.836">  2  9  1 -1</clus>
<clus scale="   83.567">  7  8 -1 -1</clus>
<clus scale="   91.016">  5  6 -1 -1</clus>
<clus scale="   93.150">  2  7  1 -1</clus>
<clus scale="   20.836">  2  5  1 -1</clus>
</clustering>
</event>
<event>
 9    1  0.1321469E-005  0.1136685E+03  0.7546771E-02  0.1254477E+00
          2   -1    0    0  502    0 -0.00000000000E+00  0.00000000000E+00  0.37137813352E+03  0.37137813352E+03  0.00000000000E+00 0. -1.
         21   -1    0    0  501  502  0.00000000000E+00 -0.00000000000E+00 -0.95054096603E+02  0.95054096603E+02  0.00000000000E+00 0. -1.
         23    2    1    2    0    0 -0.47551444611E+02  0.61048140942E+02  0.23909616767E+03  0.26743238768E+03  0.91460861498E+02 0.  0.
         23    2    1    2    0    0  0.11389428361E+01 -0.57463056144E+02  0.81871952739E+02  0.13450125839E+03  0.89912578935E+02 0.  0.
        -11    1    4    4    0    0 -0.22669614325E+02  0.16990287705E+02  0.18081128325E+02  0.33608161084E+02  0.00000000000E+00 0.  1.
         11    1    4    4    0    0  0.23808557161E+02 -0.74453343849E+02  0.63790824414E+02  0.10089309731E+03  0.00000000000E+00 0. -1.
        -11    1    3    3    0    0 -0.19270128586E+02  0.79728571437E+02  0.13508187411E+03  0.15803510898E+03  0.00000000000E+00 0. -1.
         11    1    3    3    0    0 -0.28281316025E+02 -0.18680430495E+02  0.10401429357E+03  0.10939727870E+03  0.00000000000E+00 0.  1.
          2    1    1    2  501    0  0.46412501775E+02 -0.35850847975E+01 -0.44644083495E+02  0.64498584055E+02  0.00000000000E+00 0. -1.
<scales pt_clust_5="13000.00000" pt_clust_6="13000.00000" pt_clust_7="13000.00000" pt_clust_8="13000.00000" pt_clust_9="46.55076"></scales>
<clustering>
<clus scale="   46.551">  2  9  1 -1</clus>
<clus scale="   89.913">  5  6 -1 -1</clus>
<clus scale="   91.461">  7  8 -1 -1</clus>
<clus scale="  112.427">  2  5  1 -1</clus>
<clus scale="   46.551">  2  5  1 -1</clus>
</clustering>
</event>
<event>
 9    1  0.1321469E-005  0.9528614E+02  0.7546771E-02  0.1290570E+00
         -1   -1    0    0    0  501 -0.00000000000E+00  0.00000000000E+00  0.12799242393E+03  0.12799242393E+03  0.00000000000E+00 0.  1.
         21   -1    0    0  501  502  0.00000000000E+00 -0.00000000000E+00 -0.97508680020E+02  0.97508680020E+02  0.00000000000E+00 0. -1.
         23    2    1    2    0    0  0.10995595425E+02  0.34093156638E+02  0.15996246054E+02  0.99336816991E+02  0.91261584874E+02 0.  0.
         23    2    1    2    0    0  0.73691430770E+01 -0.18491941600E+02 -0.71918048645E+01  0.93750498269E+02  0.91330048147E+02 0.  0.
        -11    1    3    3    0    0  0.30533551242E+02  0.58816545304E+02  0.74520688705E+01  0.66687458216E+02  0.00000000000E+00 0.  1.
         11    1    3    3    0    0 -0.19537955816E+02 -0.24723388666E+02  0.85441771831E+01  0.32649358774E+02  0.00000000000E+00 0. -1.
        -13    1    4    4    0    0 -0.31711808519E+02  0.42588764198E+01  0.22975248647E+02  0.39390847646E+02  0.00000000000E+00 0. -1.
         13    1    4    4    0    0  0.39080951596E+02 -0.22750818020E+02 -0.30167053511E+02  0.54359650622E+02  0.00000000000E+00 0.  1.
         -1    1    1    2    0  502 -0.18364738502E+02 -0.15601215037E+02  0.21679302726E+02  0.32413788695E+02  0.00000000000E+00 0.  1.
<scales pt_clust_5="13000.00000" pt_clust_6="13000.00000" pt_clust_7="13000.00000" pt_clust_8="13000.00000" pt_clust_9="24.09693"></scales>
<clustering>
<clus scale="   24.097">  2  9  1 -1</clus>
<clus scale="   91.262">  5  6 -1 -1</clus>
<clus scale="   91.330">  7  8 -1 -1</clus>
<clus scale="   95.221">  1  5  2 -1</clus>
<clus scale="   24.097">  2  5  1 -1</clus>
</clustering>
</event>
<event>
 9    1  0.1321469E-005  0.1167308E+03  0.7546771E-02  0.1249627E+00
          2   -1    0    0  502    0 -0.00000000000E+00  0.00000000000E+00  0.39349162069E+03  0.39349162069E+03  0.00000000000E+00 0. -1.
         21   -1    0    0  501  502  0.00000000000E+00 -0.00000000000E+00 -0.66701973891E+02  0.66701973891E+02  0.00000000000E+00 0.  1.
         23    2    1    2    0    0  0.14425441497E+02  0.68483042781E+02  0.25938887243E+03  0.28433199772E+03  0.93081025303E+02 0.  0.
         23    2    1    2    0    0  0.79716338216E+01 -0.73608589405E+02  0.87155254223E+02  0.14556077698E+03  0.90056260622E+02 0.  0.
        -11    1    3    3    0    0  0.24117162323E+02 -0.11371925084E+02  0.12412394642E+03  0.12695555235E+03  0.00000000000E+00 0.  1.
         11    1    3    3    0    0 -0.96917208257E+01  0.79854967865E+02  0.13526492602E+03  0.15737644537E+03  0.00000000000E+00 0. -1.
        -13    1    4    4    0    0 -0.36408603792E+02 -0.35870202358E+02  0.15908687974E+02  0.53528909949E+02  0.00000000000E+00 0.  1.
         13    1    4    4    0    0  0.44380237613E+02 -0.37738387047E+02  0.71246566249E+02  0.92031867034E+02  0.00000000000E+00 0. -1.
          2    1    1    2  501    0 -0.22397075319E+02  0.51255466241E+01 -0.19754479858E+02  0.30300819882E+02  0.00000000000E+00 0. -1.
<scales pt_clust_5="13000.00000" pt_clust_6="13000.00000" pt_clust_7="13000.00000" pt_clust_8="13000.00000" pt_clust_9="22.97608"></scales>
<clustering>
<clus scale="   22.976">  2  9  1 -1</clus>
<clus scale="   90.056">  7  8 -1 -1</clus>
<clus scale="   93.081">  5  6 -1 -1</clus>
<clus scale="  114.333">  2  7  1 -1</clus>
<clus scale="   22.976">  2  5  1 -1</clus>
</clustering>
</event>
<event>
 9    1  0.1321469E-005  0.1413980E+03  0.7546771E-02  0.1212715E+00
          1   -1    0    0  502    0 -0.00000000000E+00  0.00000000000E+00  0.10493103819E+03  0.10493103819E+03  0.00000000000E+00 0. -1.
         21   -1    0    0  501  502  0.00000000000E+00 -0.00000000000E+00 -0.44491050670E+03  0.44491050670E+03  0.00000000000E+00 0.  1.
         23    2    1    2    0    0 -0.88564766245E+02  0.63662991472E+02  0.25027990974E+02  0.14749141072E+03  0.96076123994E+02 0.  0.
         23    2    1    2    0    0  0.52275263697E+02 -0.68422237110E+02 -0.22200363920E+03  0.25473688601E+03  0.90503920088E+02 0.  0.
        -11    1    4    4    0    0 -0.22932557525E+02 -0.56450577904E+01 -0.70208861378E+02  0.74074645380E+02  0.00000000000E+00 0.  1.
         11    1    4    4    0    0  0.75207821222E+02 -0.62777179320E+02 -0.15179477782E+03  0.18066224063E+03  0.00000000000E+00 0. -1.
        -11    1    3    3    0    0  0.18380683461E+01 -0.20915179036E+02 -0.86580216319E+00  0.21013634211E+02  0.00000000000E+00 0. -1.
         11    1    3    3    0    0 -0.90402834591E+02  0.84578170508E+02  0.25893793137E+02  0.12647777651E+03  0.00000000000E+00 0.  1.
          1    1    1    2  501    0  0.36289502548E+02  0.47592456383E+01 -0.14300382029E+03  0.14761324816E+03  0.00000000000E+00 0. -1.
<scales pt_clust_5="13000.00000" pt_clust_6="13000.00000" pt_clust_7="13000.00000" pt_clust_8="13000.00000" pt_clust_9="36.60025"></scales>
<clustering>
<clus scale="   36.600">  2  9  1 -1</clus>
<clus scale="   90.504">  5  6 -1 -1</clus>
<clus scale="   96.076">  7  8 -1 -1</clus>
<clus scale="  137.673">  2  5  1 -1</clus>
<clus scale="   36.600">  2  5  1 -1</clus>
</clustering>
</event>
<event>
 9    1  0.1321469E-005  0.9456289E+02  0.7546771E-02  0.1295759E+00
          2   -1    0    0  502    0 -0.00000000000E+00  0.00000000000E+00  0.27064440150E+03  0.27064440150E+03  0.00000000000E+00 0. -1.
         21   -1    0    0  501  502  0.00000000000E+00 -0.00000000000E+00 -0.59270757828E+02  0.59270757828E+02  0.00000000000E+00 0.  1.
         23    2    1    2    0    0 -0.14021157433E+02  0.15855321339E+02  0.16593499327E+03  0.18766985994E+03  0.85073910606E+02 0.  0.
         23    2    1    2    0    0  0.32796937932E+01 -0.35943946151E+02  0.60051863189E+02  0.11518097092E+03  0.91420490773E+02 0.  0.
        -11    1    4    4    0    0  0.22417326261E+02 -0.47551981476E+02  0.16059743691E+01  0.52595690057E+02  0.00000000000E+00 0.  1.
         11    1    4    4    0    0 -0.19137632467E+02  0.11608035325E+02  0.58445888820E+02  0.62585280862E+02  0.00000000000E+00 0. -1.
        -13    1    3    3    0    0  0.29842102686E+02  0.86454290543E+01  0.24962281682E+02  0.39854862226E+02  0.00000000000E+00 0.  1.
         13    1    3    3    0    0 -0.43863260119E+02  0.72098922842E+01  0.14097271159E+03  0.14781499771E+03  0.00000000000E+00 0. -1.
          2    1    1    2  501    0  0.10741463640E+02  0.20088624812E+02 -0.14613212785E+02  0.27064328476E+02  0.00000000000E+00 0. -1.
<scales pt_clust_5="13000.00000" pt_clust_6="13000.00000" pt_clust_7="13000.00000" pt_clust_8="13000.00000" pt_clust_9="22.78008"></scales>
<clustering>
<clus scale="   22.780">  2  9  1 -1</clus>
<clus scale="   85.074">  7  8 -1 -1</clus>
<clus scale="   88.442">  1  7  2 -1</clus>
<clus scale="   91.420">  5  6 -1 -1</clus>
<clus scale="   22.780">  2  5  1 -1</clus>
</clustering>
</event>
<event>
 9    1  0.1321469E-005  0.3230856E+03  0.7546771E-02  0.1104778E+00
          4   -1    0    0  502    0 -0.00000000000E+00  0.00000000000E+00  0.28876003495E+03  0.28876003495E+03  0.00000000000E+00 0. -1.
         21   -1    0    0  501  502  0.00000000000E+00 -0.00000000000E+00 -0.54653419795E+03  0.54653419795E+03  0.00000000000E+00 0. -1.
         23    2    1    2    0    0 -0.72149401151E+02  0.85356527672E+02 -0.58338044627E+01  0.14409734258E+03  0.90767493974E+02 0.  0.
         23    2    1    2    0    0  0.15328214769E+03 -0.32167109735E+03 -0.23967887100E+03  0.44104205330E+03  0.10052074365E+03 0.  0.
        -11    1    4    4    0    0  0.51137552272E+02 -0.68906213691E+02 -0.10898193893E+03  0.13870897070E+03  0.00000000000E+00 0.  1.
         11    1    4    4    0    0  0.10214459542E+03 -0.25276488366E+03 -0.13069693206E+03  0.30233308260E+03  0.00000000000E+00 0. -1.
        -13    1    3    3    0    0 -0.58408676064E+01  0.20517818917E+02 -0.39942915855E+02  0.45282813015E+02  0.00000000000E+00 0. -1.
         13    1    3    3    0    0 -0.66308533544E+02  0.64838708755E+02  0.34109111393E+02  0.98814529568E+02  0.00000000000E+00 0.  1.
          4    1    1    2  501    0 -0.81132746541E+02  0.23631456968E+03 -0.12261487540E+02  0.25015483701E+03  0.00000000000E+00 0. -1.
<scales pt_clust_5="13000.00000" pt_clust_6="13000.00000" pt_clust_7="13000.00000" pt_clust_8="13000.00000" pt_clust_9="307.05048"></scales>
<clustering>
<clus scale="   90.767">  7  8 -1 -1</clus>
<clus scale="  100.521">  5  6 -1 -1</clus>
<clus scale="  143.979">  1  7  2 -1</clus>
<clus scale="  307.050">  2  9  1 -1</clus>
<clus scale="  307.050">  2  5  1 -1</clus>
</clustering>
</event>
<event>
 9    1  0.1321469E-005  0.1086192E+03  0.7546771E-02  0.1268034E+00
          2   -1    0    0  502    0 -0.00000000000E+00  0.00000000000E+00  0.31760859781E+03  0.31760859781E+03  0.00000000000E+00 0. -1.
         21   -1    0    0  501  502  0.00000000000E+00 -0.00000000000E+00 -0.87691231018E+02  0.87691231018E+02  0.00000000000E+00 0.  1.
         23    2    1    2    0    0 -0.39535355872E+02 -0.45121530176E+01  0.16644414834E+03  0.19946798934E+03  0.10247155882E+03 0.  0.
         23    2    1    2    0    0  0.20770148439E+02 -0.40422188458E+02 -0.24339160622E+02  0.10542147163E+03  0.91956182800E+02 0.  0.
        -11    1    4    4    0    0  0.55456947701E+02 -0.21799152247E+02 -0.28083641064E+02  0.65873871773E+02  0.00000000000E+00 0.  1.
         11    1    4    4    0    0 -0.34686799262E+02 -0.18623036211E+02  0.37444804419E+01  0.39547599858E+02  0.00000000000E+00 0. -1.
        -13    1    3    3    0    0 -0.69024518015E+02  0.16861271941E+02  0.88976435584E+02  0.11386611729E+03  0.00000000000E+00 0. -1.
         13    1    3    3    0    0  0.29489162143E+02 -0.21373424958E+02  0.77467712755E+02  0.85601872046E+02  0.00000000000E+00 0.  1.
          2    1    1    2  501    0  0.18765207433E+02  0.44934341476E+02  0.87812379076E+02  0.10041036786E+03  0.00000000000E+00 0. -1.
<scales pt_clust_5="13000.00000" pt_clust_6="13000.00000" pt_clust_7="13000.00000" pt_clust_8="13000.00000" pt_clust_9="48.69528"></scales>
<clustering>
<clus scale="   48.695">  2  9  1 -1</clus>
<clus scale="   91.956">  5  6 -1 -1</clus>
<clus scale="   98.761">  2  5  1 -1</clus>
<clus scale="  102.472">  7  8 -1 -1</clus>
<clus scale="   48.695">  2  5  1 -1</clus>
</clustering>
</event>
<event>
 9    1  0.1321469E-005  0.9652429E+02  0.7546771E-02  0.1288219E+00
          2   -1    0    0  502    0 -0.00000000000E+00  0.00000000000E+00  0.10232144220E+03  0.10232144220E+03  0.00000000000E+00 0. -1.
         21   -1    0    0  501  502  0.00000000000E+00 -0.00000000000E+00 -0.12725208795E+03  0.12725208795E+03  0.00000000000E+00 0.  1.
         23    2    1    2    0    0  0.45186748671E+01  0.38808760769E+02  0.11709677032E+02  0.10090443241E+03  0.92293280406E+02 0.  0.
         23    2    1    2    0    0  0.11757964292E+02 -0.13754235885E+02 -0.24353852147E+02  0.96364058507E+02  0.91463068659E+02 0.  0.
        -11    1    3    3    0    0 -0.37248263727E+02  0.32499815453E+02  0.26575424492E+02  0.56124186783E+02  0.00000000000E+00 0. -1.
         11    1    3    3    0    0  0.41766938594E+02  0.63089453156E+01 -0.14865747460E+02  0.44780245623E+02  0.00000000000E+00 0.  1.
        -13    1    4    4    0    0  0.44417925098E+02 -0.28676683724E+02  0.18787125474E+00  0.52870970816E+02  0.00000000000E+00 0.  1.
         13    1    4    4    0    0 -0.32659960806E+02  0.14922447839E+02 -0.24541723402E+02  0.43493087691E+02  0.00000000000E+00 0. -1.
          2    1    1    2  501    0 -0.16276639159E+02 -0.25054524884E+02 -0.12286470637E+02  0.32305039238E+02  0.00000000000E+00 0. -1.
<scales pt_clust_5="13000.00000" pt_clust_6="13000.00000" pt_clust_7="13000.00000" pt_clust_8="13000.00000" pt_clust_9="29.87739"></scales>
<clustering>
<clus scale="   29.877">  2  9  1 -1</clus>
<clus scale="   91.463">  7  8 -1 -1</clus>
<clus scale="   92.293">  5  6 -1 -1</clus>
<clus scale="   95.731">  2  7  1 -1</clus>
<clus scale="   29.877">  2  5  1 -1</clus>
</clustering>
</event>
<event>
 9    1  0.1321469E-005  0.2981345E+03  0.7546771E-02  0.1086178E+00
         -3   -1    0    0    0  501 -0.00000000000E+00  0.00000000000E+00  0.12219315853E+03  0.12219315853E+03  0.00000000000E+00 0.  1.
         21   -1    0    0  501  502  0.00000000000E+00 -0.00000000000E+00 -0.84239084007E+03  0.84239084007E+03  0.00000000000E+00 0. -1.
         23    2    1    2    0    0 -0.21861323371E+03  0.19774493893E+03 -0.29283169124E+03  0.42519898328E+03  0.90271640974E+02 0.  0.
         23    2    1    2    0    0  0.21293124971E+03 -0.16725864535E+03 -0.41949538075E+03  0.50739055434E+03  0.90297445264E+02 0.  0.
        -13    1    4    4    0    0  0.44017884235E+02 -0.54050751759E+02 -0.18110736484E+03  0.19405910311E+03  0.00000000000E+00 0. -1.
         13    1    4    4    0    0  0.16891336547E+03 -0.11320789359E+03 -0.23838801591E+03  0.31333145124E+03  0.00000000000E+00 0.  1.
        -13    1    3    3    0    0 -0.12607353408E+03  0.16889438631E+03 -0.21267915156E+03  0.29941989118E+03  0.00000000000E+00 0. -1.
         13    1    3    3    0    0 -0.92539699634E+02  0.28850552622E+02 -0.80152539673E+02  0.12577909211E+03  0.00000000000E+00 0.  1.
         -3    1    1    2    0  502  0.56819840035E+01 -0.30486293583E+02 -0.78706095516E+01  0.31994460980E+02  0.00000000000E+00 0.  1.
<scales pt_clust_5="13000.00000" pt_clust_6="13000.00000" pt_clust_7="13000.00000" pt_clust_8="13000.00000" pt_clust_9="31.01129"></scales>
<clustering>
<clus scale="   31.011">  2  9  1 -1</clus>
<clus scale="   90.272">  7  8 -1 -1</clus>
<clus scale="   90.297">  5  6 -1 -1</clus>
<clus scale="  298.127">  1  7  2 -1</clus>
<clus scale="   31.011">  2  5  1 -1</clus>
</clustering>
</event>
<event>
 9    1  0.1321469E-005  0.9448593E+02  0.7546771E-02  0.1292393E+00
         21   -1    0    0  501  502  0.00000000000E+00  0.00000000000E+00  0.82495216810E+02  0.82495216810E+02  0.00000000000E+00 0. -1.
          4   -1    0    0  502    0 -0.00000000000E+00 -0.00000000000E+00 -0.44460796111E+03  0.44460796111E+03  0.00000000000E+00 0. -1.
         23    2    1    2    0    0  0.15675898978E+02 -0.30092150236E+02 -0.31004715923E+03  0.32489744738E+03  0.90982630516E+02 0.  0.
         23    2    1    2    0    0 -0.91385854020E+01  0.40144510913E+00 -0.10614499660E+03  0.14016657202E+03  0.91083657739E+02 0.  0.
        -11    1    3    3    0    0 -0.81974253935E+01  0.18702433731E+02 -0.16184123633E+02  0.26055799130E+02  0.00000000000E+00 0.  1.
         11    1    3    3    0    0  0.23873324371E+02 -0.48794583967E+02 -0.29386303560E+03  0.29884164825E+03  0.00000000000E+00 0. -1.
        -13    1    4    4    0    0 -0.10105473070E+01 -0.28935843666E+02  0.80872135226E+00  0.28964776622E+02  0.00000000000E+00 0. -1.
         13    1    4    4    0    0 -0.81280380950E+01  0.29337288776E+02 -0.10695371795E+03  0.11120179539E+03  0.00000000000E+00 0.  1.
          4    1    1    2  501    0 -0.65373135760E+01  0.29690705127E+02  0.54079411522E+02  0.62039158523E+02  0.00000000000E+00 0. -1.
<scales pt_clust_5="13000.00000" pt_clust_6="13000.00000" pt_clust_7="13000.00000" pt_clust_8="13000.00000" pt_clust_9="30.40188"></scales>
<clustering>
<clus scale="   30.402">  1  9  2 -1</clus>
<clus scale="   90.983">  5  6 -1 -1</clus>
<clus scale="   91.084">  7  8 -1 -1</clus>
<clus scale="   94.389">  2  5  1 -1</clus>
<clus scale="   30.402">  1  5  2 -1</clus>
</clustering>
</event>
<event>
 9    1  0.1321469E-005  0.2875373E+03  0.7546771E-02  0.1127104E+00
          1   -1    0    0  502    0 -0.00000000000E+00  0.00000000000E+00  0.73498394062E+03  0.73498394062E+03  0.00000000000E+00 0. -1.
         21   -1    0    0  501  502  0.00000000000E+00 -0.00000000000E+00 -0.16912481071E+03  0.16912481071E+03  0.00000000000E+00 0. -1.
         23    2    1    2    0    0  0.65010608236E+02  0.31969167354E+02  0.19048766776E+03  0.22322247692E+03  0.91073134293E+02 0.  0.
         23    2    1    2    0    0  0.17008787443E+03 -0.19342647558E+03  0.24261584966E+03  0.36630113240E+03  0.94712103813E+02 0.  0.
        -11    1    4    4    0    0 -0.68766672128E+01 -0.35347481173E+02  0.21388058781E+02  0.41882956386E+02  0.00000000000E+00 0.  1.
         11    1    4    4    0    0  0.17696454164E+03 -0.15807899440E+03  0.22122779088E+03  0.32441817601E+03  0.00000000000E+00 0. -1.
        -11    1    3    3    0    0  0.36316571779E+02  0.48841753169E+02  0.17723468740E+03  0.18739408917E+03  0.00000000000E+00 0.  1.
         11    1    3    3    0    0  0.28694036456E+02 -0.16872585814E+02  0.13252980354E+02  0.35828387746E+02  0.00000000000E+00 0. -1.
          1    1    1    2  501    0 -0.23509848267E+03  0.16145730822E+03  0.13275561249E+03  0.31458514202E+03  0.00000000000E+00 0. -1.
<scales pt_clust_5="13000.00000" pt_clust_6="13000.00000" pt_clust_7="13000.00000" pt_clust_8="13000.00000" pt_clust_9="271.49089"></scales>
<clustering>
<clus scale="   91.073">  7  8 -1 -1</clus>
<clus scale="   94.712">  5  6 -1 -1</clus>
<clus scale="  116.373">  1  7  2 -1</clus>
<clus scale="  271.491">  2  9  1 -1</clus>
<clus scale="  271.491">  2  5  1 -1</clus>
</clustering>
</event>
<event>
 9    1  0.1321469E-005  0.1276959E+03  0.7546771E-02  0.1232321E+00
          1   -1    0    0  502    0 -0.00000000000E+00  0.00000000000E+00  0.25356640653E+03  0.25356640653E+03  0.00000000000E+00 0. -1.
         21   -1    0    0  501  502  0.00000000000E+00 -0.00000000000E+00 -0.91127696389E+02  0.91127696389E+02  0.00000000000E+00 0.  1.
         23    2    1    2    0    0 -0.50246024698E+02  0.51371067634E+02  0.10601201311E+03  0.15756840661E+03  0.91791101148E+02 0.  0.
         23    2    1    2    0    0  0.74202850940E+02 -0.75776136506E+02  0.52073410296E+02  0.15265124178E+03  0.96657517062E+02 0.  0.
        -11    1    4    4    0    0  0.17020209369E+02 -0.32696658197E+02  0.69764391725E+02  0.78903924724E+02  0.00000000000E+00 0. -1.
         11    1    4    4    0    0  0.57182641571E+02 -0.43079478309E+02 -0.17690981429E+02  0.73747317051E+02  0.00000000000E+00 0.  1.
        -11    1    3    3    0    0  0.17173935838E+02  0.22204109371E+02 -0.62604229917E+00  0.28077722024E+02  0.00000000000E+00 0.  1.
         11    1    3    3    0    0 -0.67419960536E+02  0.29166958263E+02  0.10663805541E+03  0.12949068458E+03  0.00000000000E+00 0. -1.
          1    1    1    2  501    0 -0.23956826242E+02  0.24405068871E+02  0.43532867396E+01  0.34474454537E+02  0.00000000000E+00 0. -1.
<scales pt_clust_5="13000.00000" pt_clust_6="13000.00000" pt_clust_7="13000.00000" pt_clust_8="13000.00000" pt_clust_9="34.19849"></scales>
<clustering>
<clus scale="   34.198">  2  9  1 -1</clus>
<clus scale="   91.791">  7  8 -1 -1</clus>
<clus scale="   96.658">  5  6 -1 -1</clus>
<clus scale="  124.053">  1  7  2 -1</clus>
<clus scale="   34.198">  2  5  1 -1</clus>
</clustering>
</event>
<event>
 9    1  0.1321469E-005  0.1336589E+03  0.7546771E-02  0.1222304E+00
         -1   -1    0    0    0  501 -0.00000000000E+00  0.00000000000E+00  0.24861294108E+03  0.24861294108E+03  0.00000000000E+00 0.  1.
         21   -1    0    0  501  502  0.00000000000E+00 -0.00000000000E+00 -0.21381719509E+03  0.21381719509E+03  0.00000000000E+00 0.  1.
         23    2    1    2    0    0  0.68947132907E+02  0.55250262231E+02  0.91160626181E+02  0.15605287604E+03  0.90752089466E+02 0.  0.
         23    2    1    2    0    0 -0.91663044933E+02 -0.59325234266E+02  0.83169064503E+02  0.16494763176E+03  0.91482406540E+02 0.  0.
        -11    1    3    3    0    0  0.61724777706E+02  0.81000933773E+01  0.88599533848E+02  0.10828405743E+03  0.00000000000E+00 0. -1.
         11    1    3    3    0    0  0.72223552016E+01  0.47150168854E+02  0.25610923328E+01  0.47768818611E+02  0.00000000000E+00 0.  1.
        -11    1    4    4    0    0  0.17686685203E+02 -0.14187114665E+02  0.51918584302E+01  0.23260448189E+02  0.00000000000E+00 0. -1.
         11    1    4    4    0    0 -0.10934973014E+03 -0.45138119601E+02  0.77977206072E+02  0.14168718357E+03  0.00000000000E+00 0.  1.
         -1    1    1    2    0  502  0.22715912026E+02  0.40749720351E+01 -0.13953394470E+03  0.14142962836E+03  0.00000000000E+00 0.  1.
<scales pt_clust_5="13000.00000" pt_clust_6="13000.00000" pt_clust_7="13000.00000" pt_clust_8="13000.00000" pt_clust_9="23.07852"></scales>
<clustering>
<clus scale="   23.079">  2  9  1 -1</clus>
<clus scale="   90.752">  5  6 -1 -1</clus>
<clus scale="   91.482">  7  8 -1 -1</clus>
<clus scale="  133.160">  1  5  2 -1</clus>
<clus scale="   23.079">  2  5  1 -1</clus>
</clustering>
</event>
<event>
 9    1  0.1321469E-005  0.1035869E+03  0.7546771E-02  0.1274329E+00
          1   -1    0    0  502    0 -0.00000000000E+00  0.00000000000E+00  0.32061828102E+03  0.32061828102E+03  0.00000000000E+00 0. -1.
         21   -1    0    0  501  502  0.00000000000E+00 -0.00000000000E+00 -0.56928020349E+02  0.56928020349E+02  0.00000000000E+00 0.  1.
         23    2    1    2    0    0  0.11918587339E+02  0.23605140514E+02  0.18954992184E+03  0.21523919746E+03  0.98485957722E+02 0.  0.
         23    2    1    2    0    0 -0.15763187972E+02 -0.47934501040E+02  0.30692660466E+02  0.11236314039E+03  0.95588918950E+02 0.  0.
        -13    1    4    4    0    0 -0.14049894412E+02  0.27775086725E+02  0.16798548609E+02  0.35370131621E+02  0.00000000000E+00 0. -1.
         13    1    4    4    0    0 -0.17132935599E+01 -0.75709587765E+02  0.13894111858E+02  0.76993008765E+02  0.00000000000E+00 0.  1.
        -13    1    3    3    0    0 -0.28224554005E+02 -0.23568850551E+02  0.98290549438E+02  0.10494354803E+03  0.00000000000E+00 0. -1.
         13    1    3    3    0    0  0.40143141344E+02  0.47173991066E+02  0.91259372405E+02  0.11029564942E+03  0.00000000000E+00 0.  1.
          1    1    1    2  501    0  0.38446006326E+01  0.24329360526E+02  0.43447678359E+02  0.49943963523E+02  0.00000000000E+00 0. -1.
<scales pt_clust_5="13000.00000" pt_clust_6="13000.00000" pt_clust_7="13000.00000" pt_clust_8="13000.00000" pt_clust_9="24.63127"></scales>
<clustering>
<clus scale="   24.631">  2  9  1 -1</clus>
<clus scale="   95.589">  5  6 -1 -1</clus>
<clus scale="   98.486">  7  8 -1 -1</clus>
<clus scale="  100.837">  2  5  1 -1</clus>
<clus scale="   24.631">  2  5  1 -1</clus>
</clustering>
</event>
<event>
 9    1  0.1321469E-005  0.1294489E+03  0.7546771E-02  0.1228977E+00
         21   -1    0    0  501  502  0.00000000000E+00  0.00000000000E+00  0.43716917415E+02  0.43716917415E+02  0.00000000000E+00 0.  1.
          1   -1    0    0  502    0 -0.00000000000E+00 -0.00000000000E+00 -0.72582360312E+03  0.72582360312E+03  0.00000000000E+00 0. -1.
         23    2    1    2    0    0  0.44954228228E+02  0.80361843148E+02 -0.53273871411E+03  0.54861698100E+03  0.93226315289E+02 0.  0.
         23    2    1    2    0    0 -0.12528975276E+02 -0.75276223005E+02 -0.14158846768E+03  0.18719252647E+03  0.95761489198E+02 0.  0.
        -11    1    4    4    0    0  0.30415504210E+01 -0.88602685214E+02 -0.70679378924E+02  0.11338104542E+03  0.00000000000E+00 0.  1.
         11    1    4    4    0    0 -0.15570525697E+02  0.13326462209E+02 -0.70909088758E+02  0.73811481044E+02  0.00000000000E+00 0. -1.
        -13    1    3    3    0    0  0.56483925611E+02  0.90901842003E+01 -0.27907223585E+03  0.28487607503E+03  0.00000000000E+00 0.  1.
         13    1    3    3    0    0 -0.11529697383E+02  0.71271658947E+02 -0.25366647826E+03  0.26374090597E+03  0.00000000000E+00 0. -1.
          1    1    1    2  501    0 -0.32425252952E+02 -0.50856201428E+01 -0.77795039113E+01  0.33731013065E+02  0.00000000000E+00 0. -1.
<scales pt_clust_5="13000.00000" pt_clust_6="13000.00000" pt_clust_7="13000.00000" pt_clust_8="13000.00000" pt_clust_9="32.82165"></scales>
<clustering>
<clus scale="   32.822">  1  9  2 -1</clus>
<clus scale="   93.226">  7  8 -1 -1</clus>
<clus scale="   95.761">  5  6 -1 -1</clus>
<clus scale="  127.585">  2  7  1 -1</clus>
<clus scale="   32.822">  1  5  2 -1</clus>
</clustering>
</event>
<event>
 9    1  0.1321469E-005  0.1021742E+03  0.7546771E-02  0.1277219E+00
         21   -1    0    0  501  502  0.00000000000E+00  0.00000000000E+00  0.53866844969E+03  0.53866844969E+03  0.00000000000E+00 0.  1.
         -1   -1    0    0    0  501 -0.00000000000E+00 -0.00000000000E+00 -0.34337894841E+02  0.34337894841E+02  0.00000000000E+00 0.  1.
         23    2    1    2    0    0  0.10732622867E+02  0.43049262472E+02  0.11013796970E+03  0.15018367394E+03  0.91958334885E+02 0.  0.
         23    2    1    2    0    0  0.34754130955E+02 -0.47637138988E+02  0.29190992519E+03  0.31078769431E+03  0.88884418638E+02 0.  0.
        -11    1    4    4    0    0  0.34826664731E+02  0.12539093952E+02  0.54580935961E+02  0.65948495235E+02  0.00000000000E+00 0.  1.
         11    1    4    4    0    0 -0.72533775236E-01 -0.60176232940E+02  0.23732898923E+03  0.24483919907E+03  0.00000000000E+00 0. -1.
        -11    1    3    3    0    0  0.40655744967E+02  0.34129642770E+02  0.10618027766E+03  0.11870961830E+03  0.00000000000E+00 0.  1.
         11    1    3    3    0    0 -0.29923122100E+02  0.89196197013E+01  0.39576920446E+01  0.31474055635E+02  0.00000000000E+00 0. -1.
         -1    1    1    2    0  502 -0.45486753822E+02  0.45878765166E+01  0.10228265995E+03  0.11203497629E+03  0.00000000000E+00 0.  1.
<scales pt_clust_5="13000.00000" pt_clust_6="13000.00000" pt_clust_7="13000.00000" pt_clust_8="13000.00000" pt_clust_9="45.71754"></scales>
<clustering>
<clus scale="   45.718">  1  9  2 -1</clus>
<clus scale="   88.884">  5  6 -1 -1</clus>
<clus scale="   91.958">  7  8 -1 -1</clus>
<clus scale="   99.417">  1  5  2 -1</clus>
<clus scale="   45.718">  1  5  2 -1</clus>
</clustering>
</event>
<event>
 9    1  0.1321469E-005  0.1037703E+03  0.7546771E-02  0.1277438E+00
          2   -1    0    0  502    0 -0.00000000000E+00  0.00000000000E+00  0.60208138588E+02  0.60208138588E+02  0.00000000000E+00 0. -1.
         21   -1    0    0  501  502  0.00000000000E+00 -0.00000000000E+00 -0.27429271204E+03  0.27429271204E+03  0.00000000000E+00 0.  1.
         23    2    1    2    0    0 -0.43614808820E+02 -0.34694159672E+02 -0.13738667706E+02  0.98310099917E+02  0.79813460591E+02 0.  0.
         23    2    1    2    0    0  0.35291650481E+02  0.14496484000E+02 -0.13296564927E+03  0.16535770736E+03  0.90596130473E+02 0.  0.
        -11    1    3    3    0    0 -0.12945147222E+02 -0.53886732850E+02 -0.24456336599E+02  0.60576143932E+02  0.00000000000E+00 0. -1.
         11    1    3    3    0    0 -0.30669661598E+02  0.19192573178E+02  0.10717668893E+02  0.37733955984E+02  0.00000000000E+00 0.  1.
        -13    1    4    4    0    0  0.12522658338E+01  0.49102457992E+02 -0.76307507360E+02  0.90749408979E+02  0.00000000000E+00 0.  1.
         13    1    4    4    0    0  0.34039384647E+02 -0.34605973992E+02 -0.56658141911E+02  0.74608298385E+02  0.00000000000E+00 0. -1.
          2    1    1    2  501    0  0.83231583392E+01  0.20197675672E+02 -0.67380256472E+02  0.70833043345E+02  0.00000000000E+00 0. -1.
<scales pt_clust_5="13000.00000" pt_clust_6="13000.00000" pt_clust_7="13000.00000" pt_clust_8="13000.00000" pt_clust_9="21.84539"></scales>
<clustering>
<clus scale="   21.845">  2  9  1 -1</clus>
<clus scale="   79.813">  5  6 -1 -1</clus>
<clus scale="   90.596">  7  8 -1 -1</clus>
<clus scale="   94.503">  1  5  2 -1</clus>
<clus scale="   21.845">  2  5  1 -1</clus>
</clustering>
</event>
<event>
 9    1  0.1321469E-005  0.1646538E+03  0.7546771E-02  0.1210123E+00
          2   -1    0    0  502    0 -0.00000000000E+00  0.00000000000E+00  0.66624467586E+03  0.66624467586E+03  0.00000000000E+00 0. -1.
         21   -1    0    0  501  502  0.00000000000E+00 -0.00000000000E+00 -0.66638021582E+02  0.66638021582E+02  0.00000000000E+00 0. -1.
         23    2    1    2    0    0  0.28304377967E+01  0.20974066073E+02  0.51407506508E+02  0.10550971628E+03  0.89675223329E+02 0.  0.
         23    2    1    2    0    0 -0.34615491383E+02 -0.14654469320E+03  0.32790355166E+03  0.37181785658E+03  0.89745194502E+02 0.  0.
        -11    1    4    4    0    0  0.22883702512E+02 -0.96149164676E+02  0.18522255247E+03  0.20994218169E+03  0.00000000000E+00 0. -1.
         11    1    4    4    0    0 -0.57499193895E+02 -0.50395528526E+02  0.14268099919E+03  0.16187567490E+03  0.00000000000E+00 0.  1.
        -11    1    3    3    0    0  0.33109617977E+02 -0.20986347020E+02  0.13863762837E+02  0.41579772532E+02  0.00000000000E+00 0. -1.
         11    1    3    3    0    0 -0.30279180180E+02  0.41960413092E+02  0.37543743671E+02  0.63929943752E+02  0.00000000000E+00 0.  1.
          2    1    1    2  501    0  0.31785053586E+02  0.12557062713E+03  0.22029559612E+03  0.25555512458E+03  0.00000000000E+00 0. -1.
<scales pt_clust_5="13000.00000" pt_clust_6="13000.00000" pt_clust_7="13000.00000" pt_clust_8="13000.00000" pt_clust_9="138.04589"></scales>
<clustering>
<clus scale="   89.675">  7  8 -1 -1</clus>
<clus scale="   89.745">  5  6 -1 -1</clus>
<clus scale="   92.139">  1  7  2 -1</clus>
<clus scale="  138.046">  2  9  1 -1</clus>
<clus scale="  138.046">  2  5  1 -1</clus>
</clustering>
</event>
<event>
 9    1  0.1321469E-005  0.1602571E+03  0.7546771E-02  0.1207336E+00
         21   -1    0    0  501  502  0.00000000000E+00  0.00000000000E+00  0.66335130804E+02  0.66335130804E+02  0.00000000000E+00 0. -1.
          1   -1    0    0  502    0 -0.00000000000E+00 -0.00000000000E+00 -0.58820655228E+03  0.58820655228E+03  0.00000000000E+00 0. -1.
         23    2    1    2    0    0 -0.34595469655E+02  0.13491492409E+02 -0.14497420044E+03  0.17963585044E+03  0.99361225246E+02 0.  0.
         23    2    1    2    0    0  0.14299546051E+03 -0.94395191444E+01 -0.25984232166E+03  0.31531627793E+03  0.10662793608E+03 0.  0.
        -11    1    3    3    0    0  0.30147581781E+02  0.26226356279E+02 -0.50400930555E+02  0.64319143742E+02  0.00000000000E+00 0.  1.
         11    1    3    3    0    0 -0.64743051437E+02 -0.12734863870E+02 -0.94573269883E+02  0.11531670670E+03  0.00000000000E+00 0. -1.
        -11    1    4    4    0    0  0.10966755230E+02 -0.39354976929E+02 -0.83919331409E+02  0.93335620818E+02  0.00000000000E+00 0.  1.
         11    1    4    4    0    0  0.13202870528E+03  0.29915457785E+02 -0.17592299025E+03  0.22198065711E+03  0.00000000000E+00 0. -1.
          1    1    1    2  501    0 -0.10839999086E+03 -0.40519732644E+01 -0.11705489938E+03  0.15958955471E+03  0.00000000000E+00 0. -1.
<scales pt_clust_5="13000.00000" pt_clust_6="13000.00000" pt_clust_7="13000.00000" pt_clust_8="13000.00000" pt_clust_9="119.63619"></scales>
<clustering>
<clus scale="   99.361">  5  6 -1 -1</clus>
<clus scale="  106.073">  2  5  1 -1</clus>
<clus scale="  106.628">  7  8 -1 -1</clus>
<clus scale="  119.636">  1  9  2 -1</clus>
<clus scale="  119.636">  1  5  2 -1</clus>
</clustering>
</event>
<event>
 9    1  0.1321469E-005  0.9820921E+02  0.7546771E-02  0.1284762E+00
         21   -1    0    0  501  502  0.00000000000E+00  0.00000000000E+00  0.24613521464E+03  0.24613521464E+03  0.00000000000E+00 0.  1.
         -2   -1    0    0    0  501 -0.00000000000E+00 -0.00000000000E+00 -0.91738366873E+02  0.91738366873E+02  0.00000000000E+00 0.  1.
         23    2    1    2    0    0  0.28732235093E+02  0.34841812809E+01  0.17222374088E+02  0.97125537592E+02  0.91099281176E+02 0.  0.
         23    2    1    2    0    0 -0.16998598818E+02 -0.55621181778E+02  0.15821848609E+02  0.10814938385E+03  0.89795824566E+02 0.  0.
        -11    1    4    4    0    0 -0.33887966519E+02 -0.24058982961E+01 -0.22215780568E+02  0.40592160914E+02  0.00000000000E+00 0. -1.
         11    1    4    4    0    0  0.16889367701E+02 -0.53215283482E+02  0.38037629177E+02  0.67557222936E+02  0.00000000000E+00 0.  1.
        -13    1    3    3    0    0  0.17037739198E+02  0.26855075702E+02  0.47478143413E+02  0.57145898802E+02  0.00000000000E+00 0. -1.
         13    1    3    3    0    0  0.11694495896E+02 -0.23370894422E+02 -0.30255769325E+02  0.39979638790E+02  0.00000000000E+00 0.  1.
         -2    1    1    2    0  502 -0.11733636276E+02  0.52137000498E+02  0.12135262507E+03  0.13259866007E+03  0.00000000000E+00 0.  1.
<scales pt_clust_5="13000.00000" pt_clust_6="13000.00000" pt_clust_7="13000.00000" pt_clust_8="13000.00000" pt_clust_9="53.44104"></scales>
<clustering>
<clus scale="   53.441">  1  9  2 -1</clus>
<clus scale="   89.796">  5  6 -1 -1</clus>
<clus scale="   91.099">  7  8 -1 -1</clus>
<clus scale="   97.001">  1  5  2 -1</clus>
<clus scale="   53.441">  1  5  2 -1</clus>
</clustering>
</event>
<event>
 9    1  0.1321469E-005  0.9078311E+02  0.7546771E-02  0.1302103E+00
         21   -1    0    0  501  502  0.00000000000E+00  0.00000000000E+00  0.99007615459E+02  0.99007615459E+02  0.00000000000E+00 0. -1.
          2   -1    0    0  502    0 -0.00000000000E+00 -0.00000000000E+00 -0.51973057114E+03  0.51973057114E+03  0.00000000000E+00 0. -1.
         23    2    1    2    0    0  0.54888051742E+01 -0.11750098605E+02 -0.44487110907E+03  0.45410913007E+03  0.90203140337E+02 0.  0.
         23    2    1    2    0    0  0.50425286938E+02 -0.11219872069E+02  0.17783244782E+02  0.10384651536E+03  0.88313418375E+02 0.  0.
        -13    1    4    4    0    0 -0.12017909894E+02 -0.32140669434E+02 -0.38506979686E+01  0.34529417382E+02  0.00000000000E+00 0. -1.
         13    1    4    4    0    0  0.62443196832E+02  0.20920797365E+02  0.21633942750E+02  0.69317097976E+02  0.00000000000E+00 0.  1.
        -13    1    3    3    0    0 -0.31486669457E+02 -0.35054969850E+02 -0.24925521468E+03  0.25366991014E+03  0.00000000000E+00 0. -1.
         13    1    3    3    0    0  0.36975474631E+02  0.23304871244E+02 -0.19561589439E+03  0.20043921993E+03  0.00000000000E+00 0.  1.
          2    1    1    2  501    0 -0.55914092112E+02  0.22969970675E+02  0.63649086103E+01  0.60782541170E+02  0.00000000000E+00 0. -1.
<scales pt_clust_5="13000.00000" pt_clust_6="13000.00000" pt_clust_7="13000.00000" pt_clust_8="13000.00000" pt_clust_9="60.44837"></scales>
<clustering>
<clus scale="   60.448">  1  9  2 -1</clus>
<clus scale="   88.313">  5  6 -1 -1</clus>
<clus scale="   88.906">  1  5  2 -1</clus>
<clus scale="   90.203">  7  8 -1 -1</clus>
<clus scale="   60.448">  1  5  2 -1</clus>
</clustering>
</event>
<event>
 9    1  0.1321469E-005  0.2232322E+03  0.7546771E-02  0.1155929E+00
          1   -1    0    0  502    0 -0.00000000000E+00  0.00000000000E+00  0.12609622138E+03  0.12609622138E+03  0.00000000000E+00 0. -1.
         21   -1    0    0  501  502  0.00000000000E+00 -0.00000000000E+00 -0.62445615621E+03  0.62445615621E+03  0.00000000000E+00 0. -1.
         23    2    1    2    0    0 -0.75246843686E+02 -0.40362287327E+02 -0.10199523869E+03  0.16079124664E+03  0.90330474125E+02 0.  0.
         23    2    1    2    0    0 -0.12395787223E+03 -0.10398150514E+03 -0.16795052563E+03  0.25406680191E+03  0.10082089701E+03 0.  0.
        -13    1    3    3    0    0 -0.17759405518E+02  0.10574663654E+02 -0.77444876217E+02  0.80155653874E+02  0.00000000000E+00 0.  1.
         13    1    3    3    0    0 -0.57487438168E+02 -0.50936950981E+02 -0.24550362477E+02  0.80635592762E+02  0.00000000000E+00 0. -1.
        -13    1    4    4    0    0 -0.93782834213E+02 -0.18229074670E+02 -0.11245802098E+03  0.14756126063E+03  0.00000000000E+00 0.  1.
         13    1    4    4    0    0 -0.30175038016E+02 -0.85752430466E+02 -0.55492504647E+02  0.10650554127E+03  0.00000000000E+00 0. -1.
          1    1    1    2  501    0  0.19920471591E+03  0.14434379246E+03 -0.22841417050E+03  0.33569432905E+03  0.00000000000E+00 0. -1.
<scales pt_clust_5="13000.00000" pt_clust_6="13000.00000" pt_clust_7="13000.00000" pt_clust_8="13000.00000" pt_clust_9="199.16775"></scales>
<clustering>
<clus scale="   90.330">  5  6 -1 -1</clus>
<clus scale="  100.821">  7  8 -1 -1</clus>
<clus scale="  124.301">  1  5  2 -1</clus>
<clus scale="  199.168">  2  9  1 -1</clus>
<clus scale="  199.168">  2  5  1 -1</clus>
</clustering>
</event>
<event>
 9    1  0.1321469E-005  0.9729918E+02  0.7546771E-02  0.1286873E+00
         21   -1    0    0  501  502  0.00000000000E+00  0.00000000000E+00  0.30143906193E+02  0.30143906193E+02  0.00000000000E+00 0. -1.
          1   -1    0    0  502    0 -0.00000000000E+00 -0.00000000000E+00 -0.56161460738E+03  0.56161460738E+03  0.00000000000E+00 0. -1.
         23    2    1    2    0    0  0.29126143091E+01  0.35425728796E+02 -0.26576656496E+03  0.28303122612E+03  0.90616457258E+02 0.  0.
         23    2    1    2    0    0 -0.36043660831E+02 -0.13710196231E+02 -0.24378479836E+03  0.26345380768E+03  0.92139925668E+02 0.  0.
        -11    1    4    4    0    0 -0.51924832985E+02 -0.42383387198E+02 -0.15868875695E+03  0.17226334890E+03  0.00000000000E+00 0. -1.
         11    1    4    4    0    0  0.15881172153E+02  0.28673190967E+02 -0.85096041404E+02  0.91190458776E+02  0.00000000000E+00 0.  1.
        -11    1    3    3    0    0 -0.18006459481E+02 -0.18573211432E+02 -0.27201252968E+02  0.37538046419E+02  0.00000000000E+00 0. -1.
         11    1    3    3    0    0  0.20919073790E+02  0.53998940228E+02 -0.23856531199E+03  0.24549317970E+03  0.00000000000E+00 0.  1.
          1    1    1    2  501    0  0.33131046522E+02 -0.21715532565E+02 -0.21919337867E+02  0.45273479773E+02  0.00000000000E+00 0. -1.
<scales pt_clust_5="13000.00000" pt_clust_6="13000.00000" pt_clust_7="13000.00000" pt_clust_8="13000.00000" pt_clust_9="39.61352"></scales>
<clustering>
<clus scale="   39.614">  1  9  2 -1</clus>
<clus scale="   90.616">  7  8 -1 -1</clus>
<clus scale="   92.140">  5  6 -1 -1</clus>
<clus scale="   95.858">  2  7  1 -1</clus>
<clus scale="   39.614">  1  5  2 -1</clus>
</clustering>
</event>
<event>
 9    1  0.1321469E-005  0.1381820E+03  0.7546771E-02  0.1216506E+00
         21   -1    0    0  501  502  0.00000000000E+00  0.00000000000E+00  0.26228218179E+03  0.26228218179E+03  0.00000000000E+00 0. -1.
          4   -1    0    0  502    0 -0.00000000000E+00 -0.00000000000E+00 -0.11371665916E+03  0.11371665916E+03  0.00000000000E+00 0. -1.
         23    2    1    2    0    0  0.11572117248E+03  0.24970228217E+02  0.23529379432E+02  0.15445667165E+03  0.96375980749E+02 0.  0.
         23    2    1    2    0    0 -0.64077664347E+02 -0.49674544085E+02  0.69945325251E+02  0.14209184913E+03  0.93403627690E+02 0.  0.
        -11    1    3    3    0    0  0.89550249226E+02 -0.12172745385E+02 -0.18855411088E+02  0.92319821241E+02  0.00000000000E+00 0. -1.
         11    1    3    3    0    0  0.26170923250E+02  0.37142973602E+02  0.42384790520E+02  0.62136850412E+02  0.00000000000E+00 0.  1.
        -13    1    4    4    0    0 -0.20502475078E+02 -0.33104670665E+02  0.84676279781E+02  0.93200552905E+02  0.00000000000E+00 0. -1.
         13    1    4    4    0    0 -0.43575189269E+02 -0.16569873420E+02 -0.14730954530E+02  0.48891296222E+02  0.00000000000E+00 0.  1.
          4    1    1    2  501    0 -0.51643508129E+02  0.24704315868E+02  0.55090817946E+02  0.79450320178E+02  0.00000000000E+00 0. -1.
<scales pt_clust_5="13000.00000" pt_clust_6="13000.00000" pt_clust_7="13000.00000" pt_clust_8="13000.00000" pt_clust_9="57.24819"></scales>
<clustering>
<clus scale="   57.248">  1  9  2 -1</clus>
<clus scale="   93.404">  7  8 -1 -1</clus>
<clus scale="   96.376">  5  6 -1 -1</clus>
<clus scale="  136.126">  1  7  2 -1</clus>
<clus scale="   57.248">  1  5  2 -1</clus>
</clustering>
</event>
<event>
 9    1  0.1321469E-005  0.1287926E+03  0.7546771E-02  0.1231315E+00
          3   -1    0    0  502    0 -0.00000000000E+00  0.00000000000E+00  0.40684454363E+03  0.40684454363E+03  0.00000000000E+00 0. -1.
         21   -1    0    0  501  502  0.00000000000E+00 -0.00000000000E+00 -0.72861901505E+02  0.72861901505E+02  0.00000000000E+00 0. -1.
         23    2    1    2    0    0 -0.15686096774E+02  0.68983263397E+02  0.12693279274E+03  0.16801217600E+03  0.84329195122E+02 0.  0.
         23    2    1    2    0    0  0.12643506357E+02 -0.13126028335E+03  0.10476035973E+03  0.19189934327E+03  0.91986437798E+02 0.  0.
        -11    1    3    3    0    0 -0.35944033339E+02  0.13141655425E+02  0.14640514285E+02  0.40975862388E+02  0.00000000000E+00 0.  1.
         11    1    3    3    0    0  0.20257936565E+02  0.55841607972E+02  0.11229227846E+03  0.12703631361E+03  0.00000000000E+00 0. -1.
        -13    1    4    4    0    0  0.30673899732E+02 -0.57451467312E+02  0.95164973273E+02  0.11531665690E+03  0.00000000000E+00 0.  1.
         13    1    4    4    0    0 -0.18030393375E+02 -0.73808816034E+02  0.95953864558E+01  0.76582686365E+02  0.00000000000E+00 0. -1.
          3    1    1    2  501    0  0.30425904164E+01  0.62277019949E+02  0.10228948965E+03  0.11979492587E+03  0.00000000000E+00 0. -1.
<scales pt_clust_5="13000.00000" pt_clust_6="13000.00000" pt_clust_7="13000.00000" pt_clust_8="13000.00000" pt_clust_9="62.35133"></scales>
<clustering>
<clus scale="   62.351">  2  9  1 -1</clus>
<clus scale="   84.329">  5  6 -1 -1</clus>
<clus scale="   91.986">  7  8 -1 -1</clus>
<clus scale="  123.440">  1  5  2 -1</clus>
<clus scale="   62.351">  2  5  1 -1</clus>
</clustering>
</event>
<event>
 9    1  0.1321469E-005  0.1030435E+03  0.7546771E-02  0.1275746E+00
          1   -1    0    0  502    0 -0.00000000000E+00  0.00000000000E+00  0.54071531930E+02  0.54071531930E+02  0.00000000000E+00 0. -1.
         21   -1    0    0  501  502  0.00000000000E+00 -0.00000000000E+00 -0.54059470706E+03  0.54059470706E+03  0.00000000000E+00 0. -1.
         23    2    1    2    0    0  0.23398607579E+02  0.15004442571E+02 -0.59186378205E+02  0.11311745414E+03  0.92303320273E+02 0.  0.
         23    2    1    2    0    0 -0.69761573545E+02 -0.24495376535E+02 -0.10573519585E+03  0.15648388016E+03  0.88547007262E+02 0.  0.
        -11    1    3    3    0    0 -0.14313284140E+02 -0.20036358984E+02  0.10256745094E+02  0.26674456023E+02  0.00000000000E+00 0. -1.
         11    1    3    3    0    0  0.37711891718E+02  0.35040801555E+02 -0.69443123299E+02  0.86442998121E+02  0.00000000000E+00 0.  1.
        -13    1    4    4    0    0  0.19242880971E+02 -0.16127636331E+02 -0.31506064873E+02  0.40286737836E+02  0.00000000000E+00 0.  1.
         13    1    4    4    0    0 -0.89004454516E+02 -0.83677402041E+01 -0.74229130976E+02  0.11619714233E+03  0.00000000000E+00 0. -1.
          1    1    1    2  501    0  0.46362965966E+02  0.94909339644E+01 -0.32160160107E+03  0.32506490468E+03  0.00000000000E+00 0. -1.
<scales pt_clust_5="13000.00000" pt_clust_6="13000.00000" pt_clust_7="13000.00000" pt_clust_8="13000.00000" pt_clust_9="47.32444"></scales>
<clustering>
<clus scale="   47.324">  2  9  1 -1</clus>
<clus scale="   88.547">  7  8 -1 -1</clus>
<clus scale="   92.303">  5  6 -1 -1</clus>
<clus scale="   99.693">  2  7  1 -1</clus>
<clus scale="   47.324">  2  5  1 -1</clus>
</clustering>
</event>
<event>
 9    1  0.1321469E-005  0.9574568E+02  0.7546771E-02  0.1290483E+00
         21   -1    0    0  501  502  0.00000000000E+00  0.00000000000E+00  0.21899371052E+02  0.21899371052E+02  0.00000000000E+00 0.  1.
          2   -1    0    0  502    0 -0.00000000000E+00 -0.00000000000E+00 -0.62611998297E+03  0.62611998297E+03  0.00000000000E+00 0. -1.
         23    2    1    2    0    0 -0.30112312451E+02 -0.23637793481E+02 -0.39131132798E+03  0.40342180373E+03  0.90327734817E+02 0.  0.
         23    2    1    2    0    0  0.20153891695E+02  0.41085066024E+00 -0.13480303180E+03  0.16250462953E+03  0.88484739285E+02 0.  0.
        -11    1    4    4    0    0 -0.16922641879E+02  0.34752029397E+02 -0.43848561379E+02  0.58453192303E+02  0.00000000000E+00 0.  1.
         11    1    4    4    0    0  0.37076533573E+02 -0.34341178736E+02 -0.90954470424E+02  0.10405143723E+03  0.00000000000E+00 0. -1.
        -13    1    3    3    0    0  0.24320128429E+02  0.89071287615E+01 -0.50439743056E+02  0.56700734291E+02  0.00000000000E+00 0.  1.
         13    1    3    3    0    0 -0.54432440880E+02 -0.32544922242E+02 -0.34087158493E+03  0.34672106944E+03  0.00000000000E+00 0. -1.
          2    1    1    2  501    0  0.99584207563E+01  0.23226942820E+02 -0.78106252129E+02  0.82092920757E+02  0.00000000000E+00 0. -1.
<scales pt_clust_5="13000.00000" pt_clust_6="13000.00000" pt_clust_7="13000.00000" pt_clust_8="13000.00000" pt_clust_9="25.27176"></scales>
<clustering>
<clus scale="   25.272">  1  9  2 -1</clus>
<clus scale="   88.485">  5  6 -1 -1</clus>
<clus scale="   90.328">  7  8 -1 -1</clus>
<clus scale="   94.009">  1  5  2 -1</clus>
<clus scale="   25.272">  1  5  2 -1</clus>
</clustering>
</event>
<event>
 9    1  0.1321469E-005  0.1800718E+03  0.7546771E-02  0.1167868E+00
          1   -1    0    0  502    0 -0.00000000000E+00  0.00000000000E+00  0.62047120399E+03  0.62047120399E+03  0.00000000000E+00 0. -1.
         21   -1    0    0  501  502  0.00000000000E+00 -0.00000000000E+00 -0.31528758291E+03  0.31528758291E+03  0.00000000000E+00 0. -1.
         23    2    1    2    0    0 -0.12995595029E+02 -0.17467753967E+03  0.45968935287E+03  0.50024838613E+03  0.90846124501E+02 0.  0.
         23    2    1    2    0    0  0.32864590364E+02  0.11354267912E+03  0.96090785520E+02  0.17680040360E+03  0.89738076465E+02 0.  0.
        -13    1    4    4    0    0  0.28440948336E+02  0.93324361823E+02  0.11356218419E+03  0.14971537573E+03  0.00000000000E+00 0. -1.
         13    1    4    4    0    0  0.44236420276E+01  0.20218317301E+02 -0.17471398667E+02  0.27085027869E+02  0.00000000000E+00 0.  1.
        -13    1    3    3    0    0 -0.25105157357E+02 -0.85368213448E+01  0.33942226321E+02  0.43072276144E+02  0.00000000000E+00 0.  1.
         13    1    3    3    0    0  0.12109562328E+02 -0.16614071833E+03  0.42574712654E+03  0.45717610999E+03  0.00000000000E+00 0. -1.
          1    1    1    2  501    0 -0.19868995335E+02  0.61134860549E+02 -0.25059651730E+03  0.25870999717E+03  0.00000000000E+00 0. -1.
<scales pt_clust_5="13000.00000" pt_clust_6="13000.00000" pt_clust_7="13000.00000" pt_clust_8="13000.00000" pt_clust_9="64.28256"></scales>
<clustering>
<clus scale="   64.283">  2  9  1 -1</clus>
<clus scale="   89.738">  5  6 -1 -1</clus>
<clus scale="   90.846">  7  8 -1 -1</clus>
<clus scale="  179.515">  2  5  1 -1</clus>
<clus scale="   64.283">  2  5  1 -1</clus>
</clustering>
</event>
<event>
 9    1  0.1321469E-005  0.2542672E+03  0.7546771E-02  0.1111010E+00
          1   -1    0    0  502    0 -0.00000000000E+00  0.00000000000E+00  0.25890318101E+03  0.25890318101E+03  0.00000000000E+00 0. -1.
         21   -1    0    0  501  502  0.00000000000E+00 -0.00000000000E+00 -0.45663106175E+03  0.45663106175E+03  0.00000000000E+00 0.  1.
         23    2    1    2    0    0 -0.79660288793E+02  0.21106486638E+03  0.69994228472E+02  0.25328147612E+03  0.91423053413E+02 0.  0.
         23    2    1    2    0    0  0.71281408681E+02 -0.26057922503E+03 -0.28917002261E+03  0.40764607902E+03  0.97844018833E+02 0.  0.
        -13    1    3    3    0    0 -0.56452603182E+02  0.44410672604E+02  0.21597867937E+01  0.71860064891E+02  0.00000000000E+00 0.  1.
         13    1    3    3    0    0 -0.23207685611E+02  0.16665419377E+03  0.67834441678E+02  0.18142141123E+03  0.00000000000E+00 0. -1.
        -13    1    4    4    0    0  0.55262447341E+02 -0.45543488175E+02 -0.76371978658E+02  0.10469396604E+03  0.00000000000E+00 0. -1.
         13    1    4    4    0    0  0.16018961340E+02 -0.21503573686E+03 -0.21279804395E+03  0.30295211298E+03  0.00000000000E+00 0.  1.
          1    1    1    2  501    0  0.83788801120E+01  0.49514358656E+02  0.21447913396E+02  0.54606687631E+02  0.00000000000E+00 0. -1.
<scales pt_clust_5="13000.00000" pt_clust_6="13000.00000" pt_clust_7="13000.00000" pt_clust_8="13000.00000" pt_clust_9="50.21832"></scales>
<clustering>
<clus scale="   50.218">  2  9  1 -1</clus>
<clus scale="   91.423">  5  6 -1 -1</clus>
<clus scale="   97.844">  7  8 -1 -1</clus>
<clus scale="  251.866">  1  5  2 -1</clus>
<clus scale="   50.218">  2  5  1 -1</clus>
</clustering>
</event>
<event>
 9    1  0.1321469E-005  0.1103482E+03  0.7546771E-02  0.1260551E+00
         21   -1    0    0  501  502  0.00000000000E+00  0.00000000000E+00  0.81549678951E+02  0.81549678951E+02  0.00000000000E+00 0. -1.
          1   -1    0    0  502    0 -0.00000000000E+00 -0.00000000000E+00 -0.72081725051E+03  0.72081725051E+03  0.00000000000E+00 0. -1.
         23    2    1    2    0    0 -0.20588882714E+01  0.63320151736E+02 -0.57651167775E+03  0.58664185296E+03  0.88143453690E+02 0.  0.
         23    2    1    2    0    0 -0.28898997591E+02 -0.83610458942E+02 -0.10306163319E+03  0.16100177350E+03  0.86452356418E+02 0.  0.
        -11    1    3    3    0    0  0.22069902142E+02  0.77468145682E+02 -0.43366993347E+03  0.44108729904E+03  0.00000000000E+00 0. -1.
         11    1    3    3    0    0 -0.24128790413E+02 -0.14147993946E+02 -0.14284174428E+03  0.14555455392E+03  0.00000000000E+00 0.  1.
        -13    1    4    4    0    0 -0.48433006956E+02 -0.26821343449E+02 -0.78634320223E+02  0.96169105975E+02  0.00000000000E+00 0.  1.
         13    1    4    4    0    0  0.19534009364E+02 -0.56789115493E+02 -0.24427312964E+02  0.64832667529E+02  0.00000000000E+00 0. -1.
          1    1    1    2  501    0  0.30957885863E+02  0.20290307206E+02  0.40305739379E+02  0.54723302993E+02  0.00000000000E+00 0. -1.
<scales pt_clust_5="13000.00000" pt_clust_6="13000.00000" pt_clust_7="13000.00000" pt_clust_8="13000.00000" pt_clust_9="37.01469"></scales>
<clustering>
<clus scale="   37.015">  1  9  2 -1</clus>
<clus scale="   86.452">  7  8 -1 -1</clus>
<clus scale="   88.143">  5  6 -1 -1</clus>
<clus scale="  109.002">  1  7  2 -1</clus>
<clus scale="   37.015">  1  5  2 -1</clus>
</clustering>
</event>
<event>
 9    1  0.1321469E-005  0.1572811E+03  0.7546771E-02  0.1193771E+00
         21   -1    0    0  501  502  0.00000000000E+00  0.00000000000E+00  0.11483667475E+03  0.11483667475E+03  0.00000000000E+00 0.  1.
          2   -1    0    0  502    0 -0.00000000000E+00 -0.00000000000E+00 -0.36552709759E+03  0.36552709759E+03  0.00000000000E+00 0. -1.
         23    2    1    2    0    0  0.10690409636E+01 -0.11449590782E+03 -0.22591351709E+03  0.27225990440E+03  0.99890352809E+02 0.  0.
         23    2    1    2    0    0 -0.17292562097E+02  0.14071328204E+03 -0.42266695757E+02  0.17265748444E+03  0.89021755300E+02 0.  0.
        -11    1    4    4    0    0  0.12827748150E+02  0.22493348543E+02  0.22704827521E+02  0.34438511059E+02  0.00000000000E+00 0. -1.
         11    1    4    4    0    0 -0.30120310247E+02  0.11821993350E+03 -0.64971523278E+02  0.13821897338E+03  0.00000000000E+00 0.  1.
        -13    1    3    3    0    0  0.13496976097E+02 -0.20973236335E+02  0.25616420922E+01  0.25072036542E+02  0.00000000000E+00 0.  1.
         13    1    3    3    0    0 -0.12427935134E+02 -0.93522671486E+02 -0.22847515918E+03  0.24718786786E+03  0.00000000000E+00 0. -1.
          2    1    1    2  501    0  0.16223521133E+02 -0.26217374218E+02  0.17489790011E+02  0.35446383504E+02  0.00000000000E+00 0. -1.
<scales pt_clust_5="13000.00000" pt_clust_6="13000.00000" pt_clust_7="13000.00000" pt_clust_8="13000.00000" pt_clust_9="30.83105"></scales>
<clustering>
<clus scale="   30.831">  1  9  2 -1</clus>
<clus scale="   89.022">  5  6 -1 -1</clus>
<clus scale="   99.890">  7  8 -1 -1</clus>
<clus scale="  150.613">  1  5  2 -1</clus>
<clus scale="   30.831">  1  5  2 -1</clus>
</clustering>
</event>
<event>
 9    1  0.1321469E-005  0.1086459E+03  0.7546771E-02  0.1266374E+00
          1   -1    0    0  502    0 -0.00000000000E+00  0.00000000000E+00  0.61415292346E+03  0.61415292346E+03  0.00000000000E+00 0. -1.
         21   -1    0    0  501  502  0.00000000000E+00 -0.00000000000E+00 -0.72415619257E+02  0.72415619257E+02  0.00000000000E+00 0.  1.
         23    2    1    2    0    0 -0.26105255254E+02 -0.54738210764E+02  0.54205534832E+03  0.55275794290E+03  0.89663742547E+02 0.  0.
         23    2    1    2    0    0  0.98741638978E+01  0.69952418568E+02  0.11905603947E+02  0.10842678572E+03  0.81386635758E+02 0.  0.
        -11    1    4    4    0    0  0.99546172508E+01  0.30371185855E+02 -0.34770190076E+02  0.47227846158E+02  0.00000000000E+00 0.  1.
         11    1    4    4    0    0 -0.80453353047E-01  0.39581232713E+02  0.46675794023E+02  0.61198939561E+02  0.00000000000E+00 0. -1.
        -13    1    3    3    0    0 -0.56298792506E+02 -0.17029320826E+02  0.33656083945E+03  0.34166174860E+03  0.00000000000E+00 0. -1.
         13    1    3    3    0    0  0.30193537252E+02 -0.37708889938E+02  0.20549450887E+03  0.21109619430E+03  0.00000000000E+00 0.  1.
          1    1    1    2  501    0  0.16231091357E+02 -0.15214207804E+02 -0.12223648068E+02  0.25383814091E+02  0.00000000000E+00 0. -1.
<scales pt_clust_5="13000.00000" pt_clust_6="13000.00000" pt_clust_7="13000.00000" pt_clust_8="13000.00000" pt_clust_9="22.24681"></scales>
<clustering>
<clus scale="   22.247">  2  9  1 -1</clus>
<clus scale="   81.387">  5  6 -1 -1</clus>
<clus scale="   89.664">  7  8 -1 -1</clus>
<clus scale="  101.922">  2  5  1 -1</clus>
<clus scale="   22.247">  2  5  1 -1</clus>
</clustering>
</event>
<event>
 9    1  0.1321469E-005  0.1300447E+03  0.7546771E-02  0.1228867E+00
         21   -1    0    0  501  502  0.00000000000E+00  0.00000000000E+00  0.42638595296E+03  0.42638595296E+03  0.00000000000E+00 0. -1.
          1   -1    0    0  502    0 -0.00000000000E+00 -0.00000000000E+00 -0.71051070860E+02  0.71051070860E+02  0.00000000000E+00 0. -1.
         23    2    1    2    0    0 -0.51691893583E+02 -0.34295699489E+02  0.88643854696E+02  0.14465995023E+03  0.96023545854E+02 0.  0.
         23    2    1    2    0    0  0.96390132697E+02  0.86775702023E+02  0.15483207758E+03  0.22138259920E+03  0.90643272433E+02 0.  0.
        -11    1    4    4    0    0  0.76160758505E+01  0.49047423988E+02  0.96877441902E+02  0.10885262129E+03  0.00000000000E+00 0.  1.
         11    1    4    4    0    0  0.88774056846E+02  0.37728278034E+02  0.57954635674E+02  0.11252997791E+03  0.00000000000E+00 0. -1.
        -13    1    3    3    0    0 -0.88172653194E+01  0.32384471123E+02  0.37464520345E+02  0.50299984317E+02  0.00000000000E+00 0. -1.
         13    1    3    3    0    0 -0.42874628264E+02 -0.66680170613E+02  0.51179334351E+02  0.94359965909E+02  0.00000000000E+00 0.  1.
          1    1    1    2  501    0 -0.44698239113E+02 -0.52480002533E+02  0.11185894983E+03  0.13139447440E+03  0.00000000000E+00 0. -1.
<scales pt_clust_5="13000.00000" pt_clust_6="13000.00000" pt_clust_7="13000.00000" pt_clust_8="13000.00000" pt_clust_9="68.93536"></scales>
<clustering>
<clus scale="   68.935">  1  9  2 -1</clus>
<clus scale="   90.643">  5  6 -1 -1</clus>
<clus scale="   96.024">  7  8 -1 -1</clus>
<clus scale="  126.124">  1  5  2 -1</clus>
<clus scale="   68.935">  1  5  2 -1</clus>
</clustering>
</event>
<event>
 9    1  0.1321469E-005  0.2096580E+03  0.7546771E-02  0.1141936E+00
          1   -1    0    0  502    0 -0.00000000000E+00  0.00000000000E+00  0.77435398193E+02  0.77435398193E+02  0.00000000000E+00 0. -1.
         21   -1    0    0  501  502  0.00000000000E+00 -0.00000000000E+00 -0.10553732874E+04  0.10553732874E+04  0.00000000000E+00 0.  1.
         23    2    1    2    0    0  0.69176515612E+02  0.17960179583E+03 -0.11760332103E+03  0.24263735999E+03  0.89443568625E+02 0.  0.
         23    2    1    2    0    0 -0.44139803593E+02 -0.17375490052E+03 -0.70706297622E+03  0.73475831445E+03  0.88275934413E+02 0.  0.
        -11    1    3    3    0    0 -0.20497774884E+02  0.54297006182E+02 -0.35649022515E+02  0.68111500217E+02  0.00000000000E+00 0.  1.
         11    1    3    3    0    0  0.89674290496E+02  0.12530478965E+03 -0.81954298516E+02  0.17452585978E+03  0.00000000000E+00 0. -1.
        -13    1    4    4    0    0 -0.62614874519E+02 -0.16602566082E+03 -0.59403851635E+03  0.61997330706E+03  0.00000000000E+00 0.  1.
         13    1    4    4    0    0  0.18475070926E+02 -0.77292396965E+01 -0.11302445987E+03  0.11478500739E+03  0.00000000000E+00 0. -1.
          1    1    1    2  501    0 -0.25036712019E+02 -0.58468953134E+01 -0.15327159198E+03  0.15541301118E+03  0.00000000000E+00 0. -1.
<scales pt_clust_5="13000.00000" pt_clust_6="13000.00000" pt_clust_7="13000.00000" pt_clust_8="13000.00000" pt_clust_9="25.71037"></scales>
<clustering>
<clus scale="   25.710">  2  9  1 -1</clus>
<clus scale="   88.276">  7  8 -1 -1</clus>
<clus scale="   89.444">  5  6 -1 -1</clus>
<clus scale="  209.163">  2  7  1 -1</clus>
<clus scale="   25.710">  2  5  1 -1</clus>
</clustering>
</event>
<event>
 9    1  0.1321469E-005  0.1238882E+03  0.7546771E-02  0.1241814E+00
          1   -1    0    0  502    0 -0.00000000000E+00  0.00000000000E+00  0.10089602720E+03  0.10089602720E+03  0.00000000000E+00 0. -1.
         21   -1    0    0  501  502  0.00000000000E+00 -0.00000000000E+00 -0.30703674196E+03  0.30703674196E+03  0.00000000000E+00 0.  1.
         23    2    1    2    0    0 -0.70337925454E+02 -0.10684554541E+02  0.36320750822E+02  0.12107004617E+03  0.90978984805E+02 0.  0.
         23    2    1    2    0    0  0.34503717700E+02  0.26132934001E+02 -0.17143827700E+03  0.20582547113E+03  0.10535466279E+03 0.  0.
        -11    1    3    3    0    0 -0.49769957306E+02 -0.11036210867E+02 -0.24720029946E+02  0.56656213084E+02  0.00000000000E+00 0. -1.
         11    1    3    3    0    0 -0.20567968148E+02  0.35165632605E+00  0.61040780768E+02  0.64413833085E+02  0.00000000000E+00 0.  1.
        -13    1    4    4    0    0  0.35276689375E+02  0.51781281911E+02 -0.45843322728E+02  0.77636049670E+02  0.00000000000E+00 0. -1.
         13    1    4    4    0    0 -0.77297167490E+00 -0.25648347910E+02 -0.12559495428E+03  0.12818942146E+03  0.00000000000E+00 0.  1.
          1    1    1    2  501    0  0.35834207754E+02 -0.15448379460E+02 -0.71023188574E+02  0.81037251857E+02  0.00000000000E+00 0. -1.
<scales pt_clust_5="13000.00000" pt_clust_6="13000.00000" pt_clust_7="13000.00000" pt_clust_8="13000.00000" pt_clust_9="39.02234"></scales>
<clustering>
<clus scale="   39.022">  2  9  1 -1</clus>
<clus scale="   90.979">  5  6 -1 -1</clus>
<clus scale="  105.355">  7  8 -1 -1</clus>
<clus scale="  111.919">  1  5  2 -1</clus>
<clus scale="   39.022">  2  5  1 -1</clus>
</clustering>
</event>
<event>
 9    1  0.1321469E-005  0.2094533E+03  0.7546771E-02  0.1142404E+00
         21   -1    0    0  501  502  0.00000000000E+00  0.00000000000E+00  0.69908027270E+02  0.69908027270E+02  0.00000000000E+00 0. -1.
          1   -1    0    0  502    0 -0.00000000000E+00 -0.00000000000E+00 -0.11908359250E+04  0.11908359250E+04  0.00000000000E+00 0. -1.
         23    2    1    2    0    0  0.16718894928E+03  0.10250584282E+03 -0.66243669446E+03  0.69682538861E+03  0.91014589365E+02 0.  0.
         23    2    1    2    0    0 -0.76937299019E+02 -0.17415133519E+03 -0.30283648834E+03  0.37025176930E+03  0.95542652624E+02 0.  0.
        -11    1    3    3    0    0  0.42385461805E+02  0.63974539279E+02 -0.15653826328E+03  0.17433730788E+03  0.00000000000E+00 0.  1.
         11    1    3    3    0    0  0.12480348748E+03  0.38531303537E+02 -0.50589843118E+03  0.52248808073E+03  0.00000000000E+00 0. -1.
        -13    1    4    4    0    0 -0.31508907694E+02 -0.69587174236E+02 -0.45799798713E+02  0.89066310379E+02  0.00000000000E+00 0.  1.
         13    1    4    4    0    0 -0.45428391325E+02 -0.10456416096E+03 -0.25703668963E+03  0.28118545892E+03  0.00000000000E+00 0. -1.
          1    1    1    2  501    0 -0.90251650264E+02  0.71645492376E+02 -0.15565471490E+03  0.19366679432E+03  0.00000000000E+00 0. -1.
<scales pt_clust_5="13000.00000" pt_clust_6="13000.00000" pt_clust_7="13000.00000" pt_clust_8="13000.00000" pt_clust_9="115.23210"></scales>
<clustering>
<clus scale="   91.015">  5  6 -1 -1</clus>
<clus scale="   95.543">  7  8 -1 -1</clus>
<clus scale="  115.232">  1  9  2 -1</clus>
<clus scale="  207.427">  2  5  1 -1</clus>
<clus scale="  115.232">  1  5  2 -1</clus>
</clustering>
</event>
<event>
 9    1  0.1321469E-005  0.1052802E+03  0.7546771E-02  0.1272149E+00
          2   -1    0    0  502    0 -0.00000000000E+00  0.00000000000E+00  0.98201716347E+02  0.98201716347E+02  0.00000000000E+00 0. -1.
         21   -1    0    0  501  502  0.00000000000E+00 -0.00000000000E+00 -0.20371755405E+03  0.20371755405E+03  0.00000000000E+00 0. -1.
         23    2    1    2    0    0  0.38974735141E+02  0.17524204831E+02  0.36838610334E+02  0.11363329499E+03  0.98637289020E+02 0.  0.
         23    2    1    2    0    0 -0.13969866808E+02 -0.15019536290E+02 -0.94708099893E+02  0.13441862633E+03  0.93155779584E+02 0.  0.
        -13    1    3    3    0    0  0.66997168131E+01  0.54165301471E+02  0.38669314002E+01  0.54714890544E+02  0.00000000000E+00 0.  1.
         13    1    3    3    0    0  0.32275018328E+02 -0.36641096639E+02  0.32971678934E+02  0.58918404448E+02  0.00000000000E+00 0. -1.
        -13    1    4    4    0    0 -0.20715437331E+01 -0.54261329377E+02 -0.51214633983E+02  0.74642627855E+02  0.00000000000E+00 0.  1.
         13    1    4    4    0    0 -0.11898323075E+02  0.39241793087E+02 -0.43493465910E+02  0.59775998474E+02  0.00000000000E+00 0. -1.
          2    1    1    2  501    0 -0.25004868333E+02 -0.25046685412E+01 -0.47646348141E+02  0.53867349072E+02  0.00000000000E+00 0. -1.
<scales pt_clust_5="13000.00000" pt_clust_6="13000.00000" pt_clust_7="13000.00000" pt_clust_8="13000.00000" pt_clust_9="25.13000"></scales>
<clustering>
<clus scale="   25.130">  2  9  1 -1</clus>
<clus scale="   93.156">  7  8 -1 -1</clus>
<clus scale="   98.637">  5  6 -1 -1</clus>
<clus scale="  100.163">  2  7  1 -1</clus>
<clus scale="   25.130">  2  5  1 -1</clus>
</clustering>
</event>
<event>
 9    1  0.1321469E-005  0.1622693E+03  0.7546771E-02  0.1201822E+00
         21   -1    0    0  501  502  0.00000000000E+00  0.00000000000E+00  0.15292587814E+04  0.15292587814E+04  0.00000000000E+00 0. -1.
          3   -1    0    0  502    0 -0.00000000000E+00 -0.00000000000E+00 -0.37319365938E+02  0.37319365938E+02  0.00000000000E+00 0. -1.
         23    2    1    2    0    0  0.29948470523E+02  0.58565016362E+02  0.14372430989E+03  0.18411282814E+03  0.94414427950E+02 0.  0.
         23    2    1    2    0    0 -0.14590915026E+03 -0.35287648406E+02  0.97463810188E+03  0.99061267751E+03  0.94124114638E+02 0.  0.
        -11    1    4    4    0    0 -0.10874861428E+02 -0.40172437693E+02  0.20106933371E+03  0.20533135250E+03  0.00000000000E+00 0.  1.
         11    1    4    4    0    0 -0.13503428884E+03  0.48847892871E+01  0.77356876817E+03  0.78528132501E+03  0.00000000000E+00 0. -1.
        -11    1    3    3    0    0  0.47010219273E+02 -0.22076143078E+01  0.35981018958E+02  0.59240763013E+02  0.00000000000E+00 0.  1.
         11    1    3    3    0    0 -0.17061748750E+02  0.60772630670E+02  0.10774329093E+03  0.12487206513E+03  0.00000000000E+00 0. -1.
          3    1    1    2  501    0  0.11596067974E+03 -0.23277367956E+02  0.37357700369E+03  0.39185264168E+03  0.00000000000E+00 0. -1.
<scales pt_clust_5="13000.00000" pt_clust_6="13000.00000" pt_clust_7="13000.00000" pt_clust_8="13000.00000" pt_clust_9="132.18165"></scales>
<clustering>
<clus scale="   94.124">  5  6 -1 -1</clus>
<clus scale="   94.414">  7  8 -1 -1</clus>
<clus scale="  115.069">  2  7  1 -1</clus>
<clus scale="  132.182">  1  9  2 -1</clus>
<clus scale="  132.182">  1  5  2 -1</clus>
</clustering>
</event>
<event>
 9    1  0.1321469E-005  0.1060368E+03  0.7546771E-02  0.1269830E+00
          1   -1    0    0  502    0 -0.00000000000E+00  0.00000000000E+00  0.32654188433E+03  0.32654188433E+03  0.00000000000E+00 0. -1.
         21   -1    0    0  501  502  0.00000000000E+00 -0.00000000000E+00 -0.56268748308E+02  0.56268748308E+02  0.00000000000E+00 0.  1.
         23    2    1    2    0    0 -0.43333370174E+02 -0.21632073550E+02  0.20157842839E+03  0.22489810554E+03  0.87175498321E+02 0.  0.
         23    2    1    2    0    0  0.64061935235E+02  0.33941096481E+02  0.47726648888E+02  0.12596186290E+03  0.91283231293E+02 0.  0.
        -11    1    3    3    0    0 -0.60583173311E+01 -0.34661089329E+02  0.17199896071E+03  0.17556120531E+03  0.00000000000E+00 0. -1.
         11    1    3    3    0    0 -0.37275052843E+02  0.13029015779E+02  0.29579467671E+02  0.49336900230E+02  0.00000000000E+00 0.  1.
        -13    1    4    4    0    0 -0.23373181530E+02  0.11150273347E+02  0.68377001650E+01  0.26784106371E+02  0.00000000000E+00 0. -1.
         13    1    4    4    0    0  0.87435116765E+02  0.22790823135E+02  0.40888948723E+02  0.99177756531E+02  0.00000000000E+00 0.  1.
          1    1    1    2  501    0 -0.20728565061E+02 -0.12309022931E+02  0.20968058748E+02  0.31950664198E+02  0.00000000000E+00 0. -1.
<scales pt_clust_5="13000.00000" pt_clust_6="13000.00000" pt_clust_7="13000.00000" pt_clust_8="13000.00000" pt_clust_9="24.10779"></scales>
<clustering>
<clus scale="   24.108">  2  9  1 -1</clus>
<clus scale="   87.175">  5  6 -1 -1</clus>
<clus scale="   91.283">  7  8 -1 -1</clus>
<clus scale="  102.522">  1  5  2 -1</clus>
<clus scale="   24.108">  2  5  1 -1</clus>
</clustering>
</event>
<event>
 9    1  0.1321469E-005  0.1314624E+03  0.7546771E-02  0.1227211E+00
          1   -1    0    0  502    0 -0.00000000000E+00  0.00000000000E+00  0.12041815526E+03  0.12041815526E+03  0.00000000000E+00 0. -1.
         21   -1    0    0  501  502  0.00000000000E+00 -0.00000000000E+00 -0.18665281860E+03  0.18665281860E+03  0.00000000000E+00 0.  1.
         23    2    1    2    0    0  0.76669550622E+02  0.99425320724E+01  0.14786906309E+02  0.12936820595E+03  0.10266648029E+03 0.  0.
         23    2    1    2    0    0 -0.92845114268E+02  0.24470387494E+01 -0.82920188801E+02  0.15723926188E+03  0.96032413928E+02 0.  0.
        -13    1    4    4    0    0 -0.39309173181E+02 -0.19246552331E+02 -0.88976135993E+02  0.99158427020E+02  0.00000000000E+00 0.  1.
         13    1    4    4    0    0 -0.53535941087E+02  0.21693591081E+02  0.60559471919E+01  0.58080834863E+02  0.00000000000E+00 0. -1.
        -13    1    3    3    0    0  0.89007639401E+02 -0.21790535070E+02  0.22716183611E+02  0.94409810338E+02  0.00000000000E+00 0.  1.
         13    1    3    3    0    0 -0.12338088778E+02  0.31733067142E+02 -0.79292773025E+01  0.34958395608E+02  0.00000000000E+00 0. -1.
          1    1    1    2  501    0  0.16175563646E+02 -0.12389570822E+02  0.18986191486E+01  0.20463506031E+02  0.00000000000E+00 0. -1.
<scales pt_clust_5="13000.00000" pt_clust_6="13000.00000" pt_clust_7="13000.00000" pt_clust_8="13000.00000" pt_clust_9="20.37525"></scales>
<clustering>
<clus scale="   20.375">  2  9  1 -1</clus>
<clus scale="   96.032">  5  6 -1 -1</clus>
<clus scale="  102.666">  7  8 -1 -1</clus>
<clus scale="  126.349">  2  5  1 -1</clus>
<clus scale="   20.375">  2  5  1 -1</clus>
</clustering>
</event>
<event>
 9    1  0.1321469E-005  0.1928321E+03  0.7546771E-02  0.1156135E+00
          2   -1    0    0  502    0 -0.00000000000E+00  0.00000000000E+00  0.78201465565E+03  0.78201465565E+03  0.00000000000E+00 0. -1.
         21   -1    0    0  501  502  0.00000000000E+00 -0.00000000000E+00 -0.60835076842E+03  0.60835076842E+03  0.00000000000E+00 0. -1.
         23    2    1    2    0    0  0.12403182459E+03 -0.87978062290E+02  0.37184143960E+03  0.41185827328E+03  0.90758735754E+02 0.  0.
         23    2    1    2    0    0 -0.23491236359E+03 -0.13110817435E+02  0.33777562360E+03  0.42194694528E+03  0.92688406122E+02 0.  0.
        -11    1    3    3    0    0  0.58300923778E+02  0.89493775045E+01  0.10465508514E+03  0.12013232670E+03  0.00000000000E+00 0.  1.
         11    1    3    3    0    0  0.65730900817E+02 -0.96927439794E+02  0.26718635445E+03  0.29172594659E+03  0.00000000000E+00 0. -1.
        -13    1    4    4    0    0 -0.27467063057E+02  0.15658137908E+02  0.10343179636E+02  0.33265570801E+02  0.00000000000E+00 0.  1.
         13    1    4    4    0    0 -0.20744530053E+03 -0.28768955343E+02  0.32743244397E+03  0.38868137448E+03  0.00000000000E+00 0. -1.
          2    1    1    2  501    0  0.11088053899E+03  0.10108887973E+03 -0.53595317596E+03  0.55656020551E+03  0.00000000000E+00 0. -1.
<scales pt_clust_5="13000.00000" pt_clust_6="13000.00000" pt_clust_7="13000.00000" pt_clust_8="13000.00000" pt_clust_9="150.04485"></scales>
<clustering>
<clus scale="   90.759">  5  6 -1 -1</clus>
<clus scale="   92.688">  7  8 -1 -1</clus>
<clus scale="  150.045">  2  9  1 -1</clus>
<clus scale="  191.912">  1  5  2 -1</clus>
<clus scale="  150.045">  2  5  1 -1</clus>
</clustering>
</event>
<event>
 9    1  0.1321469E-005  0.9730458E+02  0.7546771E-02  0.1288398E+00
         21   -1    0    0  501  502  0.00000000000E+00  0.00000000000E+00  0.11775623434E+03  0.11775623434E+03  0.00000000000E+00 0.  1.
         -3   -1    0    0    0  501 -0.00000000000E+00 -0.00000000000E+00 -0.18554633757E+03  0.18554633757E+03  0.00000000000E+00 0.  1.
         23    2    1    2    0    0  0.37365634955E+02 -0.63210532481E+01 -0.11463744294E+03  0.14887703396E+03  0.87100410611E+02 0.  0.
         23    2    1    2    0    0 -0.20616151368E+02 -0.22133580402E+02 -0.84345135140E+00  0.96420168117E+02  0.91548983232E+02 0.  0.
        -11    1    4    4    0    0 -0.17240707297E+02 -0.56277604879E+02  0.11471206335E+02  0.59966652181E+02  0.00000000000E+00 0.  1.
         11    1    4    4    0    0 -0.33754440709E+01  0.34144024477E+02 -0.12314657686E+02  0.36453515936E+02  0.00000000000E+00 0. -1.
        -13    1    3    3    0    0  0.25772193345E+02  0.30722664928E+02 -0.16537654450E+02  0.43377207204E+02  0.00000000000E+00 0. -1.
         13    1    3    3    0    0  0.11593441610E+02 -0.37043718177E+02 -0.98099788490E+02  0.10549982676E+03  0.00000000000E+00 0.  1.
         -3    1    1    2    0  502 -0.16749483587E+02  0.28454633651E+02  0.47690791065E+02  0.58005369830E+02  0.00000000000E+00 0.  1.
<scales pt_clust_5="13000.00000" pt_clust_6="13000.00000" pt_clust_7="13000.00000" pt_clust_8="13000.00000" pt_clust_9="33.01835"></scales>
<clustering>
<clus scale="   33.018">  1  9  2 -1</clus>
<clus scale="   87.100">  7  8 -1 -1</clus>
<clus scale="   91.549">  5  6 -1 -1</clus>
<clus scale="   93.131">  2  7  1 -1</clus>
<clus scale="   33.018">  1  5  2 -1</clus>
</clustering>
</event>
<event>
 9    1  0.1321469E-005  0.1481299E+03  0.7546771E-02  0.1202947E+00
         21   -1    0    0  501  502  0.00000000000E+00  0.00000000000E+00  0.11362831650E+03  0.11362831650E+03  0.00000000000E+00 0.  1.
         -2   -1    0    0    0  501 -0.00000000000E+00 -0.00000000000E+00 -0.50428893129E+03  0.50428893129E+03  0.00000000000E+00 0.  1.
         23    2    1    2    0    0  0.84258057493E+02  0.72313523992E+02 -0.25798354845E+03  0.29563219808E+03  0.92272527161E+02 0.  0.
         23    2    1    2    0    0 -0.50753459668E+02 -0.12165455679E+03 -0.18362624994E+03  0.24384453146E+03  0.91464807434E+02 0.  0.
        -11    1    4    4    0    0  0.26441936302E+02 -0.24037273543E+02 -0.35397468976E+02  0.50298581736E+02  0.00000000000E+00 0.  1.
         11    1    4    4    0    0 -0.77195395970E+02 -0.97617283251E+02 -0.14822878096E+03  0.19354594972E+03  0.00000000000E+00 0. -1.
        -11    1    3    3    0    0  0.10106985579E+03  0.43170314690E+02 -0.18336111234E+03  0.21377579222E+03  0.00000000000E+00 0.  1.
         11    1    3    3    0    0 -0.16811798296E+02  0.29143209302E+02 -0.74622436111E+02  0.81856405867E+02  0.00000000000E+00 0. -1.
         -2    1    1    2    0  502 -0.33504597826E+02  0.49341032802E+02  0.50949183596E+02  0.78440518245E+02  0.00000000000E+00 0.  1.
<scales pt_clust_5="13000.00000" pt_clust_6="13000.00000" pt_clust_7="13000.00000" pt_clust_8="13000.00000" pt_clust_9="59.64139"></scales>
<clustering>
<clus scale="   59.641">  1  9  2 -1</clus>
<clus scale="   91.465">  5  6 -1 -1</clus>
<clus scale="   92.273">  7  8 -1 -1</clus>
<clus scale="  147.628">  1  5  2 -1</clus>
<clus scale="   59.641">  1  5  2 -1</clus>
</clustering>
</event>
<event>
 9    1  0.1321469E-005  0.1211331E+03  0.7546771E-02  0.1251170E+00
         21   -1    0    0  501  502  0.00000000000E+00  0.00000000000E+00  0.64999329207E+03  0.64999329207E+03  0.00000000000E+00 0.  1.
          4   -1    0    0  502    0 -0.00000000000E+00 -0.00000000000E+00 -0.46120105147E+02  0.46120105147E+02  0.00000000000E+00 0. -1.
         23    2    1    2    0    0  0.33670045568E+02 -0.27619679622E+02  0.39390827104E+02  0.10924214109E+03  0.92117802080E+02 0.  0.
         23    2    1    2    0    0 -0.88566961646E+01 -0.46228870761E+01  0.35319500200E+03  0.37170240849E+03  0.11539566235E+03 0.  0.
        -13    1    4    4    0    0 -0.48573019466E+02 -0.32138289729E+02  0.26309856112E+03  0.26946810711E+03  0.00000000000E+00 0.  1.
         13    1    4    4    0    0  0.39716323302E+02  0.27515402652E+02  0.90096440879E+02  0.10223430138E+03  0.00000000000E+00 0. -1.
        -13    1    3    3    0    0  0.12385893429E+01 -0.30679290494E+02 -0.23332815177E+02  0.38563885085E+02  0.00000000000E+00 0. -1.
         13    1    3    3    0    0  0.32431456225E+02  0.30596108716E+01  0.62723642281E+02  0.70678256010E+02  0.00000000000E+00 0.  1.
          4    1    1    2  501    0 -0.24813349403E+02  0.32242566698E+02  0.21128735782E+03  0.21516884763E+03  0.00000000000E+00 0. -1.
<scales pt_clust_5="13000.00000" pt_clust_6="13000.00000" pt_clust_7="13000.00000" pt_clust_8="13000.00000" pt_clust_9="40.68520"></scales>
<clustering>
<clus scale="   40.685">  1  9  2 -1</clus>
<clus scale="   92.118">  7  8 -1 -1</clus>
<clus scale="   99.211">  2  7  1 -1</clus>
<clus scale="  115.396">  5  6 -1 -1</clus>
<clus scale="   40.685">  1  5  2 -1</clus>
</clustering>
</event>
<event>
 9    1  0.1321469E-005  0.1529337E+03  0.7546771E-02  0.1212247E+00
         21   -1    0    0  501  502  0.00000000000E+00  0.00000000000E+00  0.29970649727E+03  0.29970649727E+03  0.00000000000E+00 0. -1.
          3   -1    0    0  502    0 -0.00000000000E+00 -0.00000000000E+00 -0.34896574423E+03  0.34896574423E+03  0.00000000000E+00 0. -1.
         23    2    1    2    0    0 -0.57021834427E+02  0.24314848756E+02 -0.22015230873E+03  0.24605787564E+03  0.90745455270E+02 0.  0.
         23    2    1    2    0    0  0.16084474729E+03  0.29618340983E+02 -0.98477715151E+01  0.18731170678E+03  0.90776748333E+02 0.  0.
        -11    1    4    4    0    0  0.74362169014E+02  0.56518406094E+02  0.11927626492E+02  0.94161195200E+02  0.00000000000E+00 0.  1.
         11    1    4    4    0    0  0.86482578276E+02 -0.26900065111E+02 -0.21775398007E+02  0.93150511575E+02  0.00000000000E+00 0. -1.
        -11    1    3    3    0    0 -0.78086577784E+02  0.25757941757E+02 -0.13283953078E+03  0.15622844214E+03  0.00000000000E+00 0.  1.
         11    1    3    3    0    0  0.21064743358E+02 -0.14430930009E+01 -0.87312777949E+02  0.89829433502E+02  0.00000000000E+00 0. -1.
          3    1    1    2  501    0 -0.10382291286E+03 -0.53933189739E+02  0.18074083329E+03  0.21530265908E+03  0.00000000000E+00 0. -1.
<scales pt_clust_5="13000.00000" pt_clust_6="13000.00000" pt_clust_7="13000.00000" pt_clust_8="13000.00000" pt_clust_9="123.07843"></scales>
<clustering>
<clus scale="   90.745">  7  8 -1 -1</clus>
<clus scale="   90.777">  5  6 -1 -1</clus>
<clus scale="  109.897">  2  7  1 -1</clus>
<clus scale="  123.078">  1  9  2 -1</clus>
<clus scale="  123.078">  1  5  2 -1</clus>
</clustering>
</event>
<event>
 9    1  0.1321469E-005  0.1368711E+03  0.7546771E-02  0.1220230E+00
         -3   -1    0    0    0  501 -0.00000000000E+00  0.00000000000E+00  0.34392503325E+02  0.34392503325E+02  0.00000000000E+00 0.  1.
         21   -1    0    0  501  502  0.00000000000E+00 -0.00000000000E+00 -0.10111083211E+04  0.10111083211E+04  0.00000000000E+00 0. -1.
         23    2    1    2    0    0 -0.88324950218E+02  0.19895819768E+02 -0.13376987050E+03  0.18556100902E+03  0.91331097332E+02 0.  0.
         23    2    1    2    0    0  0.10045204146E+03  0.41528109860E+01 -0.72739440655E+03  0.74129091508E+03  0.10149748585E+03 0.  0.
        -11    1    4    4    0    0  0.68236531439E+02 -0.45571581457E+02 -0.47503300759E+03  0.48206778730E+03  0.00000000000E+00 0. -1.
         11    1    4    4    0    0  0.32215510024E+02  0.49724392443E+02 -0.25236139896E+03  0.25922312778E+03  0.00000000000E+00 0.  1.
        -13    1    3    3    0    0 -0.16114159177E+02  0.48253463653E+02 -0.57390491052E+02  0.76692446458E+02  0.00000000000E+00 0.  1.
         13    1    3    3    0    0 -0.72210791041E+02 -0.28357643886E+02 -0.76379379451E+02  0.10886856256E+03  0.00000000000E+00 0. -1.
         -3    1    1    2    0  502 -0.12127091245E+02 -0.24048630754E+02 -0.11555154070E+03  0.11864890029E+03  0.00000000000E+00 0.  1.
<scales pt_clust_5="13000.00000" pt_clust_6="13000.00000" pt_clust_7="13000.00000" pt_clust_8="13000.00000" pt_clust_9="26.93331"></scales>
<clustering>
<clus scale="   26.933">  2  9  1 -1</clus>
<clus scale="   91.331">  7  8 -1 -1</clus>
<clus scale="  101.497">  5  6 -1 -1</clus>
<clus scale="  129.512">  1  7  2 -1</clus>
<clus scale="   26.933">  2  5  1 -1</clus>
</clustering>
</event>
<event>
 9    1  0.1321469E-005  0.9692761E+02  0.7546771E-02  0.1288810E+00
         -1   -1    0    0    0  501 -0.00000000000E+00  0.00000000000E+00  0.21537125773E+03  0.21537125773E+03  0.00000000000E+00 0.  1.
         21   -1    0    0  501  502  0.00000000000E+00 -0.00000000000E+00 -0.11909125553E+03  0.11909125553E+03  0.00000000000E+00 0.  1.
         23    2    1    2    0    0 -0.30998701000E+01 -0.36615614317E+02  0.10783972459E+03  0.14406799412E+03  0.88180884116E+02 0.  0.
         23    2    1    2    0    0 -0.46707469381E+02  0.10773690468E+02  0.42988425841E+02  0.11213803972E+03  0.91811083724E+02 0.  0.
        -11    1    4    4    0    0 -0.34417053036E+02 -0.34313757102E+02  0.43761544001E+02  0.65399084088E+02  0.00000000000E+00 0.  1.
         11    1    4    4    0    0 -0.12290416346E+02  0.45087447570E+02 -0.77311815984E+00  0.46738955637E+02  0.00000000000E+00 0. -1.
        -13    1    3    3    0    0 -0.25505419068E+02 -0.37587950547E+02  0.13922394137E+02  0.47510140882E+02  0.00000000000E+00 0.  1.
         13    1    3    3    0    0  0.22405548968E+02  0.97233623010E+00  0.93917330454E+02  0.96557853238E+02  0.00000000000E+00 0. -1.
         -1    1    1    2    0  502  0.49807339481E+02  0.25841923849E+02 -0.54548148233E+02  0.78256479413E+02  0.00000000000E+00 0.  1.
<scales pt_clust_5="13000.00000" pt_clust_6="13000.00000" pt_clust_7="13000.00000" pt_clust_8="13000.00000" pt_clust_9="56.11217"></scales>
<clustering>
<clus scale="   56.112">  2  9  1 -1</clus>
<clus scale="   88.181">  7  8 -1 -1</clus>
<clus scale="   91.811">  5  6 -1 -1</clus>
<clus scale="   93.496">  1  7  2 -1</clus>
<clus scale="   56.112">  2  5  1 -1</clus>
</clustering>
</event>
<event>
 9    1  0.1321469E-005  0.9479575E+02  0.7546771E-02  0.1291885E+00
         21   -1    0    0  501  502  0.00000000000E+00  0.00000000000E+00  0.30115386207E+03  0.30115386207E+03  0.00000000000E+00 0. -1.
         -1   -1    0    0    0  501 -0.00000000000E+00 -0.00000000000E+00 -0.45510737539E+02  0.45510737539E+02  0.00000000000E+00 0.  1.
         23    2    1    2    0    0 -0.14929622468E+01 -0.83329816281E+01  0.64881080908E+02  0.11315653131E+03  0.92321061515E+02 0.  0.
         23    2    1    2    0    0  0.65346683666E+01  0.34780568145E+02  0.10907775889E+03  0.14750099879E+03  0.92769592801E+02 0.  0.
        -11    1    4    4    0    0  0.23808147594E+02 -0.16513715079E+02  0.39291919837E+01  0.29239856826E+02  0.00000000000E+00 0.  1.
         11    1    4    4    0    0 -0.17273479227E+02  0.51294283224E+02  0.10514856691E+03  0.11826114197E+03  0.00000000000E+00 0. -1.
        -13    1    3    3    0    0  0.19987860891E+02 -0.45396392253E+02  0.30511502076E+02  0.58234858731E+02  0.00000000000E+00 0.  1.
         13    1    3    3    0    0 -0.21480823137E+02  0.37063410624E+02  0.34369578832E+02  0.54921672579E+02  0.00000000000E+00 0. -1.
         -1    1    1    2    0  502 -0.50417061198E+01 -0.26447586517E+02  0.81684284726E+02  0.86007069502E+02  0.00000000000E+00 0.  1.
<scales pt_clust_5="13000.00000" pt_clust_6="13000.00000" pt_clust_7="13000.00000" pt_clust_8="13000.00000" pt_clust_9="26.92385"></scales>
<clustering>
<clus scale="   26.924">  1  9  2 -1</clus>
<clus scale="   92.321">  7  8 -1 -1</clus>
<clus scale="   92.770">  5  6 -1 -1</clus>
<clus scale="   94.357">  2  7  1 -1</clus>
<clus scale="   26.924">  1  5  2 -1</clus>
</clustering>
</event>
<event>
 9    1  0.1321469E-005  0.9316822E+02  0.7546771E-02  0.1297804E+00
         21   -1    0    0  501  502  0.00000000000E+00  0.00000000000E+00  0.20122671200E+03  0.20122671200E+03  0.00000000000E+00 0. -1.
         -3   -1    0    0    0  501 -0.00000000000E+00 -0.00000000000E+00 -0.13540620466E+03  0.13540620466E+03  0.00000000000E+00 0.  1.
         23    2    1    2    0    0 -0.10516276636E+02  0.18509354822E+02 -0.62604884184E+02  0.10889946090E+03  0.86524752352E+02 0.  0.
         23    2    1    2    0    0 -0.10597542550E+02 -0.25084144710E+02 -0.26501251363E+01  0.94805609585E+02  0.90772012326E+02 0.  0.
        -11    1    4    4    0    0  0.36968392490E+02 -0.84263917243E+01  0.15881327599E+02  0.41108182726E+02  0.00000000000E+00 0.  1.
         11    1    4    4    0    0 -0.47565935040E+02 -0.16657752986E+02 -0.18531452735E+02  0.53697426859E+02  0.00000000000E+00 0. -1.
        -13    1    3    3    0    0 -0.13377522531E+02 -0.26432020120E+02  0.25089064096E+01  0.29730529899E+02  0.00000000000E+00 0. -1.
         13    1    3    3    0    0  0.28612458958E+01  0.44941374942E+02 -0.65113790593E+02  0.79168930997E+02  0.00000000000E+00 0.  1.
         -3    1    1    2    0  502  0.21113819186E+02  0.65747898876E+01  0.13107551666E+03  0.13292784618E+03  0.00000000000E+00 0.  1.
<scales pt_clust_5="13000.00000" pt_clust_6="13000.00000" pt_clust_7="13000.00000" pt_clust_8="13000.00000" pt_clust_9="22.11382"></scales>
<clustering>
<clus scale="   22.114">  1  9  2 -1</clus>
<clus scale="   86.525">  7  8 -1 -1</clus>
<clus scale="   89.035">  2  7  1 -1</clus>
<clus scale="   90.772">  5  6 -1 -1</clus>
<clus scale="   22.114">  1  5  2 -1</clus>
</clustering>
</event>
<event>
 9    1  0.1321469E-005  0.1038144E+03  0.7546771E-02  0.1273400E+00
          1   -1    0    0  502    0 -0.00000000000E+00  0.00000000000E+00  0.44790195829E+03  0.44790195829E+03  0.00000000000E+00 0. -1.
         21   -1    0    0  501  502  0.00000000000E+00 -0.00000000000E+00 -0.88277994690E+02  0.88277994690E+02  0.00000000000E+00 0. -1.
         23    2    1    2    0    0  0.50039890202E+02 -0.39221150276E+02  0.29180299835E+03  0.31338666582E+03  0.94973276385E+02 0.  0.
         23    2    1    2    0    0  0.41523117415E+02  0.23536323162E+02  0.76475129250E+02  0.12949434441E+03  0.92963498496E+02 0.  0.
        -11    1    3    3    0    0  0.67680260503E+02 -0.57287738490E+02  0.23706633955E+03  0.25310660203E+03  0.00000000000E+00 0. -1.
         11    1    3    3    0    0 -0.17640370301E+02  0.18066588213E+02  0.54736658794E+02  0.60280063785E+02  0.00000000000E+00 0.  1.
        -13    1    4    4    0    0  0.67798937213E+02 -0.73110105744E+00  0.41651863307E+02  0.79574544378E+02  0.00000000000E+00 0. -1.
         13    1    4    4    0    0 -0.26275819799E+02  0.24267424219E+02  0.34823265943E+02  0.49919800032E+02  0.00000000000E+00 0.  1.
          1    1    1    2  501    0 -0.91563007617E+02  0.15684827114E+02 -0.86541639911E+01  0.93298942758E+02  0.00000000000E+00 0. -1.
<scales pt_clust_5="13000.00000" pt_clust_6="13000.00000" pt_clust_7="13000.00000" pt_clust_8="13000.00000" pt_clust_9="92.89671"></scales>
<clustering>
<clus scale="   92.897">  2  9  1 -1</clus>
<clus scale="   92.963">  7  8 -1 -1</clus>
<clus scale="   94.973">  5  6 -1 -1</clus>
<clus scale="  101.979">  2  7  1 -1</clus>
<clus scale="   92.897">  2  5  1 -1</clus>
</clustering>
</event>
<event>
 9    1  0.1321469E-005  0.1828319E+03  0.7546771E-02  0.1165093E+00
          1   -1    0    0  502    0 -0.00000000000E+00  0.00000000000E+00  0.11424078106E+04  0.11424078106E+04  0.00000000000E+00 0. -1.
         21   -1    0    0  501  502  0.00000000000E+00 -0.00000000000E+00 -0.11182067139E+03  0.11182067139E+03  0.00000000000E+00 0. -1.
         23    2    1    2    0    0  0.43649090616E+02  0.16435733924E+03  0.78686949963E+03  0.81018485512E+03  0.91199297886E+02 0.  0.
         23    2    1    2    0    0 -0.71286220929E+02 -0.12171144464E+03  0.31471190474E+03  0.35673572920E+03  0.91221688503E+02 0.  0.
        -11    1    4    4    0    0 -0.38531332511E+02 -0.12835516984E+03  0.23980730997E+03  0.27471304870E+03  0.00000000000E+00 0. -1.
         11    1    4    4    0    0 -0.32754888418E+02  0.66437251950E+01  0.74904594767E+02  0.82022680504E+02  0.00000000000E+00 0.  1.
        -13    1    3    3    0    0 -0.27175846458E+02  0.64886143851E+02  0.31651452615E+03  0.32423785028E+03  0.00000000000E+00 0.  1.
         13    1    3    3    0    0  0.70824937074E+02  0.99471195388E+02  0.47035497349E+03  0.48594700483E+03  0.00000000000E+00 0. -1.
          1    1    1    2  501    0  0.27637130313E+02 -0.42645894596E+02 -0.70994265204E+02  0.87307897636E+02  0.00000000000E+00 0. -1.
<scales pt_clust_5="13000.00000" pt_clust_6="13000.00000" pt_clust_7="13000.00000" pt_clust_8="13000.00000" pt_clust_9="50.81814"></scales>
<clustering>
<clus scale="   50.818">  2  9  1 -1</clus>
<clus scale="   91.199">  7  8 -1 -1</clus>
<clus scale="   91.222">  5  6 -1 -1</clus>
<clus scale="  182.821">  1  7  2 -1</clus>
<clus scale="   50.818">  2  5  1 -1</clus>
</clustering>
</event>
<event>
 9    1  0.1321469E-005  0.1006965E+03  0.7546771E-02  0.1282008E+00
         21   -1    0    0  501  502  0.00000000000E+00  0.00000000000E+00  0.23979947275E+03  0.23979947275E+03  0.00000000000E+00 0.  1.
          1   -1    0    0  502    0 -0.00000000000E+00 -0.00000000000E+00 -0.77572151131E+02  0.77572151131E+02  0.00000000000E+00 0. -1.
         23    2    1    2    0    0  0.25377757240E+02 -0.55645427993E+02  0.36453768376E+02  0.11201124720E+03  0.86470793061E+02 0.  0.
         23    2    1    2    0    0  0.22174324467E+02  0.12484958645E+02  0.90153364225E+02  0.13192452402E+03  0.92891743979E+02 0.  0.
        -13    1    4    4    0    0  0.51196271493E+02 -0.17495967284E+02  0.57391011862E+02  0.78872652602E+02  0.00000000000E+00 0. -1.
         13    1    4    4    0    0 -0.29021947027E+02  0.29980925929E+02  0.32762352364E+02  0.53051871420E+02  0.00000000000E+00 0.  1.
        -13    1    3    3    0    0 -0.26173632141E+01 -0.72227327748E+02  0.17527646142E+02  0.74369723968E+02  0.00000000000E+00 0. -1.
         13    1    3    3    0    0  0.27995120454E+02  0.16581899756E+02  0.18926122234E+02  0.37641523236E+02  0.00000000000E+00 0.  1.
          1    1    1    2  501    0 -0.47552081706E+02  0.43160469348E+02  0.35620189013E+02  0.73435852649E+02  0.00000000000E+00 0. -1.
<scales pt_clust_5="13000.00000" pt_clust_6="13000.00000" pt_clust_7="13000.00000" pt_clust_8="13000.00000" pt_clust_9="64.21862"></scales>
<clustering>
<clus scale="   64.219">  1  9  2 -1</clus>
<clus scale="   86.471">  7  8 -1 -1</clus>
<clus scale="   92.892">  5  6 -1 -1</clus>
<clus scale="   94.806">  2  7  1 -1</clus>
<clus scale="   64.219">  1  5  2 -1</clus>
</clustering>
</event>
<event>
 9    1  0.1321469E-005  0.2146877E+03  0.7546771E-02  0.1154472E+00
          2   -1    0    0  502    0 -0.00000000000E+00  0.00000000000E+00  0.75457726136E+03  0.75457726136E+03  0.00000000000E+00 0. -1.
         21   -1    0    0  501  502  0.00000000000E+00 -0.00000000000E+00 -0.12529249152E+03  0.12529249152E+03  0.00000000000E+00 0.  1.
         23    2    1    2    0    0  0.82265793521E+02  0.66886946540E+02  0.30083612034E+03  0.33378559961E+03  0.98330721573E+02 0.  0.
         23    2    1    2    0    0  0.14244794926E+03 -0.47707684049E+02  0.25489323099E+03  0.30886166298E+03  0.88642688870E+02 0.  0.
        -11    1    4    4    0    0  0.25628748186E+02  0.14476209120E+02  0.10434124428E+03  0.10841350756E+03  0.00000000000E+00 0. -1.
         11    1    4    4    0    0  0.11681920107E+03 -0.62183893169E+02  0.15055198671E+03  0.20044815542E+03  0.00000000000E+00 0.  1.
        -13    1    3    3    0    0  0.10204746278E+03  0.41991170344E+02  0.20501674835E+03  0.23282785518E+03  0.00000000000E+00 0.  1.
         13    1    3    3    0    0 -0.19781669255E+02  0.24895776196E+02  0.95819371997E+02  0.10095774443E+03  0.00000000000E+00 0. -1.
          2    1    1    2  501    0 -0.22471374278E+03 -0.19179262491E+02  0.73555418507E+02  0.23722249028E+03  0.00000000000E+00 0. -1.
<scales pt_clust_5="13000.00000" pt_clust_6="13000.00000" pt_clust_7="13000.00000" pt_clust_8="13000.00000" pt_clust_9="195.53328"></scales>
<clustering>
<clus scale="   88.643">  5  6 -1 -1</clus>
<clus scale="   98.331">  7  8 -1 -1</clus>
<clus scale="  144.604">  1  7  2 -1</clus>
<clus scale="  195.533">  2  9  1 -1</clus>
<clus scale="  195.533">  2  5  1 -1</clus>
</clustering>
</event>
<event>
 9    1  0.1321469E-005  0.1153383E+03  0.7546771E-02  0.1251284E+00
         -1   -1    0    0    0  501 -0.00000000000E+00  0.00000000000E+00  0.85811032716E+02  0.85811032716E+02  0.00000000000E+00 0.  1.
         21   -1    0    0  501  502  0.00000000000E+00 -0.00000000000E+00 -0.75367407377E+03  0.75367407377E+03  0.00000000000E+00 0.  1.
         23    2    1    2    0    0 -0.74130066521E+02  0.25239258689E+02  0.50293680424E+01  0.12126586234E+03  0.92454463849E+02 0.  0.
         23    2    1    2    0    0  0.58368075235E+01 -0.76485323848E+02 -0.16800578615E+03  0.20616394395E+03  0.91616344181E+02 0.  0.
        -13    1    4    4    0    0 -0.10677078854E+02 -0.94463071898E+02 -0.13490523149E+03  0.16503543089E+03  0.00000000000E+00 0.  1.
         13    1    4    4    0    0  0.16513886378E+02  0.17977748050E+02 -0.33100554661E+02  0.41128513067E+02  0.00000000000E+00 0. -1.
        -13    1    3    3    0    0 -0.54316094245E+02  0.28848387381E+01  0.45535124340E+02  0.70936647350E+02  0.00000000000E+00 0.  1.
         13    1    3    3    0    0 -0.19813972276E+02  0.22354419951E+02 -0.40505756297E+02  0.50329214994E+02  0.00000000000E+00 0. -1.
         -1    1    1    2    0  502  0.68293258998E+02  0.51246065159E+02 -0.50488662294E+03  0.51205530018E+03  0.00000000000E+00 0.  1.
<scales pt_clust_5="13000.00000" pt_clust_6="13000.00000" pt_clust_7="13000.00000" pt_clust_8="13000.00000" pt_clust_9="85.38225"></scales>
<clustering>
<clus scale="   85.382">  2  9  1 -1</clus>
<clus scale="   91.616">  5  6 -1 -1</clus>
<clus scale="   92.454">  7  8 -1 -1</clus>
<clus scale="  114.668">  2  5  1 -1</clus>
<clus scale="   85.382">  2  5  1 -1</clus>
</clustering>
</event>
<event>
 9    1  0.1321469E-005  0.9276928E+02  0.7546771E-02  0.1297458E+00
         -3   -1    0    0    0  501 -0.00000000000E+00  0.00000000000E+00  0.11236198194E+03  0.11236198194E+03  0.00000000000E+00 0.  1.
         21   -1    0    0  501  502  0.00000000000E+00 -0.00000000000E+00 -0.21263169440E+03  0.21263169440E+03  0.00000000000E+00 0. -1.
         23    2    1    2    0    0 -0.12705628857E+02 -0.96976781068E+01  0.21825197598E+02  0.95506859620E+02  0.91595540388E+02 0.  0.
         23    2    1    2    0    0 -0.14261167003E+02  0.20347851557E+02  0.10699561628E+02  0.93564022507E+02  0.89567459165E+02 0.  0.
        -11    1    4    4    0    0 -0.23899776113E+02  0.37947102925E+02 -0.25926740866E+02  0.51801330201E+02  0.00000000000E+00 0. -1.
         11    1    4    4    0    0  0.96386091099E+01 -0.17599251367E+02  0.36626302494E+02  0.41762692306E+02  0.00000000000E+00 0.  1.
        -11    1    3    3    0    0 -0.12726465354E+02 -0.46316301017E+02  0.31736593808E+02  0.57570600543E+02  0.00000000000E+00 0.  1.
         11    1    3    3    0    0  0.20836497882E-01  0.36618622910E+02 -0.99113962099E+01  0.37936259078E+02  0.00000000000E+00 0. -1.
         -3    1    1    2    0  502  0.26966795860E+02 -0.10650173451E+02 -0.13279447169E+03  0.13592279421E+03  0.00000000000E+00 0.  1.
<scales pt_clust_5="13000.00000" pt_clust_6="13000.00000" pt_clust_7="13000.00000" pt_clust_8="13000.00000" pt_clust_9="28.99369"></scales>
<clustering>
<clus scale="   28.994">  2  9  1 -1</clus>
<clus scale="   89.567">  5  6 -1 -1</clus>
<clus scale="   90.767">  2  5  1 -1</clus>
<clus scale="   91.596">  7  8 -1 -1</clus>
<clus scale="   28.994">  2  5  1 -1</clus>
</clustering>
</event>
<event>
 9    1  0.1321469E-005  0.1212597E+03  0.7546771E-02  0.1242036E+00
         21   -1    0    0  501  502  0.00000000000E+00  0.00000000000E+00  0.28106617032E+03  0.28106617032E+03  0.00000000000E+00 0. -1.
          2   -1    0    0  502    0 -0.00000000000E+00 -0.00000000000E+00 -0.21462557357E+03  0.21462557357E+03  0.00000000000E+00 0. -1.
         23    2    1    2    0    0  0.69481451953E+02 -0.49767105175E+02 -0.15583257893E+03  0.20037389081E+03  0.92528193216E+02 0.  0.
         23    2    1    2    0    0 -0.36653559581E+02  0.40252786349E+02  0.43452752989E+02  0.11326034472E+03  0.89308419004E+02 0.  0.
        -11    1    3    3    0    0 -0.46450389960E+00 -0.53076495327E+02 -0.88696862160E+02  0.10336567843E+03  0.00000000000E+00 0.  1.
         11    1    3    3    0    0  0.69945955852E+02  0.33093901515E+01 -0.67135716767E+02  0.97008212379E+02  0.00000000000E+00 0. -1.
        -11    1    4    4    0    0 -0.82798709492E+01 -0.22271592643E+02  0.37430734603E+02  0.44335538733E+02  0.00000000000E+00 0.  1.
         11    1    4    4    0    0 -0.28373688631E+02  0.62524378992E+02  0.60220183857E+01  0.68924805987E+02  0.00000000000E+00 0. -1.
          2    1    1    2  501    0 -0.32827892372E+02  0.95143188263E+01  0.17882042269E+03  0.18205750836E+03  0.00000000000E+00 0. -1.
<scales pt_clust_5="13000.00000" pt_clust_6="13000.00000" pt_clust_7="13000.00000" pt_clust_8="13000.00000" pt_clust_9="34.17884"></scales>
<clustering>
<clus scale="   34.179">  1  9  2 -1</clus>
<clus scale="   89.308">  7  8 -1 -1</clus>
<clus scale="   92.528">  5  6 -1 -1</clus>
<clus scale="  118.821">  1  7  2 -1</clus>
<clus scale="   34.179">  1  5  2 -1</clus>
</clustering>
</event>
<event>
 9    1  0.1321469E-005  0.1081044E+03  0.7546771E-02  0.1264987E+00
         21   -1    0    0  501  502  0.00000000000E+00  0.00000000000E+00  0.84132332064E+02  0.84132332064E+02  0.00000000000E+00 0.  1.
          1   -1    0    0  502    0 -0.00000000000E+00 -0.00000000000E+00 -0.33504300947E+03  0.33504300947E+03  0.00000000000E+00 0. -1.
         23    2    1    2    0    0  0.60125309270E+02  0.10986990834E+01 -0.17945218765E+03  0.21038391929E+03  0.91880606708E+02 0.  0.
         23    2    1    2    0    0 -0.35103799710E+02 -0.70095339697E+02 -0.63343777296E+02  0.13495064141E+03  0.89741897085E+02 0.  0.
        -11    1    4    4    0    0  0.14847834993E+02 -0.67511639521E+02 -0.37876490666E+02  0.78822003400E+02  0.00000000000E+00 0. -1.
         11    1    4    4    0    0 -0.49951634703E+02 -0.25837001755E+01 -0.25467286630E+02  0.56128638006E+02  0.00000000000E+00 0.  1.
        -11    1    3    3    0    0  0.40717193284E+02  0.45073394576E+02 -0.85904835239E+02  0.10520998738E+03  0.00000000000E+00 0. -1.
         11    1    3    3    0    0  0.19408115987E+02 -0.43974695493E+02 -0.93547352413E+02  0.10517393191E+03  0.00000000000E+00 0.  1.
          1    1    1    2  501    0 -0.25021509560E+02  0.68996640614E+02 -0.81147124619E+01  0.73840780839E+02  0.00000000000E+00 0. -1.
<scales pt_clust_5="13000.00000" pt_clust_6="13000.00000" pt_clust_7="13000.00000" pt_clust_8="13000.00000" pt_clust_9="73.39354"></scales>
<clustering>
<clus scale="   73.394">  1  9  2 -1</clus>
<clus scale="   89.742">  5  6 -1 -1</clus>
<clus scale="   91.881">  7  8 -1 -1</clus>
<clus scale="  106.293">  1  5  2 -1</clus>
<clus scale="   73.394">  1  5  2 -1</clus>
</clustering>
</event>
<event>
 9    1  0.1321469E-005  0.1036894E+03  0.7546771E-02  0.1272932E+00
         21   -1    0    0  501  502  0.00000000000E+00  0.00000000000E+00  0.29601260068E+02  0.29601260068E+02  0.00000000000E+00 0. -1.
         -2   -1    0    0    0  501 -0.00000000000E+00 -0.00000000000E+00 -0.55360260178E+03  0.55360260178E+03  0.00000000000E+00 0.  1.
         23    2    1    2    0    0  0.52968530571E+02  0.15205020939E+02 -0.35245878228E+03  0.36805030003E+03  0.90537131902E+02 0.  0.
         23    2    1    2    0    0 -0.39877406121E+02  0.96863234063E+01 -0.11713779268E+03  0.15390949918E+03  0.91010104300E+02 0.  0.
        -13    1    3    3    0    0 -0.24979781161E+00 -0.32804402397E+02 -0.83719952288E+02  0.89917860443E+02  0.00000000000E+00 0.  1.
         13    1    3    3    0    0  0.53218328382E+02  0.48009423336E+02 -0.26873882999E+03  0.27813243958E+03  0.00000000000E+00 0. -1.
        -13    1    4    4    0    0 -0.18054365406E+02 -0.26257853554E+02 -0.10560264950E+03  0.11030573224E+03  0.00000000000E+00 0.  1.
         13    1    4    4    0    0 -0.21823040715E+02  0.35944176960E+02 -0.11535143179E+02  0.43603766942E+02  0.00000000000E+00 0. -1.
         -2    1    1    2    0  502 -0.13091124450E+02 -0.24891344345E+02 -0.54404766754E+02  0.61244062636E+02  0.00000000000E+00 0.  1.
<scales pt_clust_5="13000.00000" pt_clust_6="13000.00000" pt_clust_7="13000.00000" pt_clust_8="13000.00000" pt_clust_9="28.12395"></scales>
<clustering>
<clus scale="   28.124">  1  9  2 -1</clus>
<clus scale="   90.537">  5  6 -1 -1</clus>
<clus scale="   91.010">  7  8 -1 -1</clus>
<clus scale="  103.275">  2  5  1 -1</clus>
<clus scale="   28.124">  1  5  2 -1</clus>
</clustering>
</event>
<event>
 9    1  0.1321469E-005  0.1587084E+03  0.7546771E-02  0.1191580E+00
         21   -1    0    0  501  502  0.00000000000E+00  0.00000000000E+00  0.24375653623E+03  0.24375653623E+03  0.00000000000E+00 0. -1.
          1   -1    0    0  502    0 -0.00000000000E+00 -0.00000000000E+00 -0.11857711657E+03  0.11857711657E+03  0.00000000000E+00 0. -1.
         23    2    1    2    0    0  0.46091816578E+02  0.11748427135E+03  0.38505055001E+02  0.16034863619E+03  0.91115510739E+02 0.  0.
         23    2    1    2    0    0 -0.21384739966E+02 -0.12055570880E+03  0.75097653692E+02  0.17452789367E+03  0.99143038342E+02 0.  0.
        -11    1    3    3    0    0  0.64285057875E+02  0.91118219507E+02  0.16598041439E+01  0.11152512516E+03  0.00000000000E+00 0. -1.
         11    1    3    3    0    0 -0.18193241297E+02  0.26366051847E+02  0.36845250857E+02  0.48823511033E+02  0.00000000000E+00 0.  1.
        -13    1    4    4    0    0 -0.61168801956E+02 -0.73956003844E+02  0.51034984511E+02  0.10869996542E+03  0.00000000000E+00 0.  1.
         13    1    4    4    0    0  0.39784061990E+02 -0.46599704961E+02  0.24062669181E+02  0.65827928260E+02  0.00000000000E+00 0. -1.
          1    1    1    2  501    0 -0.24707076612E+02  0.30714374505E+01  0.11576710976E+02  0.27457122932E+02  0.00000000000E+00 0. -1.
<scales pt_clust_5="13000.00000" pt_clust_6="13000.00000" pt_clust_7="13000.00000" pt_clust_8="13000.00000" pt_clust_9="24.89726"></scales>
<clustering>
<clus scale="   24.897">  1  9  2 -1</clus>
<clus scale="   91.116">  5  6 -1 -1</clus>
<clus scale="   99.143">  7  8 -1 -1</clus>
<clus scale="  153.821">  2  5  1 -1</clus>
<clus scale="   24.897">  1  5  2 -1</clus>
</clustering>
</event>
<event>
 9    1  0.1321469E-005  0.9676043E+02  0.7546771E-02  0.1294006E+00
         21   -1    0    0  501  502  0.00000000000E+00  0.00000000000E+00  0.19512078812E+03  0.19512078812E+03  0.00000000000E+00 0.  1.
         -1   -1    0    0    0  501 -0.00000000000E+00 -0.00000000000E+00 -0.17052520404E+03  0.17052520404E+03  0.00000000000E+00 0.  1.
         23    2    1    2    0    0 -0.19378121168E+02  0.25479093416E+02 -0.13207624617E+03  0.15762356754E+03  0.79852103666E+02 0.  0.
         23    2    1    2    0    0 -0.19342566515E+02 -0.25743509799E+02  0.10268630970E+03  0.14158600390E+03  0.92006821074E+02 0.  0.
        -11    1    4    4    0    0 -0.49017917626E+02 -0.30967034013E+02  0.35583783976E+02  0.68028810999E+02  0.00000000000E+00 0.  1.
         11    1    4    4    0    0  0.29675351111E+02  0.52235242134E+01  0.67102525725E+02  0.73557192901E+02  0.00000000000E+00 0. -1.
        -11    1    3    3    0    0  0.23608366708E+02 -0.11313789490E+02 -0.23459739234E+02  0.35152754887E+02  0.00000000000E+00 0. -1.
         11    1    3    3    0    0 -0.42986487876E+02  0.36792882906E+02 -0.10861650694E+03  0.12247081265E+03  0.00000000000E+00 0.  1.
         -1    1    1    2    0  502  0.38720687683E+02  0.26441638375E+00  0.53985520546E+02  0.66436420729E+02  0.00000000000E+00 0.  1.
<scales pt_clust_5="13000.00000" pt_clust_6="13000.00000" pt_clust_7="13000.00000" pt_clust_8="13000.00000" pt_clust_9="38.72159"></scales>
<clustering>
<clus scale="   38.722">  1  9  2 -1</clus>
<clus scale="   79.852">  7  8 -1 -1</clus>
<clus scale="   85.286">  2  7  1 -1</clus>
<clus scale="   92.007">  5  6 -1 -1</clus>
<clus scale="   38.722">  1  5  2 -1</clus>
</clustering>
</event>
<event>
 9    1  0.1321469E-005  0.9753936E+02  0.7546771E-02  0.1286579E+00
          3   -1    0    0  502    0 -0.00000000000E+00  0.00000000000E+00  0.66555767805E+02  0.66555767805E+02  0.00000000000E+00 0. -1.
         21   -1    0    0  501  502  0.00000000000E+00 -0.00000000000E+00 -0.20289657067E+03  0.20289657067E+03  0.00000000000E+00 0.  1.
         23    2    1    2    0    0 -0.36751816601E+02 -0.18825291798E+02 -0.29799780199E+02  0.10416559584E+03  0.90869999576E+02 0.  0.
         23    2    1    2    0    0  0.48856348943E+01  0.16476034728E+02 -0.78639251409E+02  0.12286644814E+03  0.92826198177E+02 0.  0.
        -11    1    4    4    0    0 -0.29485821809E+02  0.34959088201E+02 -0.14846056126E+02  0.48082813126E+02  0.00000000000E+00 0.  1.
         11    1    4    4    0    0  0.34371456704E+02 -0.18483053473E+02 -0.63793195284E+02  0.74783635015E+02  0.00000000000E+00 0. -1.
        -11    1    3    3    0    0 -0.37028904387E+02 -0.45763734108E+02 -0.44203737972E+02  0.73616775061E+02  0.00000000000E+00 0. -1.
         11    1    3    3    0    0  0.27708778693E+00  0.26938442310E+02  0.14403957773E+02  0.30548820784E+02  0.00000000000E+00 0.  1.
          3    1    1    2  501    0  0.31866181706E+02  0.23492570698E+01 -0.27901771257E+02  0.42420294489E+02  0.00000000000E+00 0. -1.
<scales pt_clust_5="13000.00000" pt_clust_6="13000.00000" pt_clust_7="13000.00000" pt_clust_8="13000.00000" pt_clust_9="31.95266"></scales>
<clustering>
<clus scale="   31.953">  2  9  1 -1</clus>
<clus scale="   90.870">  7  8 -1 -1</clus>
<clus scale="   92.826">  5  6 -1 -1</clus>
<clus scale="   95.680">  1  7  2 -1</clus>
<clus scale="   31.953">  2  5  1 -1</clus>
</clustering>
</event>
<event>
 9    1  0.1731051E-005  0.1221950E+03  0.7546771E-02  0.1245850E+00
          1   -1    0    0  502    0 -0.00000000000E+00  0.00000000000E+00  0.57178332400E+03  0.57178332400E+03  0.00000000000E+00 0. -1.
         21   -1    0    0  501  502  0.00000000000E+00 -0.00000000000E+00 -0.17795784424E+03  0.17795784424E+03  0.00000000000E+00 0. -1.
         23    2    1    2    0    0 -0.14379782615E+02 -0.64281936168E+02  0.38997927509E+03  0.40571442163E+03  0.90451155089E+02 0.  0.
         23    2    1    2    0    0 -0.42958674508E+01  0.40714555371E+02  0.15325804581E+03  0.19161907090E+03  0.10748818646E+03 0.  0.
        -11    1    4    4    0    0  0.23954761162E+01 -0.34622999501E+02  0.75755746565E+02  0.83327207669E+02  0.00000000000E+00 0. -1.
         11    1    4    4    0    0 -0.66913435670E+01  0.75337554872E+02  0.77502299248E+02  0.10829186323E+03  0.00000000000E+00 0.  1.
        -11    1    3    3    0    0  0.22515129452E+02 -0.15619482114E+02  0.30158961348E+02  0.40748769617E+02  0.00000000000E+00 0.  1.
         11    1    3    3    0    0 -0.36894912067E+02 -0.48662454054E+02  0.35982031374E+03  0.36496565202E+03  0.00000000000E+00 0. -1.
          1    1    1    2  501    0  0.18675650066E+02  0.23567380797E+02 -0.14941184114E+03  0.15240767571E+03  0.00000000000E+00 0. -1.
<scales pt_clust_5="13000.00000" pt_clust_6="13000.00000" pt_clust_7="13000.00000" pt_clust_8="13000.00000" pt_clust_9="30.06994"></scales>
<clustering>
<clus scale="   30.070">  2  9  1 -1</clus>
<clus scale="   90.451">  7  8 -1 -1</clus>
<clus scale="  107.488">  5  6 -1 -1</clus>
<clus scale="  107.514">  1  7  2 -1</clus>
<clus scale="   30.070">  2  5  1 -1</clus>
</clustering>
</event>
<event>
 9    1  0.1321469E-005  0.1312367E+03  0.7546771E-02  0.1226947E+00
          2   -1    0    0  502    0 -0.00000000000E+00  0.00000000000E+00  0.14004851064E+03  0.14004851064E+03  0.00000000000E+00 0. -1.
         21   -1    0    0  501  502  0.00000000000E+00 -0.00000000000E+00 -0.45621359722E+03  0.45621359722E+03  0.00000000000E+00 0. -1.
         23    2    1    2    0    0 -0.35594450289E+02 -0.35693279734E+02 -0.14714578858E+02  0.10511214833E+03  0.91055311686E+02 0.  0.
         23    2    1    2    0    0  0.12072634437E+03  0.88613682491E+02 -0.46952668265E+01  0.17792211687E+03  0.95953109334E+02 0.  0.
        -11    1    4    4    0    0  0.10251554962E+02 -0.19499553218E+02  0.64267135508E+01  0.22948411751E+02  0.00000000000E+00 0.  1.
         11    1    4    4    0    0  0.11047478941E+03  0.10811323571E+03 -0.11121980377E+02  0.15497370512E+03  0.00000000000E+00 0. -1.
        -13    1    3    3    0    0  0.26728451530E+02  0.79766991610E+00  0.10339572656E+02  0.28669725517E+02  0.00000000000E+00 0. -1.
         13    1    3    3    0    0 -0.62322901820E+02 -0.36490949650E+02 -0.25054151514E+02  0.76442422814E+02  0.00000000000E+00 0.  1.
          2    1    1    2  501    0 -0.85131894084E+02 -0.52920402757E+02 -0.29675524090E+03  0.31322784266E+03  0.00000000000E+00 0. -1.
<scales pt_clust_5="13000.00000" pt_clust_6="13000.00000" pt_clust_7="13000.00000" pt_clust_8="13000.00000" pt_clust_9="100.23975"></scales>
<clustering>
<clus scale="   91.055">  7  8 -1 -1</clus>
<clus scale="   95.953">  5  6 -1 -1</clus>
<clus scale="  100.240">  2  9  1 -1</clus>
<clus scale="  127.699">  1  7  2 -1</clus>
<clus scale="  100.240">  2  5  1 -1</clus>
</clustering>
</event>
<event>
 9    1  0.1321469E-005  0.1096438E+03  0.7546771E-02  0.1261253E+00
         21   -1    0    0  501  502  0.00000000000E+00  0.00000000000E+00  0.18879799340E+03  0.18879799340E+03  0.00000000000E+00 0. -1.
         -3   -1    0    0    0  501 -0.00000000000E+00 -0.00000000000E+00 -0.98841776858E+02  0.98841776858E+02  0.00000000000E+00 0.  1.
         23    2    1    2    0    0  0.36065745909E+02  0.41587092332E+02 -0.16772481060E+02  0.10743690936E+03  0.90725680458E+02 0.  0.
         23    2    1    2    0    0 -0.56647136454E+02 -0.55289379232E+02  0.91129436662E+02  0.15096789477E+03  0.90669275390E+02 0.  0.
        -13    1    4    4    0    0 -0.23498612670E+02  0.96666112271E+01  0.70860140724E+02  0.75278069273E+02  0.00000000000E+00 0.  1.
         13    1    4    4    0    0 -0.33148523784E+02 -0.64955990459E+02  0.20269295939E+02  0.75689825495E+02  0.00000000000E+00 0. -1.
        -13    1    3    3    0    0  0.14825818670E+02  0.66935618292E+02 -0.25643693803E+02  0.73196864190E+02  0.00000000000E+00 0.  1.
         13    1    3    3    0    0  0.21239927239E+02 -0.25348525960E+02  0.88712127432E+01  0.34240045166E+02  0.00000000000E+00 0. -1.
         -3    1    1    2    0  502  0.20581390545E+02  0.13702286900E+02  0.15599260943E+02  0.29234966137E+02  0.00000000000E+00 0.  1.
<scales pt_clust_5="13000.00000" pt_clust_6="13000.00000" pt_clust_7="13000.00000" pt_clust_8="13000.00000" pt_clust_9="24.72542"></scales>
<clustering>
<clus scale="   24.725">  1  9  2 -1</clus>
<clus scale="   90.669">  5  6 -1 -1</clus>
<clus scale="   90.726">  7  8 -1 -1</clus>
<clus scale="  109.597">  1  5  2 -1</clus>
<clus scale="   24.725">  1  5  2 -1</clus>
</clustering>
</event>
<event>
 9    1  0.1321469E-005  0.1418797E+03  0.7546771E-02  0.1211207E+00
         21   -1    0    0  501  502  0.00000000000E+00  0.00000000000E+00  0.15944051401E+03  0.15944051401E+03  0.00000000000E+00 0.  1.
          1   -1    0    0  502    0 -0.00000000000E+00 -0.00000000000E+00 -0.33071789700E+03  0.33071789700E+03  0.00000000000E+00 0. -1.
         23    2    1    2    0    0  0.92714349131E+02 -0.48500502712E+02 -0.22208538033E+03  0.26240303809E+03  0.92656294685E+02 0.  0.
         23    2    1    2    0    0 -0.11081437347E+03  0.38239024053E+02 -0.23872895878E+02  0.15023025031E+03  0.90868942006E+02 0.  0.
        -11    1    4    4    0    0 -0.28712303448E+02 -0.27460240733E+02 -0.21224924197E+02  0.45043962942E+02  0.00000000000E+00 0. -1.
         11    1    4    4    0    0 -0.82102070026E+02  0.65699264785E+02 -0.26479716811E+01  0.10518628737E+03  0.00000000000E+00 0.  1.
        -11    1    3    3    0    0  0.61969628136E+02  0.15737458913E+02 -0.72078826585E+02  0.96349673929E+02  0.00000000000E+00 0.  1.
         11    1    3    3    0    0  0.30744720995E+02 -0.64237961626E+02 -0.15000655374E+03  0.16605336416E+03  0.00000000000E+00 0. -1.
          1    1    1    2  501    0  0.18100024343E+02  0.10261478660E+02  0.74680893214E+02  0.77525122616E+02  0.00000000000E+00 0. -1.
<scales pt_clust_5="13000.00000" pt_clust_6="13000.00000" pt_clust_7="13000.00000" pt_clust_8="13000.00000" pt_clust_9="20.80646"></scales>
<clustering>
<clus scale="   20.806">  1  9  2 -1</clus>
<clus scale="   90.869">  5  6 -1 -1</clus>
<clus scale="   92.656">  7  8 -1 -1</clus>
<clus scale="  140.719">  1  5  2 -1</clus>
<clus scale="   20.806">  1  5  2 -1</clus>
</clustering>
</event>
<event>
 9    1  0.1321469E-005  0.9326405E+02  0.7546771E-02  0.1297091E+00
          1   -1    0    0  502    0 -0.00000000000E+00  0.00000000000E+00  0.26530159911E+03  0.26530159911E+03  0.00000000000E+00 0. -1.
         21   -1    0    0  501  502  0.00000000000E+00 -0.00000000000E+00 -0.19794304259E+03  0.19794304259E+03  0.00000000000E+00 0.  1.
         23    2    1    2    0    0 -0.87817382664E+01 -0.48561842063E+02  0.13898031090E+03  0.17260819987E+03  0.89681059386E+02 0.  0.
         23    2    1    2    0    0  0.96675099948E+01 -0.22931560856E+01  0.87705345359E+02  0.12338770449E+03  0.86218204004E+02 0.  0.
        -13    1    3    3    0    0 -0.14588359323E+02 -0.71953695523E+02  0.78397958521E+02  0.10740760880E+03  0.00000000000E+00 0. -1.
         13    1    3    3    0    0  0.58066210568E+01  0.23391853460E+02  0.60582352380E+02  0.65200591073E+02  0.00000000000E+00 0.  1.
        -13    1    4    4    0    0  0.10886330183E+02  0.33798675193E+02  0.87575770862E+01  0.36572637122E+02  0.00000000000E+00 0.  1.
         13    1    4    4    0    0 -0.12188201882E+01 -0.36091831278E+02  0.78947768273E+02  0.86815067373E+02  0.00000000000E+00 0. -1.
          1    1    1    2  501    0 -0.88577172847E+00  0.50854998149E+02 -0.15932709974E+03  0.16724873734E+03  0.00000000000E+00 0. -1.
<scales pt_clust_5="13000.00000" pt_clust_6="13000.00000" pt_clust_7="13000.00000" pt_clust_8="13000.00000" pt_clust_9="50.86271"></scales>
<clustering>
<clus scale="   50.863">  2  9  1 -1</clus>
<clus scale="   86.218">  7  8 -1 -1</clus>
<clus scale="   89.681">  5  6 -1 -1</clus>
<clus scale="   89.939">  2  7  1 -1</clus>
<clus scale="   50.863">  2  5  1 -1</clus>
</clustering>
</event>
<event>
 9    1  0.1321469E-005  0.1361406E+03  0.7546771E-02  0.1218630E+00
         21   -1    0    0  501  502  0.00000000000E+00  0.00000000000E+00  0.32629988814E+03  0.32629988814E+03  0.00000000000E+00 0. -1.
         -2   -1    0    0    0  501 -0.00000000000E+00 -0.00000000000E+00 -0.25235357309E+03  0.25235357309E+03  0.00000000000E+00 0.  1.
         23    2    1    2    0    0 -0.17447756188E+02  0.98317229298E+02 -0.21065140072E+03  0.25142662899E+03  0.94184050489E+02 0.  0.
         23    2    1    2    0    0 -0.19432023355E+01 -0.84575283529E+02  0.18050066258E+03  0.22045114761E+03  0.94135352949E+02 0.  0.
        -13    1    3    3    0    0  0.31722549756E+02  0.54605941589E+01 -0.48710563344E+02  0.58385419694E+02  0.00000000000E+00 0. -1.
         13    1    3    3    0    0 -0.49170305944E+02  0.92856635139E+02 -0.16194083737E+03  0.19304120929E+03  0.00000000000E+00 0.  1.
        -13    1    4    4    0    0 -0.39250833875E+02 -0.73629305152E+02  0.94462958289E+02  0.12603631630E+03  0.00000000000E+00 0. -1.
         13    1    4    4    0    0  0.37307631540E+02 -0.10945978378E+02  0.86037704286E+02  0.94414831317E+02  0.00000000000E+00 0.  1.
         -2    1    1    2    0  502  0.19390958524E+02 -0.13741945768E+02  0.10409705319E+03  0.10677568463E+03  0.00000000000E+00 0.  1.
<scales pt_clust_5="13000.00000" pt_clust_6="13000.00000" pt_clust_7="13000.00000" pt_clust_8="13000.00000" pt_clust_9="23.76658"></scales>
<clustering>
<clus scale="   23.767">  1  9  2 -1</clus>
<clus scale="   94.135">  7  8 -1 -1</clus>
<clus scale="   94.184">  5  6 -1 -1</clus>
<clus scale="  136.107">  1  7  2 -1</clus>
<clus scale="   23.767">  1  5  2 -1</clus>
</clustering>
</event>
<event>
 9    1  0.1321469E-005  0.1279985E+03  0.7546771E-02  0.1230988E+00
         21   -1    0    0  501  502  0.00000000000E+00  0.00000000000E+00  0.12379035898E+03  0.12379035898E+03  0.00000000000E+00 0.  1.
          3   -1    0    0  502    0 -0.00000000000E+00 -0.00000000000E+00 -0.21405966712E+03  0.21405966712E+03  0.00000000000E+00 0. -1.
         23    2    1    2    0    0  0.82053158286E+02  0.97161731514E+00 -0.10807393270E+03  0.16325589293E+03  0.90768093642E+02 0.  0.
         23    2    1    2    0    0 -0.10249691885E+03 -0.33477352519E+01 -0.11570046159E+02  0.13872681432E+03  0.92706188247E+02 0.  0.
        -11    1    3    3    0    0  0.82088740114E+02  0.33610808787E+02 -0.69241098108E+02  0.11252811821E+03  0.00000000000E+00 0. -1.
         11    1    3    3    0    0 -0.35581827729E-01 -0.32639191472E+02 -0.38832834588E+02  0.50727774721E+02  0.00000000000E+00 0.  1.
        -11    1    4    4    0    0 -0.78475059846E+02  0.17184247449E+02  0.30656375552E+02  0.85985154185E+02  0.00000000000E+00 0.  1.
         11    1    4    4    0    0 -0.24021859000E+02 -0.20531982701E+02 -0.42226421710E+02  0.52741660136E+02  0.00000000000E+00 0. -1.
          3    1    1    2  501    0  0.20443760560E+02  0.23761179368E+01  0.29374670710E+02  0.35867318852E+02  0.00000000000E+00 0. -1.
<scales pt_clust_5="13000.00000" pt_clust_6="13000.00000" pt_clust_7="13000.00000" pt_clust_8="13000.00000" pt_clust_9="20.58138"></scales>
<clustering>
<clus scale="   20.581">  1  9  2 -1</clus>
<clus scale="   90.768">  5  6 -1 -1</clus>
<clus scale="   92.706">  7  8 -1 -1</clus>
<clus scale="  126.602">  2  5  1 -1</clus>
<clus scale="   20.581">  1  5  2 -1</clus>
</clustering>
</event>
<event>
 9    1  0.1321469E-005  0.1145446E+03  0.7546771E-02  0.1254764E+00
          1   -1    0    0  502    0 -0.00000000000E+00  0.00000000000E+00  0.29619109955E+03  0.29619109955E+03  0.00000000000E+00 0. -1.
         21   -1    0    0  501  502  0.00000000000E+00 -0.00000000000E+00 -0.16722902652E+03  0.16722902652E+03  0.00000000000E+00 0. -1.
         23    2    1    2    0    0 -0.23323048181E+02  0.75669325541E+02  0.23513843870E+03  0.26468392799E+03  0.92182888742E+02 0.  0.
         23    2    1    2    0    0  0.24624749795E+02 -0.20127652035E+02 -0.15708983736E+02  0.92571613027E+02  0.85505734834E+02 0.  0.
        -11    1    4    4    0    0  0.39230008526E+02  0.13056286123E+02  0.16070833482E+02  0.44359123809E+02  0.00000000000E+00 0. -1.
         11    1    4    4    0    0 -0.14605258731E+02 -0.33183938158E+02 -0.31779817217E+02  0.48212489218E+02  0.00000000000E+00 0.  1.
        -13    1    3    3    0    0 -0.13387697689E+02  0.95419248303E+02  0.16423002214E+03  0.19040893773E+03  0.00000000000E+00 0. -1.
         13    1    3    3    0    0 -0.99353504919E+01 -0.19749922762E+02  0.70908416564E+02  0.74274990260E+02  0.00000000000E+00 0.  1.
          1    1    1    2  501    0 -0.13017016142E+01 -0.55541673507E+02 -0.90467381940E+02  0.10616458505E+03  0.00000000000E+00 0. -1.
<scales pt_clust_5="13000.00000" pt_clust_6="13000.00000" pt_clust_7="13000.00000" pt_clust_8="13000.00000" pt_clust_9="55.55693"></scales>
<clustering>
<clus scale="   55.557">  2  9  1 -1</clus>
<clus scale="   85.506">  5  6 -1 -1</clus>
<clus scale="   92.183">  7  8 -1 -1</clus>
<clus scale="  109.243">  2  5  1 -1</clus>
<clus scale="   55.557">  2  5  1 -1</clus>
</clustering>
</event>
<event>
 9    1  0.1321469E-005  0.1200308E+03  0.7546771E-02  0.1244447E+00
          3   -1    0    0  502    0 -0.00000000000E+00  0.00000000000E+00  0.21717671251E+03  0.21717671251E+03  0.00000000000E+00 0. -1.
         21   -1    0    0  501  502  0.00000000000E+00 -0.00000000000E+00 -0.23949363941E+03  0.23949363941E+03  0.00000000000E+00 0.  1.
         23    2    1    2    0    0 -0.42293021686E+02 -0.71953585035E+02  0.15010374225E+03  0.19590027955E+03  0.94232520965E+02 0.  0.
         23    2    1    2    0    0 -0.15127642274E+01  0.84364921393E+01 -0.15839796809E+03  0.18234811043E+03  0.89930274259E+02 0.  0.
        -11    1    4    4    0    0  0.35646303013E+01 -0.34477191718E+02 -0.11874038516E+03  0.12369584635E+03  0.00000000000E+00 0.  1.
         11    1    4    4    0    0 -0.50773945287E+01  0.42913683857E+02 -0.39657582928E+02  0.58652264074E+02  0.00000000000E+00 0. -1.
        -13    1    3    3    0    0 -0.18401445183E+02 -0.68194850905E+02  0.36033244894E+02  0.79294045251E+02  0.00000000000E+00 0. -1.
         13    1    3    3    0    0 -0.23891576503E+02 -0.37587341304E+01  0.11407049736E+03  0.11660623430E+03  0.00000000000E+00 0.  1.
          3    1    1    2  501    0  0.43805785914E+02  0.63517092896E+02 -0.14022701063E+02  0.78421961940E+02  0.00000000000E+00 0. -1.
<scales pt_clust_5="13000.00000" pt_clust_6="13000.00000" pt_clust_7="13000.00000" pt_clust_8="13000.00000" pt_clust_9="77.15807"></scales>
<clustering>
<clus scale="   77.158">  2  9  1 -1</clus>
<clus scale="   89.930">  5  6 -1 -1</clus>
<clus scale="   94.233">  7  8 -1 -1</clus>
<clus scale="  116.684">  2  5  1 -1</clus>
<clus scale="   77.158">  2  5  1 -1</clus>
</clustering>
</event>
<event>
 9    1  0.1321469E-005  0.1320448E+03  0.7546771E-02  0.1225109E+00
         -3   -1    0    0    0  501 -0.00000000000E+00  0.00000000000E+00  0.86227918178E+03  0.86227918178E+03  0.00000000000E+00 0.  1.
         21   -1    0    0  501  502  0.00000000000E+00 -0.00000000000E+00 -0.25746220592E+02  0.25746220592E+02  0.00000000000E+00 0. -1.
         23    2    1    2    0    0 -0.74734998766E+02 -0.24124897946E+02  0.33859273455E+03  0.35979193918E+03  0.92940135923E+02 0.  0.
         23    2    1    2    0    0  0.10586156554E+03  0.30794785891E+02  0.43388181834E+03  0.45670144073E+03  0.90375792013E+02 0.  0.
        -11    1    3    3    0    0 -0.56451451607E+02 -0.36528646389E+01  0.32361744293E+03  0.32852451838E+03  0.00000000000E+00 0.  1.
         11    1    3    3    0    0 -0.18283547159E+02 -0.20472033307E+02  0.14975291629E+02  0.31267420805E+02  0.00000000000E+00 0. -1.
        -13    1    4    4    0    0  0.10217678928E+03  0.14522115939E+01  0.39409421993E+03  0.40712708012E+03  0.00000000000E+00 0. -1.
         13    1    4    4    0    0  0.36847762564E+01  0.29342574297E+02  0.39787598412E+02  0.49574360610E+02  0.00000000000E+00 0.  1.
         -3    1    1    2    0  502 -0.31126566773E+02 -0.66698879443E+01  0.64058408288E+02  0.71532022456E+02  0.00000000000E+00 0.  1.
<scales pt_clust_5="13000.00000" pt_clust_6="13000.00000" pt_clust_7="13000.00000" pt_clust_8="13000.00000" pt_clust_9="31.83317"></scales>
<clustering>
<clus scale="   31.833">  2  9  1 -1</clus>
<clus scale="   90.376">  7  8 -1 -1</clus>
<clus scale="   92.940">  5  6 -1 -1</clus>
<clus scale="  130.253">  2  7  1 -1</clus>
<clus scale="   31.833">  2  5  1 -1</clus>
</clustering>
</event>
<event>
 9    1  0.1321469E-005  0.1047810E+03  0.7546771E-02  0.1271049E+00
         21   -1    0    0  501  502  0.00000000000E+00  0.00000000000E+00  0.13120656327E+03  0.13120656327E+03  0.00000000000E+00 0. -1.
          2   -1    0    0  502    0 -0.00000000000E+00 -0.00000000000E+00 -0.22988343408E+03  0.22988343408E+03  0.00000000000E+00 0. -1.
         23    2    1    2    0    0 -0.13049175859E+02 -0.46510397932E+02 -0.97039442435E+02  0.14125402851E+03  0.90567925203E+02 0.  0.
         23    2    1    2    0    0 -0.66902071416E+01  0.55274961187E+02 -0.83004661780E+02  0.13565112768E+03  0.91713545109E+02 0.  0.
        -11    1    3    3    0    0  0.38913732941E+02 -0.18536589769E+02 -0.33970377173E+02  0.54880509263E+02  0.00000000000E+00 0.  1.
         11    1    3    3    0    0 -0.51962908799E+02 -0.27973808164E+02 -0.63069065262E+02  0.86373519247E+02  0.00000000000E+00 0. -1.
        -11    1    4    4    0    0  0.16439458441E+02  0.13468678023E+02  0.15410419478E+02  0.26251516337E+02  0.00000000000E+00 0.  1.
         11    1    4    4    0    0 -0.23129665583E+02  0.41806283164E+02 -0.98415081258E+02  0.10939961134E+03  0.00000000000E+00 0. -1.
          2    1    1    2  501    0  0.19739383000E+02 -0.87645632548E+01  0.81367233405E+02  0.84184841167E+02  0.00000000000E+00 0. -1.
<scales pt_clust_5="13000.00000" pt_clust_6="13000.00000" pt_clust_7="13000.00000" pt_clust_8="13000.00000" pt_clust_9="21.59770"></scales>
<clustering>
<clus scale="   21.598">  1  9  2 -1</clus>
<clus scale="   90.568">  5  6 -1 -1</clus>
<clus scale="   91.714">  7  8 -1 -1</clus>
<clus scale="  103.780">  2  5  1 -1</clus>
<clus scale="   21.598">  1  5  2 -1</clus>
</clustering>
</event>
<event>
 9    1  0.1321469E-005  0.9509272E+02  0.7546771E-02  0.1291897E+00
         -1   -1    0    0    0  501 -0.00000000000E+00  0.00000000000E+00  0.52827734051E+03  0.52827734051E+03  0.00000000000E+00 0.  1.
         21   -1    0    0  501  502  0.00000000000E+00 -0.00000000000E+00 -0.37268681064E+02  0.37268681064E+02  0.00000000000E+00 0. -1.
         23    2    1    2    0    0  0.79774809108E+01 -0.30089513054E+02  0.33393233825E+03  0.34712229065E+03  0.89521277596E+02 0.  0.
         23    2    1    2    0    0 -0.14109382520E+02  0.38398612911E+01  0.44288949429E+02  0.10245978969E+03  0.91228713967E+02 0.  0.
        -13    1    3    3    0    0  0.82709192165E+01  0.28613506237E+02  0.60191688807E+02  0.67157875527E+02  0.00000000000E+00 0.  1.
         13    1    3    3    0    0 -0.29343830572E+00 -0.58703019292E+02  0.27374064944E+03  0.27996441513E+03  0.00000000000E+00 0. -1.
        -13    1    4    4    0    0 -0.39564221344E+02 -0.28554585645E+02  0.35483219560E+02  0.60330347606E+02  0.00000000000E+00 0. -1.
         13    1    4    4    0    0  0.25454838824E+02  0.32394446936E+02  0.88057298691E+01  0.42129442085E+02  0.00000000000E+00 0.  1.
         -1    1    1    2    0  502  0.61319016094E+01  0.26249651763E+02  0.11278737177E+03  0.11596394123E+03  0.00000000000E+00 0.  1.
<scales pt_clust_5="13000.00000" pt_clust_6="13000.00000" pt_clust_7="13000.00000" pt_clust_8="13000.00000" pt_clust_9="26.95636"></scales>
<clustering>
<clus scale="   26.956">  2  9  1 -1</clus>
<clus scale="   89.521">  5  6 -1 -1</clus>
<clus scale="   91.229">  7  8 -1 -1</clus>
<clus scale="   93.456">  1  5  2 -1</clus>
<clus scale="   26.956">  2  5  1 -1</clus>
</clustering>
</event>
<event>
 9    1  0.1321469E-005  0.9503460E+02  0.7546771E-02  0.1292333E+00
         21   -1    0    0  501  502  0.00000000000E+00  0.00000000000E+00  0.25158158840E+02  0.25158158840E+02  0.00000000000E+00 0.  1.
          1   -1    0    0  502    0 -0.00000000000E+00 -0.00000000000E+00 -0.54028279688E+03  0.54028279688E+03  0.00000000000E+00 0. -1.
         23    2    1    2    0    0  0.24639758213E+02  0.12115432868E+02 -0.36052706965E+03  0.37268770730E+03  0.90346321588E+02 0.  0.
         23    2    1    2    0    0 -0.67467250925E+01  0.66309911676E+00 -0.11910881926E+03  0.15100516069E+03  0.92572618684E+02 0.  0.
        -11    1    3    3    0    0  0.64930863980E+00 -0.38223331363E+02 -0.12939979939E+03  0.13492869503E+03  0.00000000000E+00 0.  1.
         11    1    3    3    0    0  0.23990449574E+02  0.50338764230E+02 -0.23112727027E+03  0.23775901227E+03  0.00000000000E+00 0. -1.
        -13    1    4    4    0    0  0.79099160074E+01  0.39802485823E+02 -0.93658866045E+02  0.10207246366E+03  0.00000000000E+00 0. -1.
         13    1    4    4    0    0 -0.14656641100E+02 -0.39139386706E+02 -0.25449953215E+02  0.48932697031E+02  0.00000000000E+00 0.  1.
          1    1    1    2  501    0 -0.17893033121E+02 -0.12778531984E+02 -0.35488749123E+02  0.41748087720E+02  0.00000000000E+00 0. -1.
<scales pt_clust_5="13000.00000" pt_clust_6="13000.00000" pt_clust_7="13000.00000" pt_clust_8="13000.00000" pt_clust_9="21.98753"></scales>
<clustering>
<clus scale="   21.988">  1  9  2 -1</clus>
<clus scale="   90.346">  5  6 -1 -1</clus>
<clus scale="   92.573">  7  8 -1 -1</clus>
<clus scale="   92.867">  2  5  1 -1</clus>
<clus scale="   21.988">  1  5  2 -1</clus>
</clustering>
</event>
<event>
 9    1  0.1321469E-005  0.1327546E+03  0.7546771E-02  0.1224040E+00
          1   -1    0    0  502    0 -0.00000000000E+00  0.00000000000E+00  0.30985739252E+03  0.30985739252E+03  0.00000000000E+00 0. -1.
         21   -1    0    0  501  502  0.00000000000E+00 -0.00000000000E+00 -0.76459667089E+02  0.76459667089E+02  0.00000000000E+00 0.  1.
         23    2    1    2    0    0  0.64186515777E+02 -0.85911396005E+02  0.14512653721E+03  0.20234621032E+03  0.91551080038E+02 0.  0.
         23    2    1    2    0    0 -0.59969985463E+02  0.60248337299E+02  0.96775402330E+02  0.15660858755E+03  0.89075865950E+02 0.  0.
        -13    1    4    4    0    0 -0.74092921901E+02  0.27195958209E+02  0.37724188434E+02  0.87478543722E+02  0.00000000000E+00 0.  1.
         13    1    4    4    0    0  0.14122936438E+02  0.33052379090E+02  0.59051213896E+02  0.69130043828E+02  0.00000000000E+00 0. -1.
        -13    1    3    3    0    0  0.25572344465E+02 -0.74005264092E+02  0.36385723735E+02  0.86340284958E+02  0.00000000000E+00 0.  1.
         13    1    3    3    0    0  0.38614171312E+02 -0.11906131912E+02  0.10874081348E+03  0.11600592536E+03  0.00000000000E+00 0. -1.
          1    1    1    2  501    0 -0.42165303144E+01  0.25663058706E+02 -0.85042141098E+01  0.27362261742E+02  0.00000000000E+00 0. -1.
<scales pt_clust_5="13000.00000" pt_clust_6="13000.00000" pt_clust_7="13000.00000" pt_clust_8="13000.00000" pt_clust_9="26.00715"></scales>
<clustering>
<clus scale="   26.007">  2  9  1 -1</clus>
<clus scale="   89.076">  5  6 -1 -1</clus>
<clus scale="   91.551">  7  8 -1 -1</clus>
<clus scale="  131.060">  2  5  1 -1</clus>
<clus scale="   26.007">  2  5  1 -1</clus>
</clustering>
</event>
<event>
 9    1  0.1321469E-005  0.9328315E+02  0.7546771E-02  0.1295123E+00
         -3   -1    0    0    0  501 -0.00000000000E+00  0.00000000000E+00  0.12648568791E+03  0.12648568791E+03  0.00000000000E+00 0.  1.
         21   -1    0    0  501  502  0.00000000000E+00 -0.00000000000E+00 -0.17816404257E+03  0.17816404257E+03  0.00000000000E+00 0. -1.
         23    2    1    2    0    0 -0.13995350244E+02  0.16405386937E+02  0.53730105052E+02  0.10810718350E+03  0.91297493872E+02 0.  0.
         23    2    1    2    0    0  0.30482111871E+02  0.28327725577E+02 -0.25467411881E+02  0.10346496755E+03  0.91240294073E+02 0.  0.
        -13    1    4    4    0    0 -0.14500796346E+02 -0.18891597416E+02 -0.29750468066E+02  0.38108475406E+02  0.00000000000E+00 0.  1.
         13    1    4    4    0    0  0.44982908217E+02  0.47219322993E+02  0.42830561851E+01  0.65356492148E+02  0.00000000000E+00 0. -1.
        -13    1    3    3    0    0  0.11221868999E+02  0.19628192958E+02 -0.19957241219E+02  0.30157715094E+02  0.00000000000E+00 0. -1.
         13    1    3    3    0    0 -0.25217219243E+02 -0.32228060208E+01  0.73687346271E+02  0.77949468410E+02  0.00000000000E+00 0.  1.
         -3    1    1    2    0  502 -0.16486761626E+02 -0.44733112514E+02 -0.79941047829E+02  0.93077579428E+02  0.00000000000E+00 0.  1.
<scales pt_clust_5="13000.00000" pt_clust_6="13000.00000" pt_clust_7="13000.00000" pt_clust_8="13000.00000" pt_clust_9="47.67457"></scales>
<clustering>
<clus scale="   47.675">  2  9  1 -1</clus>
<clus scale="   91.240">  5  6 -1 -1</clus>
<clus scale="   91.297">  7  8 -1 -1</clus>
<clus scale="   93.227">  2  5  1 -1</clus>
<clus scale="   47.675">  2  5  1 -1</clus>
</clustering>
</event>
<event>
 9    1  0.1321469E-005  0.2067299E+03  0.7546771E-02  0.1144541E+00
         21   -1    0    0  501  502  0.00000000000E+00  0.00000000000E+00  0.16763201404E+03  0.16763201404E+03  0.00000000000E+00 0.  1.
          2   -1    0    0  502    0 -0.00000000000E+00 -0.00000000000E+00 -0.75237056131E+03  0.75237056131E+03  0.00000000000E+00 0. -1.
         23    2    1    2    0    0 -0.69895761420E+01 -0.17918655577E+03 -0.55298403987E+03  0.58828218752E+03  0.90154910308E+02 0.  0.
         23    2    1    2    0    0  0.44832947917E+02  0.20147987752E+03 -0.10211918876E+03  0.24877280579E+03  0.94103378910E+02 0.  0.
        -11    1    4    4    0    0 -0.23269470302E+02  0.33820865339E+02 -0.13837184088E+00  0.41052872338E+02  0.00000000000E+00 0.  1.
         11    1    4    4    0    0  0.68102418219E+02  0.16765901218E+03 -0.10198081692E+03  0.20771993345E+03  0.00000000000E+00 0. -1.
        -13    1    3    3    0    0  0.14037390144E+02 -0.14114109265E+03 -0.50010369561E+03  0.51982839738E+03  0.00000000000E+00 0. -1.
         13    1    3    3    0    0 -0.21026966286E+02 -0.38045463119E+02 -0.52880344262E+02  0.68453790139E+02  0.00000000000E+00 0.  1.
          2    1    1    2  501    0 -0.37843371775E+02 -0.22293321754E+02  0.70364681365E+02  0.82947582037E+02  0.00000000000E+00 0. -1.
<scales pt_clust_5="13000.00000" pt_clust_6="13000.00000" pt_clust_7="13000.00000" pt_clust_8="13000.00000" pt_clust_9="43.92167"></scales>
<clustering>
<clus scale="   43.922">  1  9  2 -1</clus>
<clus scale="   90.155">  7  8 -1 -1</clus>
<clus scale="   94.103">  5  6 -1 -1</clus>
<clus scale="  204.963">  2  7  1 -1</clus>
<clus scale="   43.922">  1  5  2 -1</clus>
</clustering>
</event>
<event>
 9    1  0.1321469E-005  0.1088152E+03  0.7546771E-02  0.1263403E+00
         21   -1    0    0  501  502  0.00000000000E+00  0.00000000000E+00  0.10859923174E+03  0.10859923174E+03  0.00000000000E+00 0. -1.
          1   -1    0    0  502    0 -0.00000000000E+00 -0.00000000000E+00 -0.28467269557E+03  0.28467269557E+03  0.00000000000E+00 0. -1.
         23    2    1    2    0    0 -0.65254985636E+01  0.53194763617E+02 -0.18996404999E+03  0.21736206422E+03  0.91036595196E+02 0.  0.
         23    2    1    2    0    0 -0.12608140124E+02 -0.83352865099E+02 -0.22455044816E+02  0.12495289983E+03  0.89455759007E+02 0.  0.
        -11    1    4    4    0    0  0.21252304575E+02 -0.88946825057E+00  0.17230187494E+02  0.27373910291E+02  0.00000000000E+00 0.  1.
         11    1    4    4    0    0 -0.33860444700E+02 -0.82463396849E+02 -0.39685232310E+02  0.97578989535E+02  0.00000000000E+00 0. -1.
        -13    1    3    3    0    0 -0.44408627225E+02  0.50979817489E+02 -0.11749476868E+03  0.13555843253E+03  0.00000000000E+00 0. -1.
         13    1    3    3    0    0  0.37883128662E+02  0.22149461278E+01 -0.72469281312E+02  0.81803631688E+02  0.00000000000E+00 0.  1.
          1    1    1    2  501    0  0.19133638688E+02  0.30158101483E+02  0.36345630969E+02  0.50956963263E+02  0.00000000000E+00 0. -1.
<scales pt_clust_5="13000.00000" pt_clust_6="13000.00000" pt_clust_7="13000.00000" pt_clust_8="13000.00000" pt_clust_9="35.71564"></scales>
<clustering>
<clus scale="   35.716">  1  9  2 -1</clus>
<clus scale="   89.456">  5  6 -1 -1</clus>
<clus scale="   91.037">  7  8 -1 -1</clus>
<clus scale="  107.496">  1  5  2 -1</clus>
<clus scale="   35.716">  1  5  2 -1</clus>
</clustering>
</event>
<event>
 9    1  0.1321469E-005  0.1090318E+03  0.7546771E-02  0.1262896E+00
         -3   -1    0    0    0  501 -0.00000000000E+00  0.00000000000E+00  0.10074444626E+03  0.10074444626E+03  0.00000000000E+00 0.  1.
         21   -1    0    0  501  502  0.00000000000E+00 -0.00000000000E+00 -0.24536232860E+03  0.24536232860E+03  0.00000000000E+00 0.  1.
         23    2    1    2    0    0  0.49658238274E+02 -0.16522713217E+02  0.15466954941E+02  0.10685442318E+03  0.91867841911E+02 0.  0.
         23    2    1    2    0    0 -0.86705913528E+02 -0.15397878182E+02 -0.13270546746E+03  0.18320697463E+03  0.90548574617E+02 0.  0.
        -11    1    3    3    0    0 -0.94411722551E+01  0.22519734694E+02  0.25511669513E+02  0.35314578655E+02  0.00000000000E+00 0.  1.
         11    1    3    3    0    0  0.59099410529E+02 -0.39042447911E+02 -0.10044714573E+02  0.71539844525E+02  0.00000000000E+00 0. -1.
        -13    1    4    4    0    0 -0.40265013918E+02 -0.29518046250E+02 -0.95500126392E+01  0.50830986039E+02  0.00000000000E+00 0.  1.
         13    1    4    4    0    0 -0.46440899609E+02  0.14120168068E+02 -0.12315545482E+03  0.13237598859E+03  0.00000000000E+00 0. -1.
         -3    1    1    2    0  502  0.37047675254E+02  0.31920591400E+02 -0.27379369828E+02  0.56045377055E+02  0.00000000000E+00 0.  1.
<scales pt_clust_5="13000.00000" pt_clust_6="13000.00000" pt_clust_7="13000.00000" pt_clust_8="13000.00000" pt_clust_9="48.90250"></scales>
<clustering>
<clus scale="   48.902">  2  9  1 -1</clus>
<clus scale="   90.549">  7  8 -1 -1</clus>
<clus scale="   91.868">  5  6 -1 -1</clus>
<clus scale="  107.923">  2  7  1 -1</clus>
<clus scale="   48.902">  2  5  1 -1</clus>
</clustering>
</event>
<event>
 9    1  0.1321469E-005  0.1020290E+03  0.7546771E-02  0.1277410E+00
         -1   -1    0    0    0  501 -0.00000000000E+00  0.00000000000E+00  0.27341427833E+03  0.27341427833E+03  0.00000000000E+00 0.  1.
         21   -1    0    0  501  502  0.00000000000E+00 -0.00000000000E+00 -0.86239921200E+02  0.86239921200E+02  0.00000000000E+00 0. -1.
         23    2    1    2    0    0 -0.28855234687E+02 -0.30737037076E+02  0.25630835599E+02  0.10365669690E+03  0.91161291469E+02 0.  0.
         23    2    1    2    0    0  0.76999760497E+01  0.54394982653E+02  0.13823154984E+02  0.10490630484E+03  0.88295806309E+02 0.  0.
        -11    1    3    3    0    0 -0.57994195501E+02 -0.23376336410E+02  0.35649115520E+02  0.71976657696E+02  0.00000000000E+00 0. -1.
         11    1    3    3    0    0  0.29138960814E+02 -0.73607006667E+01 -0.10018279921E+02  0.31680039207E+02  0.00000000000E+00 0.  1.
        -11    1    4    4    0    0 -0.39634810398E+02  0.15376294168E+02  0.82898912233E+01  0.43313634275E+02  0.00000000000E+00 0. -1.
         11    1    4    4    0    0  0.47334786447E+02  0.39018688484E+02  0.55332637611E+01  0.61592670561E+02  0.00000000000E+00 0.  1.
         -1    1    1    2    0  502  0.21155258638E+02 -0.23657945576E+02  0.14772036655E+03  0.15109119779E+03  0.00000000000E+00 0.  1.
<scales pt_clust_5="13000.00000" pt_clust_6="13000.00000" pt_clust_7="13000.00000" pt_clust_8="13000.00000" pt_clust_9="31.73711"></scales>
<clustering>
<clus scale="   31.737">  2  9  1 -1</clus>
<clus scale="   88.296">  7  8 -1 -1</clus>
<clus scale="   91.161">  5  6 -1 -1</clus>
<clus scale="   99.477">  2  7  1 -1</clus>
<clus scale="   31.737">  2  5  1 -1</clus>
</clustering>
</event>
<event>
 9    1  0.1321469E-005  0.1077916E+03  0.7546771E-02  0.1265385E+00
         21   -1    0    0  501  502  0.00000000000E+00  0.00000000000E+00  0.29530249142E+03  0.29530249142E+03  0.00000000000E+00 0. -1.
          1   -1    0    0  502    0 -0.00000000000E+00 -0.00000000000E+00 -0.14613108461E+03  0.14613108461E+03  0.00000000000E+00 0. -1.
         23    2    1    2    0    0  0.72127018239E+01  0.51481464314E+02 -0.61102843234E+02  0.12288115763E+03  0.93079843223E+02 0.  0.
         23    2    1    2    0    0 -0.42422621106E+02 -0.49671952280E+02  0.73947982468E+01  0.11263232538E+03  0.91456962854E+02 0.  0.
        -11    1    3    3    0    0  0.34526859100E+02  0.65350299617E+02 -0.53719777774E+02  0.91370565192E+02  0.00000000000E+00 0. -1.
         11    1    3    3    0    0 -0.27314157276E+02 -0.13868835303E+02 -0.73830654605E+01  0.31510592441E+02  0.00000000000E+00 0.  1.
        -11    1    4    4    0    0 -0.32635363210E+02  0.12527852493E+02 -0.23872723756E+02  0.42331087388E+02  0.00000000000E+00 0. -1.
         11    1    4    4    0    0 -0.97872578962E+01 -0.62199804773E+02  0.31267522003E+02  0.70301237991E+02  0.00000000000E+00 0.  1.
          1    1    1    2  501    0  0.35209919282E+02 -0.18095120344E+01  0.20287945180E+03  0.20592009302E+03  0.00000000000E+00 0. -1.
<scales pt_clust_5="13000.00000" pt_clust_6="13000.00000" pt_clust_7="13000.00000" pt_clust_8="13000.00000" pt_clust_9="35.25639"></scales>
<clustering>
<clus scale="   35.256">  1  9  2 -1</clus>
<clus scale="   91.457">  7  8 -1 -1</clus>
<clus scale="   93.080">  5  6 -1 -1</clus>
<clus scale="  106.393">  1  7  2 -1</clus>
<clus scale="   35.256">  1  5  2 -1</clus>
</clustering>
</event>
<event>
 9    1  0.1321469E-005  0.1064837E+03  0.7546771E-02  0.1267929E+00
         21   -1    0    0  501  502  0.00000000000E+00  0.00000000000E+00  0.70469449980E+02  0.70469449980E+02  0.00000000000E+00 0.  1.
          3   -1    0    0  502    0 -0.00000000000E+00 -0.00000000000E+00 -0.43628297171E+03  0.43628297171E+03  0.00000000000E+00 0. -1.
         23    2    1    2    0    0  0.61697824784E+01 -0.52097805868E+02 -0.30443379211E+03  0.32210949289E+03  0.91226882245E+02 0.  0.
         23    2    1    2    0    0 -0.35213724276E+02  0.66357157931E+02 -0.18479006413E+01  0.11688661294E+03  0.89530926287E+02 0.  0.
        -13    1    3    3    0    0  0.36592636684E+02 -0.31589737900E+02 -0.26014047180E+03  0.26459402425E+03  0.00000000000E+00 0.  1.
         13    1    3    3    0    0 -0.30422854206E+02 -0.20508067968E+02 -0.44293320311E+02  0.57515468649E+02  0.00000000000E+00 0. -1.
        -13    1    4    4    0    0  0.15945198779E+02  0.40842536076E+02  0.28370444590E+02  0.52223024074E+02  0.00000000000E+00 0.  1.
         13    1    4    4    0    0 -0.51158923055E+02  0.25514621855E+02 -0.30218345231E+02  0.64663588866E+02  0.00000000000E+00 0. -1.
          3    1    1    2  501    0  0.29043941798E+02 -0.14259352063E+02 -0.59531828981E+02  0.67756315855E+02  0.00000000000E+00 0. -1.
<scales pt_clust_5="13000.00000" pt_clust_6="13000.00000" pt_clust_7="13000.00000" pt_clust_8="13000.00000" pt_clust_9="32.35554"></scales>
<clustering>
<clus scale="   32.356">  1  9  2 -1</clus>
<clus scale="   89.531">  7  8 -1 -1</clus>
<clus scale="   91.227">  5  6 -1 -1</clus>
<clus scale="  105.034">  1  7  2 -1</clus>
<clus scale="   32.356">  1  5  2 -1</clus>
</clustering>
</event>
<event>
 9    1  0.1321469E-005  0.1126447E+03  0.7546771E-02  0.1257089E+00
         21   -1    0    0  501  502  0.00000000000E+00  0.00000000000E+00  0.16051065188E+03  0.16051065188E+03  0.00000000000E+00 0. -1.
          2   -1    0    0  502    0 -0.00000000000E+00 -0.00000000000E+00 -0.34724983542E+03  0.34724983542E+03  0.00000000000E+00 0. -1.
         23    2    1    2    0    0  0.55838922180E+02  0.14399053999E+02 -0.27135426205E+03  0.29173818750E+03  0.90292394610E+02 0.  0.
         23    2    1    2    0    0 -0.98509765961E+02 -0.94824715547E+01  0.19151917519E+02  0.13772543434E+03  0.93847792006E+02 0.  0.
        -11    1    4    4    0    0 -0.59772313008E+02 -0.15034280402E+02 -0.35026796218E+02  0.70891716321E+02  0.00000000000E+00 0. -1.
         11    1    4    4    0    0 -0.38737452952E+02  0.55518088475E+01  0.54178713737E+02  0.66833718024E+02  0.00000000000E+00 0.  1.
        -13    1    3    3    0    0  0.54205298773E+02 -0.29830500299E+02 -0.13811506463E+03  0.15134016070E+03  0.00000000000E+00 0. -1.
         13    1    3    3    0    0  0.16336234073E+01  0.44229554298E+02 -0.13323919742E+03  0.14039802680E+03  0.00000000000E+00 0.  1.
          2    1    1    2  501    0  0.42670843780E+02 -0.49165824440E+01  0.65463161003E+02  0.78296865457E+02  0.00000000000E+00 0. -1.
<scales pt_clust_5="13000.00000" pt_clust_6="13000.00000" pt_clust_7="13000.00000" pt_clust_8="13000.00000" pt_clust_9="42.95316"></scales>
<clustering>
<clus scale="   42.953">  1  9  2 -1</clus>
<clus scale="   90.292">  7  8 -1 -1</clus>
<clus scale="   93.848">  5  6 -1 -1</clus>
<clus scale="  109.700">  2  7  1 -1</clus>
<clus scale="   42.953">  1  5  2 -1</clus>
</clustering>
</event>
<event>
 9    1  0.1321469E-005  0.9756526E+02  0.7546771E-02  0.1286007E+00
         21   -1    0    0  501  502  0.00000000000E+00  0.00000000000E+00  0.18131604939E+03  0.18131604939E+03  0.00000000000E+00 0. -1.
         -1   -1    0    0    0  501 -0.00000000000E+00 -0.00000000000E+00 -0.11510251594E+03  0.11510251594E+03  0.00000000000E+00 0.  1.
         23    2    1    2    0    0 -0.20189355149E+02 -0.18046657137E+02 -0.54971366974E+02  0.11094082049E+03  0.92480930842E+02 0.  0.
         23    2    1    2    0    0  0.48224551422E+02  0.95523612151E+01  0.66197196625E+02  0.12317386966E+03  0.91503433602E+02 0.  0.
        -11    1    3    3    0    0 -0.44763801605E+00  0.34567109596E+02 -0.35194956220E+01  0.34748702063E+02  0.00000000000E+00 0. -1.
         11    1    3    3    0    0 -0.19741717133E+02 -0.52613766732E+02 -0.51451871352E+02  0.76192118430E+02  0.00000000000E+00 0.  1.
        -13    1    4    4    0    0  0.75382354885E+02  0.40459100462E+01  0.54436894959E+02  0.93071178937E+02  0.00000000000E+00 0. -1.
         13    1    4    4    0    0 -0.27157803462E+02  0.55064511688E+01  0.11760301667E+02  0.30102690721E+02  0.00000000000E+00 0.  1.
         -1    1    1    2    0  502 -0.28035196273E+02  0.84942959216E+01  0.54987703801E+02  0.62303875181E+02  0.00000000000E+00 0.  1.
<scales pt_clust_5="13000.00000" pt_clust_6="13000.00000" pt_clust_7="13000.00000" pt_clust_8="13000.00000" pt_clust_9="29.29378"></scales>
<clustering>
<clus scale="   29.294">  1  9  2 -1</clus>
<clus scale="   91.503">  7  8 -1 -1</clus>
<clus scale="   92.481">  5  6 -1 -1</clus>
<clus scale="   96.639">  1  7  2 -1</clus>
<clus scale="   29.294">  1  5  2 -1</clus>
</clustering>
</event>
<event>
 9    1  0.1321469E-005  0.9734625E+02  0.7546771E-02  0.1287000E+00
         21   -1    0    0  501  502  0.00000000000E+00  0.00000000000E+00  0.30579035723E+03  0.30579035723E+03  0.00000000000E+00 0.  1.
         -1   -1    0    0    0  501 -0.00000000000E+00 -0.00000000000E+00 -0.19729516903E+03  0.19729516903E+03  0.00000000000E+00 0.  1.
         23    2    1    2    0    0 -0.37616498384E+01  0.34495439490E+02 -0.16488258484E+03  0.19194572125E+03  0.91939152521E+02 0.  0.
         23    2    1    2    0    0  0.31389638824E+02  0.29082394383E+01  0.13585200400E+03  0.16596515804E+03  0.89971658937E+02 0.  0.
        -13    1    4    4    0    0 -0.26713512298E+02 -0.14945864355E+02  0.69710694053E+02  0.76135218303E+02  0.00000000000E+00 0.  1.
         13    1    4    4    0    0  0.58103151122E+02  0.17854103793E+02  0.66141309946E+02  0.89829939742E+02  0.00000000000E+00 0. -1.
        -13    1    3    3    0    0  0.42843550297E+02  0.60037303926E+01 -0.81354152610E+02  0.92141807707E+02  0.00000000000E+00 0.  1.
         13    1    3    3    0    0 -0.46605200135E+02  0.28491709098E+02 -0.83528432232E+02  0.99803913541E+02  0.00000000000E+00 0. -1.
         -1    1    1    2    0  502 -0.27627988986E+02 -0.37403678928E+02  0.13752576904E+03  0.14517464697E+03  0.00000000000E+00 0.  1.
<scales pt_clust_5="13000.00000" pt_clust_6="13000.00000" pt_clust_7="13000.00000" pt_clust_8="13000.00000" pt_clust_9="46.50098"></scales>
<clustering>
<clus scale="   46.501">  1  9  2 -1</clus>
<clus scale="   89.972">  5  6 -1 -1</clus>
<clus scale="   91.939">  7  8 -1 -1</clus>
<clus scale="   95.490">  1  5  2 -1</clus>
<clus scale="   46.501">  1  5  2 -1</clus>
</clustering>
</event>
<event>
 9    1  0.1321469E-005  0.9940293E+02  0.7546771E-02  0.1283860E+00
         21   -1    0    0  501  502  0.00000000000E+00  0.00000000000E+00  0.27607837707E+03  0.27607837707E+03  0.00000000000E+00 0. -1.
          1   -1    0    0  502    0 -0.00000000000E+00 -0.00000000000E+00 -0.16827625659E+03  0.16827625659E+03  0.00000000000E+00 0. -1.
         23    2    1    2    0    0  0.18887657688E+02  0.16396942330E+02 -0.83290760761E+02  0.13102869104E+03  0.98007977822E+02 0.  0.
         23    2    1    2    0    0  0.35676109427E+02 -0.16966470919E+02 -0.12586873266E+02  0.10246349590E+03  0.93700014374E+02 0.  0.
        -11    1    4    4    0    0  0.25879845686E+02  0.21496222599E+02 -0.41452050806E+02  0.53386576166E+02  0.00000000000E+00 0. -1.
         11    1    4    4    0    0  0.97962637417E+01 -0.38462693517E+02  0.28865177540E+02  0.49076919732E+02  0.00000000000E+00 0.  1.
        -13    1    3    3    0    0  0.49349226452E+01  0.57343786929E+02 -0.52784044582E+02  0.78094934043E+02  0.00000000000E+00 0. -1.
         13    1    3    3    0    0  0.13952735043E+02 -0.40946844598E+02 -0.30506716180E+02  0.52933756997E+02  0.00000000000E+00 0.  1.
          1    1    1    2  501    0 -0.54563767116E+02  0.56952858848E+00  0.20367975450E+03  0.21086244672E+03  0.00000000000E+00 0. -1.
<scales pt_clust_5="13000.00000" pt_clust_6="13000.00000" pt_clust_7="13000.00000" pt_clust_8="13000.00000" pt_clust_9="54.56674"></scales>
<clustering>
<clus scale="   54.567">  1  9  2 -1</clus>
<clus scale="   93.700">  5  6 -1 -1</clus>
<clus scale="   95.158">  1  5  2 -1</clus>
<clus scale="   98.008">  7  8 -1 -1</clus>
<clus scale="   54.567">  1  5  2 -1</clus>
</clustering>
</event>
<event>
 9    1  0.1321469E-005  0.2086715E+03  0.7546771E-02  0.1142790E+00
          2   -1    0    0  502    0 -0.00000000000E+00  0.00000000000E+00  0.45379845830E+03  0.45379845830E+03  0.00000000000E+00 0. -1.
         21   -1    0    0  501  502  0.00000000000E+00 -0.00000000000E+00 -0.20433425322E+03  0.20433425322E+03  0.00000000000E+00 0.  1.
         23    2    1    2    0    0 -0.15724696056E+03 -0.79970198567E+02  0.27283399544E+03  0.33740543221E+03  0.91006578633E+02 0.  0.
         23    2    1    2    0    0  0.20226670961E+03  0.85872197214E+02  0.40884428696E+02  0.24204935318E+03  0.92900467142E+02 0.  0.
        -11    1    4    4    0    0  0.14976470953E+03  0.15223842584E+02  0.24521562141E+02  0.15252062357E+03  0.00000000000E+00 0.  1.
         11    1    4    4    0    0  0.52502000078E+02  0.70648354630E+02  0.16362866554E+02  0.89528729612E+02  0.00000000000E+00 0. -1.
        -13    1    3    3    0    0 -0.32934690447E+02 -0.29358003574E+02  0.14679988241E+03  0.15328663244E+03  0.00000000000E+00 0.  1.
         13    1    3    3    0    0 -0.12431227012E+03 -0.50612194993E+02  0.12603411303E+03  0.18411879977E+03  0.00000000000E+00 0. -1.
          2    1    1    2  501    0 -0.45019749048E+02 -0.59019986471E+01 -0.64254219062E+02  0.78677926127E+02  0.00000000000E+00 0. -1.
<scales pt_clust_5="13000.00000" pt_clust_6="13000.00000" pt_clust_7="13000.00000" pt_clust_8="13000.00000" pt_clust_9="45.40497"></scales>
<clustering>
<clus scale="   45.405">  2  9  1 -1</clus>
<clus scale="   91.007">  7  8 -1 -1</clus>
<clus scale="   92.900">  5  6 -1 -1</clus>
<clus scale="  207.835">  1  7  2 -1</clus>
<clus scale="   45.405">  2  5  1 -1</clus>
</clustering>
</event>
<event>
 9    1  0.1321469E-005  0.1548568E+03  0.7546771E-02  0.1194706E+00
         21   -1    0    0  501  502  0.00000000000E+00  0.00000000000E+00  0.22955386262E+03  0.22955386262E+03  0.00000000000E+00 0. -1.
          3   -1    0    0  502    0 -0.00000000000E+00 -0.00000000000E+00 -0.26007704674E+03  0.26007704674E+03  0.00000000000E+00 0. -1.
         23    2    1    2    0    0  0.28506425377E+02  0.14124434134E+03 -0.17628693862E+03  0.24538107228E+03  0.91499757686E+02 0.  0.
         23    2    1    2    0    0 -0.30336313564E+02 -0.65622945591E+02  0.63432037978E+02  0.13244440101E+03  0.91056207964E+02 0.  0.
        -11    1    3    3    0    0 -0.27223748579E+02  0.21416572520E+02 -0.17540875549E+02  0.38826336168E+02  0.00000000000E+00 0.  1.
         11    1    3    3    0    0  0.55730173956E+02  0.11982776882E+03 -0.15874606307E+03  0.20655473611E+03  0.00000000000E+00 0. -1.
        -13    1    4    4    0    0  0.18619387439E+02 -0.62246576752E+02  0.23204213811E+02  0.68990966398E+02  0.00000000000E+00 0. -1.
         13    1    4    4    0    0 -0.48955701003E+02 -0.33763688396E+01  0.40227824167E+02  0.63453434615E+02  0.00000000000E+00 0.  1.
          3    1    1    2  501    0  0.18298881871E+01 -0.75621395753E+02  0.82331716527E+02  0.11180543606E+03  0.00000000000E+00 0. -1.
<scales pt_clust_5="13000.00000" pt_clust_6="13000.00000" pt_clust_7="13000.00000" pt_clust_8="13000.00000" pt_clust_9="75.64353"></scales>
<clustering>
<clus scale="   75.644">  1  9  2 -1</clus>
<clus scale="   91.056">  7  8 -1 -1</clus>
<clus scale="   91.500">  5  6 -1 -1</clus>
<clus scale="  154.595">  1  7  2 -1</clus>
<clus scale="   75.644">  1  5  2 -1</clus>
</clustering>
</event>
<event>
 9    1  0.1321469E-005  0.1203484E+03  0.7546771E-02  0.1242946E+00
          2   -1    0    0  502    0 -0.00000000000E+00  0.00000000000E+00  0.20915790641E+03  0.20915790641E+03  0.00000000000E+00 0. -1.
         21   -1    0    0  501  502  0.00000000000E+00 -0.00000000000E+00 -0.12975871919E+03  0.12975871919E+03  0.00000000000E+00 0. -1.
         23    2    1    2    0    0 -0.73841922424E+02  0.57385777443E+01  0.44221848183E+02  0.12635182782E+03  0.92323625115E+02 0.  0.
         23    2    1    2    0    0  0.67945141781E+02 -0.69035228482E+02 -0.11950560145E+02  0.13343024845E+03  0.90985769491E+02 0.  0.
        -11    1    3    3    0    0 -0.74631031806E+02  0.39382288031E+02  0.27348371865E+02  0.88705630952E+02  0.00000000000E+00 0.  1.
         11    1    3    3    0    0  0.78910938149E+00 -0.33643710286E+02  0.16873476318E+02  0.37646196866E+02  0.00000000000E+00 0. -1.
        -11    1    4    4    0    0  0.20422578073E+02  0.14758800167E+02  0.19751455025E+02  0.32015993708E+02  0.00000000000E+00 0.  1.
         11    1    4    4    0    0  0.47522563707E+02 -0.83794028649E+02 -0.31702015170E+02  0.10141425474E+03  0.00000000000E+00 0. -1.
          2    1    1    2  501    0  0.58967806433E+01  0.63296650737E+02  0.47127899182E+02  0.79134549331E+02  0.00000000000E+00 0. -1.
<scales pt_clust_5="13000.00000" pt_clust_6="13000.00000" pt_clust_7="13000.00000" pt_clust_8="13000.00000" pt_clust_9="63.57076"></scales>
<clustering>
<clus scale="   63.571">  2  9  1 -1</clus>
<clus scale="   90.986">  7  8 -1 -1</clus>
<clus scale="   92.324">  5  6 -1 -1</clus>
<clus scale="  119.325">  2  7  1 -1</clus>
<clus scale="   63.571">  2  5  1 -1</clus>
</clustering>
</event>
<event>
 9    1  0.1321469E-005  0.1099810E+03  0.7546771E-02  0.1261469E+00
          1   -1    0    0  502    0 -0.00000000000E+00  0.00000000000E+00  0.25514836115E+03  0.25514836115E+03  0.00000000000E+00 0. -1.
         21   -1    0    0  501  502  0.00000000000E+00 -0.00000000000E+00 -0.18545691052E+03  0.18545691052E+03  0.00000000000E+00 0. -1.
         23    2    1    2    0    0  0.25560893856E+02  0.48200674862E+02  0.18726919427E+03  0.21639640587E+03  0.93706931433E+02 0.  0.
         23    2    1    2    0    0  0.10220142980E+02 -0.94752851965E+02 -0.78945129221E+02  0.15392468061E+03  0.91530976157E+02 0.  0.
        -11    1    3    3    0    0  0.27371153272E+02  0.75760152780E+02  0.13268831158E+03  0.15522554175E+03  0.00000000000E+00 0. -1.
         11    1    3    3    0    0 -0.18102594156E+01 -0.27559477917E+02  0.54580882690E+02  0.61170864122E+02  0.00000000000E+00 0.  1.
        -13    1    4    4    0    0  0.43233212622E+02 -0.74851130101E+02 -0.76280972497E+02  0.11528481737E+03  0.00000000000E+00 0. -1.
         13    1    4    4    0    0 -0.33013069643E+02 -0.19901721865E+02 -0.26641567234E+01  0.38639863243E+02  0.00000000000E+00 0.  1.
          1    1    1    2  501    0 -0.35781036836E+02  0.46552177103E+02 -0.38632614427E+02  0.70284185188E+02  0.00000000000E+00 0. -1.
<scales pt_clust_5="13000.00000" pt_clust_6="13000.00000" pt_clust_7="13000.00000" pt_clust_8="13000.00000" pt_clust_9="58.71446"></scales>
<clustering>
<clus scale="   58.714">  2  9  1 -1</clus>
<clus scale="   91.531">  7  8 -1 -1</clus>
<clus scale="   93.707">  5  6 -1 -1</clus>
<clus scale="  108.133">  2  7  1 -1</clus>
<clus scale="   58.714">  2  5  1 -1</clus>
</clustering>
</event>
<event>
 9    1  0.1321469E-005  0.1015963E+03  0.7546771E-02  0.1284490E+00
         -3   -1    0    0    0  501 -0.00000000000E+00  0.00000000000E+00  0.57945776836E+02  0.57945776836E+02  0.00000000000E+00 0.  1.
         21   -1    0    0  501  502  0.00000000000E+00 -0.00000000000E+00 -0.48050838038E+03  0.48050838038E+03  0.00000000000E+00 0.  1.
         23    2    1    2    0    0 -0.23706001973E+02  0.44835802784E+02 -0.13849284270E+02  0.10569666169E+03  0.91693826820E+02 0.  0.
         23    2    1    2    0    0  0.29382294577E+02 -0.11870409250E+02 -0.14514214265E+03  0.16707215040E+03  0.76437137673E+02 0.  0.
        -11    1    3    3    0    0  0.57178498904E+01  0.65376783629E+02  0.37407497102E+01  0.65732874983E+02  0.00000000000E+00 0.  1.
         11    1    3    3    0    0 -0.29423851863E+02 -0.20540980846E+02 -0.17590033981E+02  0.39963786708E+02  0.00000000000E+00 0. -1.
        -11    1    4    4    0    0  0.46046384492E+02  0.10150448367E+02 -0.53276251653E+02  0.71145345013E+02  0.00000000000E+00 0.  1.
         11    1    4    4    0    0 -0.16664089915E+02 -0.22020857617E+02 -0.91865890998E+02  0.95926805387E+02  0.00000000000E+00 0. -1.
         -3    1    1    2    0  502 -0.56762926041E+01 -0.32965393534E+02 -0.26357117663E+03  0.26568534513E+03  0.00000000000E+00 0.  1.
<scales pt_clust_5="13000.00000" pt_clust_6="13000.00000" pt_clust_7="13000.00000" pt_clust_8="13000.00000" pt_clust_9="33.45052"></scales>
<clustering>
<clus scale="   33.451">  2  9  1 -1</clus>
<clus scale="   76.437">  7  8 -1 -1</clus>
<clus scale="   88.072">  2  7  1 -1</clus>
<clus scale="   91.694">  5  6 -1 -1</clus>
<clus scale="   33.451">  2  5  1 -1</clus>
</clustering>
</event>
<event>
 9    1  0.1321469E-005  0.1520142E+03  0.7546771E-02  0.1201618E+00
         21   -1    0    0  501  502  0.00000000000E+00  0.00000000000E+00  0.56857967305E+02  0.56857967305E+02  0.00000000000E+00 0.  1.
          2   -1    0    0  502    0 -0.00000000000E+00 -0.00000000000E+00 -0.45861119837E+03  0.45861119837E+03  0.00000000000E+00 0. -1.
         23    2    1    2    0    0  0.46243622594E+02 -0.90807906973E+02 -0.20451405319E+03  0.25210556466E+03  0.10652074532E+03 0.  0.
         23    2    1    2    0    0 -0.33997935722E+02  0.11121465580E+03 -0.18639110094E+03  0.23720881143E+03  0.89452883775E+02 0.  0.
        -13    1    4    4    0    0 -0.47145395402E+02  0.84705812839E+02 -0.76752888763E+02  0.12364776169E+03  0.00000000000E+00 0.  1.
         13    1    4    4    0    0  0.13147459680E+02  0.26508842956E+02 -0.10963821218E+03  0.11356104975E+03  0.00000000000E+00 0. -1.
        -13    1    3    3    0    0  0.52598502963E+02 -0.11240564001E+03 -0.16285039425E+03  0.20474833656E+03  0.00000000000E+00 0. -1.
         13    1    3    3    0    0 -0.63548803697E+01  0.21597733036E+02 -0.41663658941E+02  0.47357228099E+02  0.00000000000E+00 0.  1.
          2    1    1    2  501    0 -0.12245686872E+02 -0.20406748823E+02 -0.10848076935E+02  0.26154789574E+02  0.00000000000E+00 0. -1.
<scales pt_clust_5="13000.00000" pt_clust_6="13000.00000" pt_clust_7="13000.00000" pt_clust_8="13000.00000" pt_clust_9="23.79900"></scales>
<clustering>
<clus scale="   23.799">  1  9  2 -1</clus>
<clus scale="   89.453">  5  6 -1 -1</clus>
<clus scale="  106.521">  7  8 -1 -1</clus>
<clus scale="  140.583">  1  5  2 -1</clus>
<clus scale="   23.799">  1  5  2 -1</clus>
</clustering>
</event>
<event>
 9    1  0.1321469E-005  0.1683739E+03  0.7546771E-02  0.1197593E+00
          1   -1    0    0  502    0 -0.00000000000E+00  0.00000000000E+00  0.55871635230E+03  0.55871635230E+03  0.00000000000E+00 0. -1.
         21   -1    0    0  501  502  0.00000000000E+00 -0.00000000000E+00 -0.11155664855E+03  0.11155664855E+03  0.00000000000E+00 0.  1.
         23    2    1    2    0    0  0.38893188498E+02 -0.53674742754E+02  0.82613447246E+01  0.11321651683E+03  0.91411551490E+02 0.  0.
         23    2    1    2    0    0  0.66546068634E+02  0.14370262855E+03  0.34202233369E+03  0.38791919821E+03  0.91778008783E+02 0.  0.
        -11    1    4    4    0    0 -0.53576286812E+01  0.42187626357E+02  0.30087664762E+02  0.52093834314E+02  0.00000000000E+00 0. -1.
         11    1    4    4    0    0  0.71903697315E+02  0.10151500219E+03  0.31193466893E+03  0.33582536390E+03  0.00000000000E+00 0.  1.
        -13    1    3    3    0    0  0.60686855716E+02 -0.40805141615E+02  0.30775976357E+02  0.79341759242E+02  0.00000000000E+00 0. -1.
         13    1    3    3    0    0 -0.21793667218E+02 -0.12869601139E+02 -0.22514631632E+02  0.33874757591E+02  0.00000000000E+00 0.  1.
          1    1    1    2  501    0 -0.10543925713E+03 -0.90027885791E+02  0.96876025340E+02  0.16913728581E+03  0.00000000000E+00 0. -1.
<scales pt_clust_5="13000.00000" pt_clust_6="13000.00000" pt_clust_7="13000.00000" pt_clust_8="13000.00000" pt_clust_9="141.16153"></scales>
<clustering>
<clus scale="   91.412">  7  8 -1 -1</clus>
<clus scale="   91.778">  5  6 -1 -1</clus>
<clus scale="  112.915">  1  7  2 -1</clus>
<clus scale="  141.162">  2  9  1 -1</clus>
<clus scale="  141.162">  2  5  1 -1</clus>
</clustering>
</event>
<event>
 9    1  0.1321469E-005  0.9206839E+02  0.7546771E-02  0.1298003E+00
          1   -1    0    0  502    0 -0.00000000000E+00  0.00000000000E+00  0.45821388544E+03  0.45821388544E+03  0.00000000000E+00 0. -1.
         21   -1    0    0  501  502  0.00000000000E+00 -0.00000000000E+00 -0.59680259307E+02  0.59680259307E+02  0.00000000000E+00 0. -1.
         23    2    1    2    0    0  0.11479111788E+02 -0.61004934619E+01  0.37070550519E+03  0.38182097110E+03  0.90530085418E+02 0.  0.
         23    2    1    2    0    0 -0.22461973112E+02  0.24752684337E+02  0.46722034272E+02  0.10734152859E+03  0.90675353073E+02 0.  0.
        -11    1    4    4    0    0  0.22052186495E+02  0.28915594532E+02  0.50770276401E+02  0.62450232203E+02  0.00000000000E+00 0. -1.
         11    1    4    4    0    0 -0.44514159607E+02 -0.41629101945E+01 -0.40482421288E+01  0.44891296385E+02  0.00000000000E+00 0.  1.
        -13    1    3    3    0    0 -0.72461993573E+01  0.38604835775E+02  0.11392636720E+03  0.12050750140E+03  0.00000000000E+00 0. -1.
         13    1    3    3    0    0  0.18725311145E+02 -0.44705329237E+02  0.25677913799E+03  0.26131346970E+03  0.00000000000E+00 0.  1.
          1    1    1    2  501    0  0.10982861324E+02 -0.18652190876E+02 -0.18893913324E+02  0.28731645063E+02  0.00000000000E+00 0. -1.
<scales pt_clust_5="13000.00000" pt_clust_6="13000.00000" pt_clust_7="13000.00000" pt_clust_8="13000.00000" pt_clust_9="21.64550"></scales>
<clustering>
<clus scale="   21.645">  2  9  1 -1</clus>
<clus scale="   90.530">  7  8 -1 -1</clus>
<clus scale="   90.675">  5  6 -1 -1</clus>
<clus scale="   91.925">  1  7  2 -1</clus>
<clus scale="   21.645">  2  5  1 -1</clus>
</clustering>
</event>
<event>
 9    1  0.1321469E-005  0.1617977E+03  0.7546771E-02  0.1186787E+00
         21   -1    0    0  501  502  0.00000000000E+00  0.00000000000E+00  0.62493679938E+02  0.62493679938E+02  0.00000000000E+00 0.  1.
         -2   -1    0    0    0  501 -0.00000000000E+00 -0.00000000000E+00 -0.63470442958E+03  0.63470442958E+03  0.00000000000E+00 0.  1.
         23    2    1    2    0    0 -0.11503833185E+03  0.82394959843E+02 -0.34322703797E+03  0.38230175141E+03  0.91252848353E+02 0.  0.
         23    2    1    2    0    0  0.69206961560E+02 -0.10053787280E+03 -0.11667639163E+03  0.19224802373E+03  0.91915476762E+02 0.  0.
        -11    1    3    3    0    0 -0.95187215862E+02  0.35705406121E+02 -0.29606099153E+03  0.31302969954E+03  0.00000000000E+00 0.  1.
         11    1    3    3    0    0 -0.19851115984E+02  0.46689553722E+02 -0.47166046441E+02  0.69272051864E+02  0.00000000000E+00 0. -1.
        -13    1    4    4    0    0  0.27660691257E+02 -0.65230968381E+01  0.90758261685E+01  0.29833458630E+02  0.00000000000E+00 0. -1.
         13    1    4    4    0    0  0.41546270303E+02 -0.94014775959E+02 -0.12575221780E+03  0.16241456510E+03  0.00000000000E+00 0.  1.
         -2    1    1    2    0  502  0.45831370286E+02  0.18142912954E+02 -0.11230732004E+03  0.12264833438E+03  0.00000000000E+00 0.  1.
<scales pt_clust_5="13000.00000" pt_clust_6="13000.00000" pt_clust_7="13000.00000" pt_clust_8="13000.00000" pt_clust_9="49.29181"></scales>
<clustering>
<clus scale="   49.292">  1  9  2 -1</clus>
<clus scale="   91.253">  5  6 -1 -1</clus>
<clus scale="   91.915">  7  8 -1 -1</clus>
<clus scale="  161.422">  2  5  1 -1</clus>
<clus scale="   49.292">  1  5  2 -1</clus>
</clustering>
</event>
<event>
 9    1  0.1321469E-005  0.1362194E+03  0.7546771E-02  0.1237579E+00
         21   -1    0    0  501  502  0.00000000000E+00  0.00000000000E+00  0.89170755540E+02  0.89170755540E+02  0.00000000000E+00 0. -1.
          1   -1    0    0  502    0 -0.00000000000E+00 -0.00000000000E+00 -0.43591660994E+03  0.43591660994E+03  0.00000000000E+00 0. -1.
         23    2    1    2    0    0 -0.50025666201E+01  0.31130477749E+02 -0.15030972380E+02  0.92983066973E+02  0.86173013730E+02 0.  0.
         23    2    1    2    0    0 -0.20097408765E+02 -0.12358482896E+03 -0.28771925563E+03  0.32668403972E+03  0.90900912843E+02 0.  0.
        -13    1    3    3    0    0 -0.40993769346E+02  0.34052595981E+02  0.14004613636E+01  0.53310690394E+02  0.00000000000E+00 0.  1.
         13    1    3    3    0    0  0.35991202726E+02 -0.29221182321E+01 -0.16431433744E+02  0.39672376580E+02  0.00000000000E+00 0. -1.
        -13    1    4    4    0    0 -0.47424639661E+02 -0.85926206619E+02 -0.13413580967E+03  0.16620717453E+03  0.00000000000E+00 0. -1.
         13    1    4    4    0    0  0.27327230895E+02 -0.37658622342E+02 -0.15358344596E+03  0.16047686518E+03  0.00000000000E+00 0.  1.
          1    1    1    2  501    0  0.25099975385E+02  0.92454351213E+02 -0.43995626392E+02  0.10542025879E+03  0.00000000000E+00 0. -1.
<scales pt_clust_5="13000.00000" pt_clust_6="13000.00000" pt_clust_7="13000.00000" pt_clust_8="13000.00000" pt_clust_9="101.45324"></scales>
<clustering>
<clus scale="   86.173">  5  6 -1 -1</clus>
<clus scale="   90.901">  7  8 -1 -1</clus>
<clus scale="   91.760">  2  5  1 -1</clus>
<clus scale="  101.453">  1  9  2 -1</clus>
<clus scale="  101.453">  1  5  2 -1</clus>
</clustering>
</event>
<event>
 9    1  0.1321469E-005  0.9694205E+02  0.7546771E-02  0.1288060E+00
         21   -1    0    0  501  502  0.00000000000E+00  0.00000000000E+00  0.11593549979E+03  0.11593549979E+03  0.00000000000E+00 0. -1.
          2   -1    0    0  502    0 -0.00000000000E+00 -0.00000000000E+00 -0.42706395208E+03  0.42706395208E+03  0.00000000000E+00 0. -1.
         23    2    1    2    0    0  0.27185698314E+02 -0.24344380567E+02 -0.35418614262E+03  0.36723100083E+03  0.89883665321E+02 0.  0.
         23    2    1    2    0    0  0.46621202508E+00 -0.37890637501E+02  0.10235146609E+02  0.10016987304E+03  0.92159250623E+02 0.  0.
        -13    1    3    3    0    0  0.17267056041E+01  0.32147694706E+02 -0.82286646984E+02  0.88360330800E+02  0.00000000000E+00 0.  1.
         13    1    3    3    0    0  0.25458992710E+02 -0.56492075272E+02 -0.27189949563E+03  0.27887067003E+03  0.00000000000E+00 0. -1.
        -13    1    4    4    0    0 -0.13951126121E+02 -0.65626935699E+02 -0.56899516250E+00  0.67095844616E+02  0.00000000000E+00 0. -1.
         13    1    4    4    0    0  0.14417338146E+02  0.27736298198E+02  0.10804141772E+02  0.33074028427E+02  0.00000000000E+00 0.  1.
          2    1    1    2  501    0 -0.27651910339E+02  0.62235018068E+02  0.32822543716E+02  0.75598577998E+02  0.00000000000E+00 0. -1.
<scales pt_clust_5="13000.00000" pt_clust_6="13000.00000" pt_clust_7="13000.00000" pt_clust_8="13000.00000" pt_clust_9="68.10158"></scales>
<clustering>
<clus scale="   68.102">  1  9  2 -1</clus>
<clus scale="   89.884">  5  6 -1 -1</clus>
<clus scale="   92.159">  7  8 -1 -1</clus>
<clus scale="   94.781">  2  5  1 -1</clus>
<clus scale="   68.102">  1  5  2 -1</clus>
</clustering>
</event>
<event>
 9    1  0.1321469E-005  0.1031372E+03  0.7546771E-02  0.1275177E+00
          1   -1    0    0  502    0 -0.00000000000E+00  0.00000000000E+00  0.21473748477E+03  0.21473748477E+03  0.00000000000E+00 0. -1.
         21   -1    0    0  501  502  0.00000000000E+00 -0.00000000000E+00 -0.14396659085E+03  0.14396659085E+03  0.00000000000E+00 0. -1.
         23    2    1    2    0    0 -0.45046044561E+02  0.19245785125E+02  0.15984149197E+03  0.18959106756E+03  0.89419930487E+02 0.  0.
         23    2    1    2    0    0  0.37363328352E+02  0.99567736570E+01 -0.32995688527E+02  0.10542463357E+03  0.92360609867E+02 0.  0.
        -13    1    4    4    0    0 -0.28346310425E+02 -0.59741720028E+01 -0.23182435515E+02  0.37102956247E+02  0.00000000000E+00 0.  1.
         13    1    4    4    0    0  0.65709638777E+02  0.15930945660E+02 -0.98132530114E+01  0.68321677325E+02  0.00000000000E+00 0. -1.
        -13    1    3    3    0    0 -0.45632371782E+02 -0.49010283196E+01  0.15892567598E+03  0.16541978091E+03  0.00000000000E+00 0. -1.
         13    1    3    3    0    0  0.58632722054E+00  0.24146813444E+02  0.91581598964E+00  0.24171286644E+02  0.00000000000E+00 0.  1.
          1    1    1    2  501    0  0.76827162092E+01 -0.29202558782E+02 -0.56074909520E+02  0.63688374491E+02  0.00000000000E+00 0. -1.
<scales pt_clust_5="13000.00000" pt_clust_6="13000.00000" pt_clust_7="13000.00000" pt_clust_8="13000.00000" pt_clust_9="30.19625"></scales>
<clustering>
<clus scale="   30.196">  2  9  1 -1</clus>
<clus scale="   89.420">  7  8 -1 -1</clus>
<clus scale="   92.361">  5  6 -1 -1</clus>
<clus scale="  100.512">  1  7  2 -1</clus>
<clus scale="   30.196">  2  5  1 -1</clus>
</clustering>
</event>
<event>
 9    1  0.1321469E-005  0.1241133E+03  0.7546771E-02  0.1236782E+00
         21   -1    0    0  501  502  0.00000000000E+00  0.00000000000E+00  0.51556194615E+02  0.51556194615E+02  0.00000000000E+00 0.  1.
         -4   -1    0    0    0  501 -0.00000000000E+00 -0.00000000000E+00 -0.51499412348E+03  0.51499412348E+03  0.00000000000E+00 0.  1.
         23    2    1    2    0    0  0.40376680598E+02  0.84243462905E+02 -0.31695729183E+03  0.34253351596E+03  0.90222210879E+02 0.  0.
         23    2    1    2    0    0 -0.61097493775E+02 -0.41927876787E+02 -0.12683231204E+03  0.17296763366E+03  0.91326427274E+02 0.  0.
        -11    1    4    4    0    0 -0.76520897471E+02 -0.10209543548E+02 -0.10866044072E+03  0.13329206243E+03  0.00000000000E+00 0.  1.
         11    1    4    4    0    0  0.15423403697E+02 -0.31718333239E+02 -0.18171871317E+02  0.39675571227E+02  0.00000000000E+00 0. -1.
        -13    1    3    3    0    0 -0.26437877644E+02  0.20567622937E+02 -0.51002189747E+02  0.61018127196E+02  0.00000000000E+00 0. -1.
         13    1    3    3    0    0  0.66814558242E+02  0.63675839968E+02 -0.26595510208E+03  0.28151538876E+03  0.00000000000E+00 0.  1.
         -4    1    1    2    0  502  0.20720813177E+02 -0.42315586118E+02 -0.19648325005E+02  0.51049168482E+02  0.00000000000E+00 0.  1.
<scales pt_clust_5="13000.00000" pt_clust_6="13000.00000" pt_clust_7="13000.00000" pt_clust_8="13000.00000" pt_clust_9="47.11646"></scales>
<clustering>
<clus scale="   47.116">  1  9  2 -1</clus>
<clus scale="   90.222">  7  8 -1 -1</clus>
<clus scale="   91.326">  5  6 -1 -1</clus>
<clus scale="  123.303">  2  7  1 -1</clus>
<clus scale="   47.116">  1  5  2 -1</clus>
</clustering>
</event>
<event>
 9    1  0.1321469E-005  0.1002725E+03  0.7546771E-02  0.1281329E+00
         21   -1    0    0  501  502  0.00000000000E+00  0.00000000000E+00  0.72160698503E+03  0.72160698503E+03  0.00000000000E+00 0. -1.
          1   -1    0    0  502    0 -0.00000000000E+00 -0.00000000000E+00 -0.13099218166E+03  0.13099218166E+03  0.00000000000E+00 0. -1.
         23    2    1    2    0    0 -0.27154216362E+02  0.17079659514E+02 -0.53285555413E+02  0.11310401312E+03  0.94467460709E+02 0.  0.
         23    2    1    2    0    0  0.50227777672E+02  0.61172121778E+02  0.35871022904E+02  0.12601703351E+03  0.91261735232E+02 0.  0.
        -11    1    3    3    0    0 -0.24131670306E+02  0.54099364302E+02 -0.18099129186E+02  0.61940755621E+02  0.00000000000E+00 0. -1.
         11    1    3    3    0    0 -0.30225460556E+01 -0.37019704788E+02 -0.35186426227E+02  0.51163257499E+02  0.00000000000E+00 0.  1.
        -11    1    4    4    0    0  0.59867020117E+00  0.68660976374E+02  0.31774608802E+02  0.75659195390E+02  0.00000000000E+00 0. -1.
         11    1    4    4    0    0  0.49629107471E+02 -0.74888545956E+01  0.40964141020E+01  0.50357838119E+02  0.00000000000E+00 0.  1.
          1    1    1    2  501    0 -0.23073561311E+02 -0.78251781292E+02  0.60802933588E+03  0.61347812006E+03  0.00000000000E+00 0. -1.
<scales pt_clust_5="13000.00000" pt_clust_6="13000.00000" pt_clust_7="13000.00000" pt_clust_8="13000.00000" pt_clust_9="81.58266"></scales>
<clustering>
<clus scale="   81.583">  1  9  2 -1</clus>
<clus scale="   91.262">  7  8 -1 -1</clus>
<clus scale="   94.467">  5  6 -1 -1</clus>
<clus scale="   97.258">  1  7  2 -1</clus>
<clus scale="   81.583">  1  5  2 -1</clus>
</clustering>
</event>
<event>
 9    1  0.1321469E-005  0.1627135E+03  0.7546771E-02  0.1186139E+00
          2   -1    0    0  502    0 -0.00000000000E+00  0.00000000000E+00  0.66536243258E+03  0.66536243258E+03  0.00000000000E+00 0. -1.
         21   -1    0    0  501  502  0.00000000000E+00 -0.00000000000E+00 -0.11923558582E+03  0.11923558582E+03  0.00000000000E+00 0. -1.
         23    2    1    2    0    0  0.13379088649E+03  0.32929069996E+02  0.47373223579E+03  0.50137580789E+03  0.89281266508E+02 0.  0.
         23    2    1    2    0    0 -0.82534221856E+02 -0.11845314704E+03  0.26267464132E+02  0.17336172126E+03  0.92310676012E+02 0.  0.
        -13    1    4    4    0    0 -0.19148652971E+01 -0.61966811230E+02 -0.19239709464E+02  0.64913163714E+02  0.00000000000E+00 0.  1.
         13    1    4    4    0    0 -0.80619356559E+02 -0.56486335805E+02  0.45507173596E+02  0.10844855754E+03  0.00000000000E+00 0. -1.
        -13    1    3    3    0    0  0.20226404258E+02  0.59864418848E+01  0.10304381257E+02  0.23476055647E+02  0.00000000000E+00 0.  1.
         13    1    3    3    0    0  0.11356448223E+03  0.26942628111E+02  0.46342785453E+03  0.47789975224E+03  0.00000000000E+00 0. -1.
          2    1    1    2  501    0 -0.51256664636E+02  0.85524077040E+02  0.46127146837E+02  0.10986048925E+03  0.00000000000E+00 0. -1.
<scales pt_clust_5="13000.00000" pt_clust_6="13000.00000" pt_clust_7="13000.00000" pt_clust_8="13000.00000" pt_clust_9="99.70764"></scales>
<clustering>
<clus scale="   89.281">  7  8 -1 -1</clus>
<clus scale="   92.311">  5  6 -1 -1</clus>
<clus scale="   99.708">  2  9  1 -1</clus>
<clus scale="  161.014">  1  7  2 -1</clus>
<clus scale="   99.708">  2  5  1 -1</clus>
</clustering>
</event>
<event>
 9    1  0.1321469E-005  0.1032318E+03  0.7546771E-02  0.1274084E+00
         21   -1    0    0  501  502  0.00000000000E+00  0.00000000000E+00  0.74716940129E+02  0.74716940129E+02  0.00000000000E+00 0. -1.
          3   -1    0    0  502    0 -0.00000000000E+00 -0.00000000000E+00 -0.51852048245E+03  0.51852048245E+03  0.00000000000E+00 0. -1.
         23    2    1    2    0    0 -0.17963452449E+01 -0.27635726306E+02 -0.26280915599E+03  0.27952011868E+03  0.91081743787E+02 0.  0.
         23    2    1    2    0    0 -0.55191246206E+01  0.10920674338E+03 -0.18343837085E+03  0.23178245181E+03  0.90093815165E+02 0.  0.
        -11    1    3    3    0    0 -0.46353086102E+02 -0.17147109001E+02 -0.13568862379E+03  0.14440926066E+03  0.00000000000E+00 0.  1.
         11    1    3    3    0    0  0.44556740857E+02 -0.10488617305E+02 -0.12712053220E+03  0.13511085803E+03  0.00000000000E+00 0. -1.
        -13    1    4    4    0    0 -0.39091902039E+02  0.97962595230E+02 -0.14751707107E+03  0.18134534217E+03  0.00000000000E+00 0. -1.
         13    1    4    4    0    0  0.33572777418E+02  0.11244148152E+02 -0.35921299777E+02  0.50437109641E+02  0.00000000000E+00 0.  1.
          3    1    1    2  501    0  0.73154698655E+01 -0.81571017076E+02  0.24439845167E+01  0.81934852087E+02  0.00000000000E+00 0. -1.
<scales pt_clust_5="13000.00000" pt_clust_6="13000.00000" pt_clust_7="13000.00000" pt_clust_8="13000.00000" pt_clust_9="81.89839"></scales>
<clustering>
<clus scale="   81.898">  1  9  2 -1</clus>
<clus scale="   90.094">  7  8 -1 -1</clus>
<clus scale="   91.082">  5  6 -1 -1</clus>
<clus scale="  102.361">  1  7  2 -1</clus>
<clus scale="   81.898">  1  5  2 -1</clus>
</clustering>
</event>
<event>
 9    1  0.1321469E-005  0.1443735E+03  0.7546771E-02  0.1207975E+00
          2   -1    0    0  502    0 -0.00000000000E+00  0.00000000000E+00  0.53638646961E+03  0.53638646961E+03  0.00000000000E+00 0. -1.
         21   -1    0    0  501  502  0.00000000000E+00 -0.00000000000E+00 -0.69795377049E+02  0.69795377049E+02  0.00000000000E+00 0.  1.
         23    2    1    2    0    0  0.88154783695E+02  0.55258566160E+02  0.33812228726E+03  0.36467214016E+03  0.88511658243E+02 0.  0.
         23    2    1    2    0    0 -0.11705069155E+03 -0.77505794326E+02  0.11414917845E+03  0.20233108522E+03  0.90552860578E+02 0.  0.
        -11    1    3    3    0    0  0.56027985874E+02 -0.14739410165E+02  0.11778670331E+03  0.13126344842E+03  0.00000000000E+00 0.  1.
         11    1    3    3    0    0  0.32126797820E+02  0.69997976325E+02  0.22033558395E+03  0.23340869174E+03  0.00000000000E+00 0. -1.
        -11    1    4    4    0    0 -0.10907203506E+03 -0.24595833808E+02  0.90423749573E+02  0.14379888163E+03  0.00000000000E+00 0. -1.
         11    1    4    4    0    0 -0.79786564977E+01 -0.52909960518E+02  0.23725428875E+02  0.58532203587E+02  0.00000000000E+00 0.  1.
          2    1    1    2  501    0  0.28895907860E+02  0.22247228167E+02  0.14319626855E+02  0.39178621280E+02  0.00000000000E+00 0. -1.
<scales pt_clust_5="13000.00000" pt_clust_6="13000.00000" pt_clust_7="13000.00000" pt_clust_8="13000.00000" pt_clust_9="36.46797"></scales>
<clustering>
<clus scale="   36.468">  2  9  1 -1</clus>
<clus scale="   88.512">  5  6 -1 -1</clus>
<clus scale="   90.553">  7  8 -1 -1</clus>
<clus scale="  143.102">  1  5  2 -1</clus>
<clus scale="   36.468">  2  5  1 -1</clus>
</clustering>
</event>
<event>
 9    1  0.1321469E-005  0.1307982E+03  0.7546771E-02  0.1230025E+00
          2   -1    0    0  502    0 -0.00000000000E+00  0.00000000000E+00  0.66026135783E+03  0.66026135783E+03  0.00000000000E+00 0. -1.
         21   -1    0    0  501  502  0.00000000000E+00 -0.00000000000E+00 -0.34069346752E+02  0.34069346752E+02  0.00000000000E+00 0.  1.
         23    2    1    2    0    0  0.11131347958E+02  0.71206612151E+02  0.29348131915E+03  0.31953947899E+03  0.10382632336E+03 0.  0.
         23    2    1    2    0    0 -0.49235099904E+02 -0.76492375084E+02  0.28992067270E+03  0.31725149195E+03  0.91210384149E+02 0.  0.
        -11    1    3    3    0    0 -0.40996005733E+02  0.19833882549E+02  0.17003668514E+03  0.17602991131E+03  0.00000000000E+00 0.  1.
         11    1    3    3    0    0  0.52127353691E+02  0.51372729602E+02  0.12344463401E+03  0.14350956768E+03  0.00000000000E+00 0. -1.
        -13    1    4    4    0    0 -0.21394997432E+02 -0.83393415689E+02  0.26699479804E+03  0.28053240432E+03  0.00000000000E+00 0. -1.
         13    1    4    4    0    0 -0.27840102472E+02  0.69010406056E+01  0.22925874660E+02  0.36719087625E+02  0.00000000000E+00 0.  1.
          2    1    1    2  501    0  0.38103751946E+02  0.52857629327E+01  0.42790019229E+02  0.57539733644E+02  0.00000000000E+00 0. -1.
<scales pt_clust_5="13000.00000" pt_clust_6="13000.00000" pt_clust_7="13000.00000" pt_clust_8="13000.00000" pt_clust_9="38.46863"></scales>
<clustering>
<clus scale="   38.469">  2  9  1 -1</clus>
<clus scale="   91.210">  7  8 -1 -1</clus>
<clus scale="  103.826">  5  6 -1 -1</clus>
<clus scale="  121.027">  2  7  1 -1</clus>
<clus scale="   38.469">  2  5  1 -1</clus>
</clustering>
</event>
<event>
 9    1  0.2507547E-005  0.9902103E+02  0.7546771E-02  0.1285847E+00
         21   -1    0    0  501  502  0.00000000000E+00  0.00000000000E+00  0.26243021056E+03  0.26243021056E+03  0.00000000000E+00 0. -1.
          1   -1    0    0  502    0 -0.00000000000E+00 -0.00000000000E+00 -0.39415844295E+03  0.39415844295E+03  0.00000000000E+00 0. -1.
         23    2    1    2    0    0 -0.44080085939E+02 -0.97466610249E+01 -0.22982056747E+03  0.24920082447E+03  0.85120539866E+02 0.  0.
         23    2    1    2    0    0  0.70931050926E+01  0.39280396887E+02 -0.13578206275E+03  0.16877200335E+03  0.91945412235E+02 0.  0.
        -13    1    4    4    0    0  0.23981053310E+02 -0.24482639200E+02 -0.47088787423E+02  0.58239543620E+02  0.00000000000E+00 0.  1.
         13    1    4    4    0    0 -0.16887948217E+02  0.63763036087E+02 -0.88693275329E+02  0.11053245973E+03  0.00000000000E+00 0. -1.
        -13    1    3    3    0    0  0.18810541555E+02 -0.11504752510E+02 -0.18721236748E+02  0.28925430149E+02  0.00000000000E+00 0.  1.
         13    1    3    3    0    0 -0.62890627495E+02  0.17580914851E+01 -0.21109933072E+03  0.22027539432E+03  0.00000000000E+00 0. -1.
          1    1    1    2  501    0  0.36986980847E+02 -0.29533735862E+02  0.23387439784E+03  0.23861582569E+03  0.00000000000E+00 0. -1.
<scales pt_clust_5="13000.00000" pt_clust_6="13000.00000" pt_clust_7="13000.00000" pt_clust_8="13000.00000" pt_clust_9="47.33158"></scales>
<clustering>
<clus scale="   47.332">  1  9  2 -1</clus>
<clus scale="   85.121">  7  8 -1 -1</clus>
<clus scale="   91.945">  5  6 -1 -1</clus>
<clus scale="   92.718">  2  7  1 -1</clus>
<clus scale="   47.332">  1  5  2 -1</clus>
</clustering>
</event>
<event>
 9    1  0.1321469E-005  0.1087611E+03  0.7546771E-02  0.1263313E+00
          2   -1    0    0  502    0 -0.00000000000E+00  0.00000000000E+00  0.52983533148E+03  0.52983533148E+03  0.00000000000E+00 0. -1.
         21   -1    0    0  501  502  0.00000000000E+00 -0.00000000000E+00 -0.37661674170E+02  0.37661674170E+02  0.00000000000E+00 0.  1.
         23    2    1    2    0    0 -0.16009418867E+02 -0.52527253187E+02  0.34546545047E+03  0.36111893413E+03  0.89694444091E+02 0.  0.
         23    2    1    2    0    0  0.38284522248E+02  0.66481414143E+02  0.12058033420E+03  0.16931643951E+03  0.90790729821E+02 0.  0.
        -11    1    4    4    0    0  0.36177939308E+02  0.70352812863E+01  0.23074730034E+01  0.36927806691E+02  0.00000000000E+00 0.  1.
         11    1    4    4    0    0  0.21065829401E+01  0.59446132856E+02  0.11827286119E+03  0.13238863281E+03  0.00000000000E+00 0. -1.
        -13    1    3    3    0    0  0.42930936630E+01 -0.74709278144E+02  0.23445347089E+03  0.24610635284E+03  0.00000000000E+00 0. -1.
         13    1    3    3    0    0 -0.20302512530E+02  0.22182024957E+02  0.11101197958E+03  0.11501258129E+03  0.00000000000E+00 0.  1.
          2    1    1    2  501    0 -0.22275103382E+02 -0.13954160955E+02  0.26127872645E+02  0.37061632015E+02  0.00000000000E+00 0. -1.
<scales pt_clust_5="13000.00000" pt_clust_6="13000.00000" pt_clust_7="13000.00000" pt_clust_8="13000.00000" pt_clust_9="26.28495"></scales>
<clustering>
<clus scale="   26.285">  2  9  1 -1</clus>
<clus scale="   89.694">  7  8 -1 -1</clus>
<clus scale="   90.791">  5  6 -1 -1</clus>
<clus scale="  107.848">  1  7  2 -1</clus>
<clus scale="   26.285">  2  5  1 -1</clus>
</clustering>
</event>
<event>
 9    1  0.1321469E-005  0.1030184E+03  0.7546771E-02  0.1275474E+00
         21   -1    0    0  501  502  0.00000000000E+00  0.00000000000E+00  0.29506720472E+02  0.29506720472E+02  0.00000000000E+00 0.  1.
          1   -1    0    0  502    0 -0.00000000000E+00 -0.00000000000E+00 -0.74240738090E+03  0.74240738090E+03  0.00000000000E+00 0. -1.
         23    2    1    2    0    0  0.51867827016E+02  0.84851956748E+01 -0.43094873975E+03  0.44406652101E+03  0.93359459973E+02 0.  0.
         23    2    1    2    0    0 -0.27274778437E+02 -0.23158673535E+02 -0.28297435015E+03  0.29919144047E+03  0.90337132507E+02 0.  0.
        -13    1    3    3    0    0 -0.24876610914E+02  0.16575778737E+02 -0.11306591985E+03  0.11695086337E+03  0.00000000000E+00 0.  1.
         13    1    3    3    0    0  0.76744437930E+02 -0.80905830619E+01 -0.31788281990E+03  0.32711565765E+03  0.00000000000E+00 0. -1.
        -13    1    4    4    0    0 -0.46697386078E+02 -0.44260697445E+02 -0.23140986285E+03  0.24018780117E+03  0.00000000000E+00 0.  1.
         13    1    4    4    0    0  0.19422607641E+02  0.21102023911E+02 -0.51564487304E+02  0.59003639309E+02  0.00000000000E+00 0. -1.
          1    1    1    2  501    0 -0.24593048579E+02  0.14673477860E+02  0.10224294783E+01  0.28656139882E+02  0.00000000000E+00 0. -1.
<scales pt_clust_5="13000.00000" pt_clust_6="13000.00000" pt_clust_7="13000.00000" pt_clust_8="13000.00000" pt_clust_9="28.63789"></scales>
<clustering>
<clus scale="   28.638">  1  9  2 -1</clus>
<clus scale="   90.337">  7  8 -1 -1</clus>
<clus scale="   93.359">  5  6 -1 -1</clus>
<clus scale="  100.288">  1  7  2 -1</clus>
<clus scale="   28.638">  1  5  2 -1</clus>
</clustering>
</event>
<event>
 9    1  0.1321469E-005  0.1136326E+03  0.7546771E-02  0.1254292E+00
         -3   -1    0    0    0  501 -0.00000000000E+00  0.00000000000E+00  0.39066305364E+03  0.39066305364E+03  0.00000000000E+00 0.  1.
         21   -1    0    0  501  502  0.00000000000E+00 -0.00000000000E+00 -0.11903521059E+03  0.11903521059E+03  0.00000000000E+00 0.  1.
         23    2    1    2    0    0 -0.50156602066E+02  0.67318014786E+02  0.28936888676E+03  0.31499355922E+03  0.91865063446E+02 0.  0.
         23    2    1    2    0    0  0.22861116519E+02 -0.17690888319E+02  0.48867108777E+02  0.10727163810E+03  0.91014349646E+02 0.  0.
        -11    1    4    4    0    0 -0.24725792581E+02  0.19020538210E+02  0.23734653483E+01  0.31285444384E+02  0.00000000000E+00 0.  1.
         11    1    4    4    0    0  0.47586909100E+02 -0.36711426529E+02  0.46493643429E+02  0.75986193711E+02  0.00000000000E+00 0. -1.
        -13    1    3    3    0    0 -0.18864543407E+02 -0.17905145104E+02  0.27579689599E+02  0.37909161130E+02  0.00000000000E+00 0. -1.
         13    1    3    3    0    0 -0.31292058659E+02  0.85223159890E+02  0.26178919716E+03  0.27708439809E+03  0.00000000000E+00 0.  1.
         -3    1    1    2    0  502  0.27295485547E+02 -0.49627126467E+02 -0.66608152487E+02  0.87433066916E+02  0.00000000000E+00 0.  1.
<scales pt_clust_5="13000.00000" pt_clust_6="13000.00000" pt_clust_7="13000.00000" pt_clust_8="13000.00000" pt_clust_9="56.63828"></scales>
<clustering>
<clus scale="   56.638">  2  9  1 -1</clus>
<clus scale="   91.014">  5  6 -1 -1</clus>
<clus scale="   91.865">  7  8 -1 -1</clus>
<clus scale="  112.946">  2  5  1 -1</clus>
<clus scale="   56.638">  2  5  1 -1</clus>
</clustering>
</event>
<event>
 9    1  0.1321469E-005  0.1072894E+03  0.7546771E-02  0.1266973E+00
         -1   -1    0    0    0  501 -0.00000000000E+00  0.00000000000E+00  0.24292940753E+03  0.24292940753E+03  0.00000000000E+00 0.  1.
         21   -1    0    0  501  502  0.00000000000E+00 -0.00000000000E+00 -0.69409057274E+02  0.69409057274E+02  0.00000000000E+00 0. -1.
         23    2    1    2    0    0  0.50852967040E+02 -0.13661211398E+02  0.14345361474E+03  0.17858553415E+03  0.92418615391E+02 0.  0.
         23    2    1    2    0    0 -0.50286845052E+02  0.34821059374E+02  0.30927649238E+02  0.11256801071E+03  0.89295938248E+02 0.  0.
        -11    1    3    3    0    0  0.14570558183E+02  0.34495164303E+02  0.23167032079E+02  0.44033270392E+02  0.00000000000E+00 0. -1.
         11    1    3    3    0    0  0.36282408857E+02 -0.48156375701E+02  0.12028658266E+03  0.13455226375E+03  0.00000000000E+00 0.  1.
        -13    1    4    4    0    0 -0.48990350509E+02  0.55425459364E+02  0.45907743382E+02  0.87060650647E+02  0.00000000000E+00 0. -1.
         13    1    4    4    0    0 -0.12964945432E+01 -0.20604399990E+02 -0.14980094144E+02  0.25507360067E+02  0.00000000000E+00 0.  1.
         -1    1    1    2    0  502 -0.56612198821E+00 -0.21159847977E+02 -0.86091372203E+00  0.21184919942E+02  0.00000000000E+00 0.  1.
<scales pt_clust_5="13000.00000" pt_clust_6="13000.00000" pt_clust_7="13000.00000" pt_clust_8="13000.00000" pt_clust_9="21.16742"></scales>
<clustering>
<clus scale="   21.167">  2  9  1 -1</clus>
<clus scale="   89.296">  7  8 -1 -1</clus>
<clus scale="   92.419">  5  6 -1 -1</clus>
<clus scale="  104.612">  2  7  1 -1</clus>
<clus scale="   21.167">  2  5  1 -1</clus>
</clustering>
</event>
<event>
 9    1  0.1321469E-005  0.1323319E+03  0.7546771E-02  0.1224089E+00
         21   -1    0    0  501  502  0.00000000000E+00  0.00000000000E+00  0.37953491931E+02  0.37953491931E+02  0.00000000000E+00 0. -1.
          2   -1    0    0  502    0 -0.00000000000E+00 -0.00000000000E+00 -0.63024136149E+03  0.63024136149E+03  0.00000000000E+00 0. -1.
         23    2    1    2    0    0 -0.18003286478E+02 -0.80011128837E+02 -0.27407285792E+03  0.30034358465E+03  0.91457303322E+02 0.  0.
         23    2    1    2    0    0  0.31400461508E+02  0.10906261930E+03 -0.29272063500E+03  0.32694360888E+03  0.91247516817E+02 0.  0.
        -13    1    4    4    0    0  0.57555237066E+02  0.50381412432E+02 -0.20010428771E+03  0.21422562403E+03  0.00000000000E+00 0. -1.
         13    1    4    4    0    0 -0.26154775558E+02  0.58681206870E+02 -0.92616347288E+02  0.11271798485E+03  0.00000000000E+00 0.  1.
        -13    1    3    3    0    0 -0.38338877806E+02 -0.90865123628E+02 -0.23683526589E+03  0.25654879343E+03  0.00000000000E+00 0. -1.
         13    1    3    3    0    0  0.20335591327E+02  0.10853994791E+02 -0.37237592027E+02  0.43794791215E+02  0.00000000000E+00 0.  1.
          2    1    1    2  501    0 -0.13397175030E+02 -0.29051490465E+02 -0.25494376643E+02  0.40907659887E+02  0.00000000000E+00 0. -1.
<scales pt_clust_5="13000.00000" pt_clust_6="13000.00000" pt_clust_7="13000.00000" pt_clust_8="13000.00000" pt_clust_9="31.99177"></scales>
<clustering>
<clus scale="   31.992">  1  9  2 -1</clus>
<clus scale="   91.248">  5  6 -1 -1</clus>
<clus scale="   91.457">  7  8 -1 -1</clus>
<clus scale="  132.187">  1  5  2 -1</clus>
<clus scale="   31.992">  1  5  2 -1</clus>
</clustering>
</event>
<event>
 9    1  0.1321469E-005  0.4063579E+03  0.7546771E-02  0.1041639E+00
         -3   -1    0    0    0  501 -0.00000000000E+00  0.00000000000E+00  0.13667717077E+03  0.13667717077E+03  0.00000000000E+00 0.  1.
         21   -1    0    0  501  502  0.00000000000E+00 -0.00000000000E+00 -0.16282238705E+04  0.16282238705E+04  0.00000000000E+00 0.  1.
         23    2    1    2    0    0  0.36922506554E+03 -0.21070053732E+03 -0.41508355841E+03  0.60096358015E+03  0.90227483352E+02 0.  0.
         23    2    1    2    0    0 -0.30131195556E+03  0.17209798334E+03 -0.80476513188E+03  0.88123239215E+03  0.92287599677E+02 0.  0.
        -11    1    4    4    0    0 -0.24045261666E+03  0.98175420513E+02 -0.63955609798E+03  0.69028101272E+03  0.00000000000E+00 0.  1.
         11    1    4    4    0    0 -0.60859338901E+02  0.73922562831E+02 -0.16520903390E+03  0.19095137944E+03  0.00000000000E+00 0. -1.
        -11    1    3    3    0    0  0.28340409842E+03 -0.19993625469E+03 -0.34980544662E+03  0.49260150165E+03  0.00000000000E+00 0.  1.
         11    1    3    3    0    0  0.85820967124E+02 -0.10764282634E+02 -0.65278111787E+02  0.10836207850E+03  0.00000000000E+00 0. -1.
         -3    1    1    2    0  502 -0.67913109983E+02  0.38602553981E+02 -0.27169800948E+03  0.28270506899E+03  0.00000000000E+00 0.  1.
<scales pt_clust_5="13000.00000" pt_clust_6="13000.00000" pt_clust_7="13000.00000" pt_clust_8="13000.00000" pt_clust_9="78.11752"></scales>
<clustering>
<clus scale="   78.118">  2  9  1 -1</clus>
<clus scale="   90.227">  7  8 -1 -1</clus>
<clus scale="   92.288">  5  6 -1 -1</clus>
<clus scale="  405.895">  1  7  2 -1</clus>
<clus scale="   78.118">  2  5  1 -1</clus>
</clustering>
</event>
<event>
 9    1  0.1321469E-005  0.1450875E+03  0.7546771E-02  0.1206742E+00
         -1   -1    0    0    0  501 -0.00000000000E+00  0.00000000000E+00  0.51727769470E+03  0.51727769470E+03  0.00000000000E+00 0.  1.
         21   -1    0    0  501  502  0.00000000000E+00 -0.00000000000E+00 -0.59296641482E+02  0.59296641482E+02  0.00000000000E+00 0.  1.
         23    2    1    2    0    0 -0.28228779973E+01 -0.10878912707E+03  0.29560361408E+03  0.32794280014E+03  0.91224671559E+02 0.  0.
         23    2    1    2    0    0  0.35543080808E+02  0.11918705097E+03  0.13263841895E+03  0.20320975915E+03  0.90732531778E+02 0.  0.
        -11    1    3    3    0    0 -0.20493009647E+02  0.61427225285E+01  0.22162579246E+02  0.30803837477E+02  0.00000000000E+00 0. -1.
         11    1    3    3    0    0  0.17670131650E+02 -0.11493184959E+03  0.27344103483E+03  0.29713896266E+03  0.00000000000E+00 0.  1.
        -13    1    4    4    0    0  0.34898742162E+02  0.50429782215E+02  0.11788686013E+03  0.13288490106E+03  0.00000000000E+00 0.  1.
         13    1    4    4    0    0  0.64433864646E+00  0.68757268752E+02  0.14751558821E+02  0.70324858096E+02  0.00000000000E+00 0. -1.
         -1    1    1    2    0  502 -0.32720202811E+02 -0.10397923901E+02  0.29739020191E+02  0.45421776885E+02  0.00000000000E+00 0.  1.
<scales pt_clust_5="13000.00000" pt_clust_6="13000.00000" pt_clust_7="13000.00000" pt_clust_8="13000.00000" pt_clust_9="34.33262"></scales>
<clustering>
<clus scale="   34.333">  2  9  1 -1</clus>
<clus scale="   90.733">  7  8 -1 -1</clus>
<clus scale="   91.225">  5  6 -1 -1</clus>
<clus scale="  144.779">  2  7  1 -1</clus>
<clus scale="   34.333">  2  5  1 -1</clus>
</clustering>
</event>
<event>
 9    1  0.1321469E-005  0.1384460E+03  0.7546771E-02  0.1217027E+00
         -1   -1    0    0    0  501 -0.00000000000E+00  0.00000000000E+00  0.15316207829E+03  0.15316207829E+03  0.00000000000E+00 0.  1.
         21   -1    0    0  501  502  0.00000000000E+00 -0.00000000000E+00 -0.25519214199E+03  0.25519214199E+03  0.00000000000E+00 0.  1.
         23    2    1    2    0    0  0.22516303370E+02  0.11008322896E+03  0.83059783316E+02  0.16322718907E+03  0.84373493648E+02 0.  0.
         23    2    1    2    0    0 -0.25854749912E+02 -0.70066392572E+02 -0.11798742446E+03  0.16692711093E+03  0.91465078417E+02 0.  0.
        -13    1    4    4    0    0  0.33518880541E+02 -0.21123560869E+02 -0.53240786158E+02  0.66364911566E+02  0.00000000000E+00 0.  1.
         13    1    4    4    0    0 -0.59373630453E+02 -0.48942831703E+02 -0.64746638303E+02  0.10056219936E+03  0.00000000000E+00 0. -1.
        -13    1    3    3    0    0 -0.29291632977E+02  0.57849624100E+02  0.53026667740E+02  0.83763991444E+02  0.00000000000E+00 0.  1.
         13    1    3    3    0    0  0.51807936347E+02  0.52233604859E+02  0.30033115576E+02  0.79463197622E+02  0.00000000000E+00 0. -1.
         -1    1    1    2    0  502  0.33384465423E+01 -0.40016836386E+02 -0.67102422561E+02  0.78199920289E+02  0.00000000000E+00 0.  1.
<scales pt_clust_5="13000.00000" pt_clust_6="13000.00000" pt_clust_7="13000.00000" pt_clust_8="13000.00000" pt_clust_9="40.15585"></scales>
<clustering>
<clus scale="   40.156">  2  9  1 -1</clus>
<clus scale="   84.373">  7  8 -1 -1</clus>
<clus scale="   91.465">  5  6 -1 -1</clus>
<clus scale="  133.867">  1  7  2 -1</clus>
<clus scale="   40.156">  2  5  1 -1</clus>
</clustering>
</event>
<event>
 9    1  0.1321469E-005  0.1097446E+03  0.7546771E-02  0.1261290E+00
          1   -1    0    0  502    0 -0.00000000000E+00  0.00000000000E+00  0.48386588848E+03  0.48386588848E+03  0.00000000000E+00 0. -1.
         21   -1    0    0  501  502  0.00000000000E+00 -0.00000000000E+00 -0.55097127568E+02  0.55097127568E+02  0.00000000000E+00 0.  1.
         23    2    1    2    0    0  0.15887598139E+02  0.54033188899E+02  0.34012265650E+03  0.35718816996E+03  0.93423583815E+02 0.  0.
         23    2    1    2    0    0  0.24688801756E+02 -0.64175939274E+02  0.59650450971E+02  0.13088214001E+03  0.94041853232E+02 0.  0.
        -11    1    3    3    0    0  0.84850231872E+01  0.80595204662E+02  0.26751942858E+03  0.27952500300E+03  0.00000000000E+00 0. -1.
         11    1    3    3    0    0  0.74025749521E+01 -0.26562015762E+02  0.72603227924E+02  0.77663166960E+02  0.00000000000E+00 0.  1.
        -13    1    4    4    0    0  0.27792196653E+01 -0.54098612746E+02 -0.11826993584E+02  0.55446025469E+02  0.00000000000E+00 0.  1.
         13    1    4    4    0    0  0.21909582091E+02 -0.10077326528E+02  0.71477444555E+02  0.75436114544E+02  0.00000000000E+00 0. -1.
          1    1    1    2  501    0 -0.40576399896E+02  0.10142750375E+02  0.28995653437E+02  0.50892706078E+02  0.00000000000E+00 0. -1.
<scales pt_clust_5="13000.00000" pt_clust_6="13000.00000" pt_clust_7="13000.00000" pt_clust_8="13000.00000" pt_clust_9="41.82487"></scales>
<clustering>
<clus scale="   41.825">  2  9  1 -1</clus>
<clus scale="   93.424">  5  6 -1 -1</clus>
<clus scale="   94.042">  7  8 -1 -1</clus>
<clus scale="  109.215">  1  5  2 -1</clus>
<clus scale="   41.825">  2  5  1 -1</clus>
</clustering>
</event>
<event>
 9    1  0.1321469E-005  0.1137350E+03  0.7546771E-02  0.1261631E+00
         21   -1    0    0  501  502  0.00000000000E+00  0.00000000000E+00  0.52384636242E+02  0.52384636242E+02  0.00000000000E+00 0. -1.
          2   -1    0    0  502    0 -0.00000000000E+00 -0.00000000000E+00 -0.40381827423E+03  0.40381827423E+03  0.00000000000E+00 0. -1.
         23    2    1    2    0    0  0.45128239368E+01  0.72330833722E+01 -0.18687817523E+03  0.20991232999E+03  0.95221062936E+02 0.  0.
         23    2    1    2    0    0 -0.58749885073E+02  0.82872179810E+01 -0.11969324920E+03  0.17421314463E+03  0.11181913467E+03 0.  0.
        -11    1    4    4    0    0  0.55878040281E+01 -0.28753192657E+02 -0.89322799606E+02  0.94002830656E+02  0.00000000000E+00 0.  1.
         11    1    4    4    0    0 -0.64337689101E+02  0.37040410638E+02 -0.30370449598E+02  0.80210313975E+02  0.00000000000E+00 0. -1.
        -11    1    3    3    0    0  0.27667050497E+02  0.19532902055E+02 -0.17951196818E+03  0.18267880738E+03  0.00000000000E+00 0.  1.
         11    1    3    3    0    0 -0.23154226560E+02 -0.12299818683E+02 -0.73662070551E+01  0.27233522608E+02  0.00000000000E+00 0. -1.
          2    1    1    2  501    0  0.54237061137E+02 -0.15520301353E+02 -0.44862213548E+02  0.72077435854E+02  0.00000000000E+00 0. -1.
<scales pt_clust_5="13000.00000" pt_clust_6="13000.00000" pt_clust_7="13000.00000" pt_clust_8="13000.00000" pt_clust_9="56.41399"></scales>
<clustering>
<clus scale="   56.414">  1  9  2 -1</clus>
<clus scale="   95.221">  7  8 -1 -1</clus>
<clus scale="   97.464">  2  7  1 -1</clus>
<clus scale="  111.819">  5  6 -1 -1</clus>
<clus scale="   56.414">  1  5  2 -1</clus>
</clustering>
</event>
<event>
 9    1  0.1321469E-005  0.1188526E+03  0.7546771E-02  0.1245433E+00
          2   -1    0    0  502    0 -0.00000000000E+00  0.00000000000E+00  0.71862762504E+03  0.71862762504E+03  0.00000000000E+00 0. -1.
         21   -1    0    0  501  502  0.00000000000E+00 -0.00000000000E+00 -0.49685228301E+02  0.49685228301E+02  0.00000000000E+00 0.  1.
         23    2    1    2    0    0  0.48803460096E+02  0.39917175606E+02  0.39012915007E+03  0.40547677295E+03  0.90749661419E+02 0.  0.
         23    2    1    2    0    0 -0.83792060185E+02 -0.52638771013E+02  0.29325241695E+03  0.32290450436E+03  0.92078169646E+02 0.  0.
        -13    1    4    4    0    0 -0.72946823419E+02 -0.74712839424E+02  0.19040562258E+03  0.21715788849E+03  0.00000000000E+00 0.  1.
         13    1    4    4    0    0 -0.10845236767E+02  0.22074068411E+02  0.10284679437E+03  0.10574661587E+03  0.00000000000E+00 0. -1.
        -13    1    3    3    0    0 -0.25607465611E+02  0.78364253553E-01  0.10787675026E+03  0.11087444107E+03  0.00000000000E+00 0.  1.
         13    1    3    3    0    0  0.74410925707E+02  0.39838811353E+02  0.28225239980E+03  0.29460233188E+03  0.00000000000E+00 0. -1.
          2    1    1    2  501    0  0.34988600089E+02  0.12721595406E+02 -0.14439170276E+02  0.39931576029E+02  0.00000000000E+00 0. -1.
<scales pt_clust_5="13000.00000" pt_clust_6="13000.00000" pt_clust_7="13000.00000" pt_clust_8="13000.00000" pt_clust_9="37.22957"></scales>
<clustering>
<clus scale="   37.230">  2  9  1 -1</clus>
<clus scale="   90.750">  7  8 -1 -1</clus>
<clus scale="   92.078">  5  6 -1 -1</clus>
<clus scale="  117.826">  1  7  2 -1</clus>
<clus scale="   37.230">  2  5  1 -1</clus>
</clustering>
</event>
<event>
 9    1  0.1321469E-005  0.9346665E+02  0.7546771E-02  0.1295584E+00
          3   -1    0    0  502    0 -0.00000000000E+00  0.00000000000E+00  0.33202844631E+03  0.33202844631E+03  0.00000000000E+00 0. -1.
         21   -1    0    0  501  502  0.00000000000E+00 -0.00000000000E+00 -0.46796274108E+02  0.46796274108E+02  0.00000000000E+00 0.  1.
         23    2    1    2    0    0  0.11814915735E+02 -0.12180894948E+02  0.19940393160E+03  0.22006657732E+03  0.91539084980E+02 0.  0.
         23    2    1    2    0    0 -0.28758242067E+02 -0.38204924613E+01  0.94740401041E+02  0.13380724512E+03  0.89927763277E+02 0.  0.
        -11    1    4    4    0    0  0.17876531155E+02 -0.27796156051E+02  0.66476089121E+02  0.74237908660E+02  0.00000000000E+00 0. -1.
         11    1    4    4    0    0 -0.46634773222E+02  0.23975663590E+02  0.28264311920E+02  0.59569336460E+02  0.00000000000E+00 0.  1.
        -13    1    3    3    0    0  0.33007605881E+02 -0.11302716188E+02  0.19538843749E+03  0.19847895340E+03  0.00000000000E+00 0. -1.
         13    1    3    3    0    0 -0.21192690145E+02 -0.87817875926E+00  0.40154941171E+01  0.21587623921E+02  0.00000000000E+00 0.  1.
          3    1    1    2  501    0  0.16943326331E+02  0.16001387409E+02 -0.89121604416E+01  0.24950897978E+02  0.00000000000E+00 0. -1.
<scales pt_clust_5="13000.00000" pt_clust_6="13000.00000" pt_clust_7="13000.00000" pt_clust_8="13000.00000" pt_clust_9="23.30495"></scales>
<clustering>
<clus scale="   23.305">  2  9  1 -1</clus>
<clus scale="   89.928">  5  6 -1 -1</clus>
<clus scale="   91.539">  7  8 -1 -1</clus>
<clus scale="   91.889">  2  5  1 -1</clus>
<clus scale="   23.305">  2  5  1 -1</clus>
</clustering>
</event>
<event>
 9    1  0.1321469E-005  0.1178391E+03  0.7546771E-02  0.1246771E+00
         21   -1    0    0  501  502  0.00000000000E+00  0.00000000000E+00  0.32792016053E+02  0.32792016053E+02  0.00000000000E+00 0.  1.
          2   -1    0    0  502    0 -0.00000000000E+00 -0.00000000000E+00 -0.66469170455E+03  0.66469170455E+03  0.00000000000E+00 0. -1.
         23    2    1    2    0    0  0.81949957924E+02 -0.86793321296E+01 -0.34888925506E+03  0.36992714098E+03  0.91275686370E+02 0.  0.
         23    2    1    2    0    0 -0.61637056835E+02  0.27506169388E+02 -0.27671079474E+03  0.29915324884E+03  0.91477244377E+02 0.  0.
        -11    1    4    4    0    0 -0.36670004510E+02  0.53388781289E+02 -0.23649340875E+03  0.24520233193E+03  0.00000000000E+00 0. -1.
         11    1    4    4    0    0 -0.24967052325E+02 -0.25882611902E+02 -0.40217385984E+02  0.53950916916E+02  0.00000000000E+00 0.  1.
        -13    1    3    3    0    0  0.77289504082E+02  0.24619781617E+02 -0.17592569978E+03  0.19372571572E+03  0.00000000000E+00 0.  1.
         13    1    3    3    0    0  0.46604538417E+01 -0.33299113746E+02 -0.17296355528E+03  0.17620142525E+03  0.00000000000E+00 0. -1.
          2    1    1    2  501    0 -0.20312901089E+02 -0.18826837258E+02 -0.62996386928E+01  0.28403330781E+02  0.00000000000E+00 0. -1.
<scales pt_clust_5="13000.00000" pt_clust_6="13000.00000" pt_clust_7="13000.00000" pt_clust_8="13000.00000" pt_clust_9="27.69592"></scales>
<clustering>
<clus scale="   27.696">  1  9  2 -1</clus>
<clus scale="   91.276">  7  8 -1 -1</clus>
<clus scale="   91.477">  5  6 -1 -1</clus>
<clus scale="  117.683">  2  7  1 -1</clus>
<clus scale="   27.696">  1  5  2 -1</clus>
</clustering>
</event>
<event>
 9    1  0.1321469E-005  0.1019271E+03  0.7546771E-02  0.1276517E+00
         21   -1    0    0  501  502  0.00000000000E+00  0.00000000000E+00  0.21548344645E+03  0.21548344645E+03  0.00000000000E+00 0. -1.
         -1   -1    0    0    0  501 -0.00000000000E+00 -0.00000000000E+00 -0.97011154014E+02  0.97011154014E+02  0.00000000000E+00 0.  1.
         23    2    1    2    0    0  0.34148863852E+02  0.22982017258E+02 -0.38169727843E+02  0.10695734176E+03  0.91041895918E+02 0.  0.
         23    2    1    2    0    0 -0.56631304273E+02 -0.24966808694E+02  0.13138717705E+03  0.17166681982E+03  0.91523005697E+02 0.  0.
        -11    1    3    3    0    0 -0.30570227268E+02  0.74753796576E+01 -0.22211987510E+02  0.38520027069E+02  0.00000000000E+00 0. -1.
         11    1    3    3    0    0  0.64719091120E+02  0.15506637600E+02 -0.15957740333E+02  0.68437314687E+02  0.00000000000E+00 0.  1.
        -11    1    4    4    0    0 -0.31207304049E+02  0.17958983622E+02  0.11283269353E+03  0.11843832846E+03  0.00000000000E+00 0. -1.
         11    1    4    4    0    0 -0.25424000224E+02 -0.42925792316E+02  0.18554483521E+02  0.53228491356E+02  0.00000000000E+00 0.  1.
         -1    1    1    2    0  502  0.22482440421E+02  0.19847914362E+01  0.25254843224E+02  0.33870438889E+02  0.00000000000E+00 0.  1.
<scales pt_clust_5="13000.00000" pt_clust_6="13000.00000" pt_clust_7="13000.00000" pt_clust_8="13000.00000" pt_clust_9="22.56988"></scales>
<clustering>
<clus scale="   22.570">  1  9  2 -1</clus>
<clus scale="   91.042">  5  6 -1 -1</clus>
<clus scale="   91.523">  7  8 -1 -1</clus>
<clus scale="  101.495">  2  5  1 -1</clus>
<clus scale="   22.570">  1  5  2 -1</clus>
</clustering>
</event>
<event>
 9    1  0.1321469E-005  0.1075369E+03  0.7546771E-02  0.1267160E+00
         21   -1    0    0  501  502  0.00000000000E+00  0.00000000000E+00  0.51248115087E+02  0.51248115087E+02  0.00000000000E+00 0.  1.
          1   -1    0    0  502    0 -0.00000000000E+00 -0.00000000000E+00 -0.45451692222E+03  0.45451692222E+03  0.00000000000E+00 0. -1.
         23    2    1    2    0    0  0.43752994487E+01 -0.56741737553E+02 -0.30551344254E+03  0.32434143098E+03  0.92844667333E+02 0.  0.
         23    2    1    2    0    0 -0.46557600910E+02  0.38278891813E+02 -0.68347548664E+02  0.12678806050E+03  0.88152941624E+02 0.  0.
        -11    1    4    4    0    0 -0.22652358611E+02  0.31443046811E+02  0.13663284515E+02  0.41091116889E+02  0.00000000000E+00 0.  1.
         11    1    4    4    0    0 -0.23905242299E+02  0.68358450018E+01 -0.82010833179E+02  0.85696943615E+02  0.00000000000E+00 0. -1.
        -11    1    3    3    0    0  0.36299379881E+02 -0.59290748517E+02 -0.25679838280E+03  0.26604219073E+03  0.00000000000E+00 0. -1.
         11    1    3    3    0    0 -0.31924080433E+02  0.25490109644E+01 -0.48715059739E+02  0.58299240251E+02  0.00000000000E+00 0.  1.
          1    1    1    2  501    0  0.42182301461E+02  0.18462845740E+02 -0.29407815926E+02  0.54635545819E+02  0.00000000000E+00 0. -1.
<scales pt_clust_5="13000.00000" pt_clust_6="13000.00000" pt_clust_7="13000.00000" pt_clust_8="13000.00000" pt_clust_9="46.04588"></scales>
<clustering>
<clus scale="   46.046">  1  9  2 -1</clus>
<clus scale="   88.153">  5  6 -1 -1</clus>
<clus scale="   92.845">  7  8 -1 -1</clus>
<clus scale="  103.513">  1  5  2 -1</clus>
<clus scale="   46.046">  1  5  2 -1</clus>
</clustering>
</event>
<event>
 9    1  0.1321469E-005  0.1592572E+03  0.7546771E-02  0.1200707E+00
         21   -1    0    0  501  502  0.00000000000E+00  0.00000000000E+00  0.60788860180E+03  0.60788860180E+03  0.00000000000E+00 0.  1.
         -1   -1    0    0    0  501 -0.00000000000E+00 -0.00000000000E+00 -0.94388035663E+02  0.94388035663E+02  0.00000000000E+00 0.  1.
         23    2    1    2    0    0  0.34753488326E+02  0.77192047622E+02  0.15977876017E+03  0.20268025248E+03  0.91562084825E+02 0.  0.
         23    2    1    2    0    0  0.10297432767E+03 -0.57153548356E+02  0.36383627888E+02  0.15307941279E+03  0.90770578889E+02 0.  0.
        -13    1    4    4    0    0  0.24779622662E+01 -0.47522149868E+02  0.14868474300E+02  0.49855456603E+02  0.00000000000E+00 0. -1.
         13    1    4    4    0    0  0.10049636540E+03 -0.96313984886E+01  0.21515153588E+02  0.10322395618E+03  0.00000000000E+00 0.  1.
        -13    1    3    3    0    0 -0.13757291872E+02  0.74822471926E+02  0.94584335556E+02  0.12138312040E+03  0.00000000000E+00 0.  1.
         13    1    3    3    0    0  0.48510780198E+02  0.23695756962E+01  0.65194424614E+02  0.81297132084E+02  0.00000000000E+00 0. -1.
         -1    1    1    2    0  502 -0.13772781600E+03 -0.20038499266E+02  0.31733817808E+03  0.34651697220E+03  0.00000000000E+00 0.  1.
<scales pt_clust_5="13000.00000" pt_clust_6="13000.00000" pt_clust_7="13000.00000" pt_clust_8="13000.00000" pt_clust_9="130.85700"></scales>
<clustering>
<clus scale="   90.771">  5  6 -1 -1</clus>
<clus scale="   91.562">  7  8 -1 -1</clus>
<clus scale="  124.700">  2  7  1 -1</clus>
<clus scale="  130.857">  1  9  2 -1</clus>
<clus scale="  130.857">  1  5  2 -1</clus>
</clustering>
</event>
<event>
 9    1  0.1321469E-005  0.1224282E+03  0.7546771E-02  0.1239216E+00
          2   -1    0    0  502    0 -0.00000000000E+00  0.00000000000E+00  0.11317003227E+03  0.11317003227E+03  0.00000000000E+00 0. -1.
         21   -1    0    0  501  502  0.00000000000E+00 -0.00000000000E+00 -0.35717023893E+03  0.35717023893E+03  0.00000000000E+00 0. -1.
         23    2    1    2    0    0 -0.80863582208E+02  0.59924043357E+02  0.24006418894E+02  0.13838493134E+03  0.91892715568E+02 0.  0.
         23    2    1    2    0    0  0.40335494973E+02 -0.27012022706E+02 -0.65137848660E+02  0.12247630129E+03  0.91656442900E+02 0.  0.
        -11    1    3    3    0    0 -0.41905058088E+02  0.26826136231E+01  0.49218048204E+02  0.64696573156E+02  0.00000000000E+00 0. -1.
         11    1    3    3    0    0 -0.38958524121E+02  0.57241429734E+02 -0.25211629309E+02  0.73688358185E+02  0.00000000000E+00 0.  1.
        -13    1    4    4    0    0  0.32226931005E+02  0.47872765387E+01 -0.80053003481E+02  0.86429025593E+02  0.00000000000E+00 0.  1.
         13    1    4    4    0    0  0.81085639676E+01 -0.31799299245E+02  0.14915154821E+02  0.36047275701E+02  0.00000000000E+00 0. -1.
          2    1    1    2  501    0  0.40528087235E+02 -0.32912020650E+02 -0.20286877689E+03  0.20947903856E+03  0.00000000000E+00 0. -1.
<scales pt_clust_5="13000.00000" pt_clust_6="13000.00000" pt_clust_7="13000.00000" pt_clust_8="13000.00000" pt_clust_9="52.20850"></scales>
<clustering>
<clus scale="   52.208">  2  9  1 -1</clus>
<clus scale="   91.656">  7  8 -1 -1</clus>
<clus scale="   91.893">  5  6 -1 -1</clus>
<clus scale="  122.251">  2  7  1 -1</clus>
<clus scale="   52.208">  2  5  1 -1</clus>
</clustering>
</event>
<event>
 9    1  0.1321469E-005  0.9463723E+02  0.7546771E-02  0.1293444E+00
         21   -1    0    0  501  502  0.00000000000E+00  0.00000000000E+00  0.39547391146E+02  0.39547391146E+02  0.00000000000E+00 0. -1.
          2   -1    0    0  502    0 -0.00000000000E+00 -0.00000000000E+00 -0.57603403075E+03  0.57603403075E+03  0.00000000000E+00 0. -1.
         23    2    1    2    0    0  0.24934266359E+02  0.55443307610E+01 -0.31302227690E+03  0.32742835894E+03  0.92595502909E+02 0.  0.
         23    2    1    2    0    0 -0.12455300407E+02  0.14559006727E+02 -0.24147370686E+03  0.25841747407E+03  0.90016335272E+02 0.  0.
        -11    1    4    4    0    0 -0.77730298272E+01 -0.25721496321E+02 -0.20616351569E+02  0.33868116536E+02  0.00000000000E+00 0.  1.
         11    1    4    4    0    0 -0.46822705794E+01  0.40280503048E+02 -0.22085735529E+03  0.22454935754E+03  0.00000000000E+00 0. -1.
        -13    1    3    3    0    0 -0.31720821585E+02 -0.15594662542E+02 -0.10458559599E+03  0.11039724141E+03  0.00000000000E+00 0.  1.
         13    1    3    3    0    0  0.56655087944E+02  0.21138993303E+02 -0.20843668091E+03  0.21703111753E+03  0.00000000000E+00 0. -1.
          2    1    1    2  501    0 -0.12478965952E+02 -0.20103337488E+02  0.18009344157E+02  0.29735588886E+02  0.00000000000E+00 0. -1.
<scales pt_clust_5="13000.00000" pt_clust_6="13000.00000" pt_clust_7="13000.00000" pt_clust_8="13000.00000" pt_clust_9="23.66155"></scales>
<clustering>
<clus scale="   23.662">  1  9  2 -1</clus>
<clus scale="   90.016">  5  6 -1 -1</clus>
<clus scale="   92.115">  1  5  2 -1</clus>
<clus scale="   92.596">  7  8 -1 -1</clus>
<clus scale="   23.662">  1  5  2 -1</clus>
</clustering>
</event>
<event>
 9    1  0.1321469E-005  0.1149359E+03  0.7546771E-02  0.1261529E+00
          1   -1    0    0  502    0 -0.00000000000E+00  0.00000000000E+00  0.21766615061E+03  0.21766615061E+03  0.00000000000E+00 0. -1.
         21   -1    0    0  501  502  0.00000000000E+00 -0.00000000000E+00 -0.85259045555E+02  0.85259045555E+02  0.00000000000E+00 0.  1.
         23    2    1    2    0    0 -0.14221315876E+02  0.13085226901E+02  0.11187150835E+03  0.16087217843E+03  0.11397874548E+03 0.  0.
         23    2    1    2    0    0  0.15171794399E+02  0.11187007768E+02  0.46854159043E+02  0.10623805566E+03  0.93465928351E+02 0.  0.
        -11    1    3    3    0    0 -0.12679719999E+02 -0.43300995669E+02  0.12853358113E+02  0.46914393740E+02  0.00000000000E+00 0.  1.
         11    1    3    3    0    0 -0.15415958769E+01  0.56386222571E+02  0.99018150239E+02  0.11395778469E+03  0.00000000000E+00 0. -1.
        -11    1    4    4    0    0 -0.39442629671E+02  0.29368254482E+00  0.22948430858E+02  0.45633734930E+02  0.00000000000E+00 0.  1.
         11    1    4    4    0    0  0.54614424071E+02  0.10893325223E+02  0.23905728185E+02  0.60604320729E+02  0.00000000000E+00 0. -1.
          1    1    1    2  501    0 -0.95047852374E+00 -0.24272234670E+02 -0.26318562339E+02  0.35814962081E+02  0.00000000000E+00 0. -1.
<scales pt_clust_5="13000.00000" pt_clust_6="13000.00000" pt_clust_7="13000.00000" pt_clust_8="13000.00000" pt_clust_9="24.29084"></scales>
<clustering>
<clus scale="   24.291">  2  9  1 -1</clus>
<clus scale="   93.466">  7  8 -1 -1</clus>
<clus scale="   94.631">  2  7  1 -1</clus>
<clus scale="  113.979">  5  6 -1 -1</clus>
<clus scale="   24.291">  2  5  1 -1</clus>
</clustering>
</event>
<event>
 9    1  0.1321469E-005  0.1130385E+03  0.7546771E-02  0.1255636E+00
         21   -1    0    0  501  502  0.00000000000E+00  0.00000000000E+00  0.17137518978E+03  0.17137518978E+03  0.00000000000E+00 0. -1.
          3   -1    0    0  502    0 -0.00000000000E+00 -0.00000000000E+00 -0.19377943064E+03  0.19377943064E+03  0.00000000000E+00 0. -1.
         23    2    1    2    0    0 -0.68781054178E+02  0.33333415954E+02 -0.11474438080E+03  0.16417879031E+03  0.89142875370E+02 0.  0.
         23    2    1    2    0    0  0.47707501967E+02 -0.12181216254E+02 -0.67790811872E+00  0.10328311073E+03  0.90788510443E+02 0.  0.
        -13    1    3    3    0    0 -0.90111888049E+02  0.32914846124E+02 -0.90527495474E+02  0.13190438545E+03  0.00000000000E+00 0. -1.
         13    1    3    3    0    0  0.21330833871E+02  0.41856982937E+00 -0.24216885326E+02  0.32274404862E+02  0.00000000000E+00 0.  1.
        -13    1    4    4    0    0  0.56431280450E+02 -0.33950580416E+02  0.23190818374E+02  0.69820809081E+02  0.00000000000E+00 0.  1.
         13    1    4    4    0    0 -0.87237784832E+01  0.21769364162E+02 -0.23868726493E+02  0.33462301646E+02  0.00000000000E+00 0. -1.
          3    1    1    2  501    0  0.21073552211E+02 -0.21152199699E+02  0.93018048066E+02  0.97692719386E+02  0.00000000000E+00 0. -1.
<scales pt_clust_5="13000.00000" pt_clust_6="13000.00000" pt_clust_7="13000.00000" pt_clust_8="13000.00000" pt_clust_9="29.85817"></scales>
<clustering>
<clus scale="   29.858">  1  9  2 -1</clus>
<clus scale="   89.143">  5  6 -1 -1</clus>
<clus scale="   90.789">  7  8 -1 -1</clus>
<clus scale="  111.721">  2  5  1 -1</clus>
<clus scale="   29.858">  1  5  2 -1</clus>
</clustering>
</event>
<event>
 9    1  0.1321469E-005  0.1031159E+03  0.7546771E-02  0.1274095E+00
          3   -1    0    0  502    0 -0.00000000000E+00  0.00000000000E+00  0.58143052935E+02  0.58143052935E+02  0.00000000000E+00 0. -1.
         21   -1    0    0  501  502  0.00000000000E+00 -0.00000000000E+00 -0.25037674287E+03  0.25037674287E+03  0.00000000000E+00 0.  1.
         23    2    1    2    0    0 -0.46922131778E+02 -0.16189424768E+01 -0.39396395430E+02  0.11085282135E+03  0.92368634306E+02 0.  0.
         23    2    1    2    0    0  0.42910070247E+02 -0.18715117693E+02 -0.11455687602E+03  0.15413582377E+03  0.91886041192E+02 0.  0.
        -11    1    4    4    0    0  0.15076976817E+02 -0.37435611951E+02 -0.63562465784E+01  0.40855136062E+02  0.00000000000E+00 0. -1.
         11    1    4    4    0    0  0.27833093430E+02  0.18720494258E+02 -0.10820062944E+03  0.11328068771E+03  0.00000000000E+00 0.  1.
        -13    1    3    3    0    0 -0.46499467304E+02  0.29017095602E+02 -0.53972387216E+02  0.76923409171E+02  0.00000000000E+00 0.  1.
         13    1    3    3    0    0 -0.42266447467E+00 -0.30636038079E+02  0.14575991786E+02  0.33929412182E+02  0.00000000000E+00 0. -1.
          3    1    1    2  501    0  0.40120615316E+01  0.20334060170E+02 -0.38280418482E+02  0.43531150684E+02  0.00000000000E+00 0. -1.
<scales pt_clust_5="13000.00000" pt_clust_6="13000.00000" pt_clust_7="13000.00000" pt_clust_8="13000.00000" pt_clust_9="20.72609"></scales>
<clustering>
<clus scale="   20.726">  2  9  1 -1</clus>
<clus scale="   91.886">  5  6 -1 -1</clus>
<clus scale="   92.369">  7  8 -1 -1</clus>
<clus scale="  102.684">  2  5  1 -1</clus>
<clus scale="   20.726">  2  5  1 -1</clus>
</clustering>
</event>
<event>
 9    1  0.1321469E-005  0.1851840E+03  0.7546771E-02  0.1162885E+00
         -3   -1    0    0    0  501 -0.00000000000E+00  0.00000000000E+00  0.11408515417E+04  0.11408515417E+04  0.00000000000E+00 0.  1.
         21   -1    0    0  501  502  0.00000000000E+00 -0.00000000000E+00 -0.53569084576E+02  0.53569084576E+02  0.00000000000E+00 0. -1.
         23    2    1    2    0    0 -0.14384930307E+02  0.18380100840E+03  0.69064836095E+03  0.72049002839E+03  0.90116511382E+02 0.  0.
         23    2    1    2    0    0  0.43464648898E+01 -0.13695188010E+03  0.39305659132E+03  0.42588468075E+03  0.90053140379E+02 0.  0.
        -11    1    4    4    0    0  0.33148045542E+02 -0.97474031947E+02  0.18064659114E+03  0.20792587794E+03  0.00000000000E+00 0.  1.
         11    1    4    4    0    0 -0.28801580652E+02 -0.39477848158E+02  0.21241000018E+03  0.21795880280E+03  0.00000000000E+00 0. -1.
        -13    1    3    3    0    0  0.11187717068E+02  0.14439107612E+03  0.61179310171E+03  0.62870084077E+03  0.00000000000E+00 0.  1.
         13    1    3    3    0    0 -0.25572647376E+02  0.39409932277E+02  0.78855259234E+02  0.91789187624E+02  0.00000000000E+00 0. -1.
         -3    1    1    2    0  502  0.10038465417E+02 -0.46849128291E+02  0.35775048199E+01  0.48045917103E+02  0.00000000000E+00 0.  1.
<scales pt_clust_5="13000.00000" pt_clust_6="13000.00000" pt_clust_7="13000.00000" pt_clust_8="13000.00000" pt_clust_9="47.91254"></scales>
<clustering>
<clus scale="   47.913">  2  9  1 -1</clus>
<clus scale="   90.053">  5  6 -1 -1</clus>
<clus scale="   90.117">  7  8 -1 -1</clus>
<clus scale="  185.153">  2  5  1 -1</clus>
<clus scale="   47.913">  2  5  1 -1</clus>
</clustering>
</event>
<event>
 9    1  0.1321469E-005  0.1096753E+03  0.7546771E-02  0.1264496E+00
         -3   -1    0    0    0  501 -0.00000000000E+00  0.00000000000E+00  0.18298223882E+03  0.18298223882E+03  0.00000000000E+00 0.  1.
         21   -1    0    0  501  502  0.00000000000E+00 -0.00000000000E+00 -0.45148821090E+03  0.45148821090E+03  0.00000000000E+00 0.  1.
         23    2    1    2    0    0 -0.26523145656E+01  0.53541413961E+02  0.14347123230E+03  0.17820694083E+03  0.91104343923E+02 0.  0.
         23    2    1    2    0    0 -0.38383668022E+02  0.13700703178E+02 -0.16136969967E+03  0.19356677194E+03  0.98827627664E+02 0.  0.
        -11    1    3    3    0    0  0.38126700269E+02 -0.34528877989E+00  0.51895797184E+02  0.64396725562E+02  0.00000000000E+00 0. -1.
         11    1    3    3    0    0 -0.40779014835E+02  0.53886702741E+02  0.91575435117E+02  0.11381021527E+03  0.00000000000E+00 0.  1.
        -13    1    4    4    0    0 -0.11811956656E+02 -0.29667475325E+02 -0.12987706219E+03  0.13374502868E+03  0.00000000000E+00 0. -1.
         13    1    4    4    0    0 -0.26571711366E+02  0.43368178503E+02 -0.31492637473E+02  0.59821743259E+02  0.00000000000E+00 0.  1.
         -3    1    1    2    0  502  0.41035982587E+02 -0.67242117139E+02 -0.25060750471E+03  0.26269673695E+03  0.00000000000E+00 0.  1.
<scales pt_clust_5="13000.00000" pt_clust_6="13000.00000" pt_clust_7="13000.00000" pt_clust_8="13000.00000" pt_clust_9="78.77471"></scales>
<clustering>
<clus scale="   78.775">  2  9  1 -1</clus>
<clus scale="   91.104">  5  6 -1 -1</clus>
<clus scale="   98.828">  7  8 -1 -1</clus>
<clus scale="  102.770">  1  5  2 -1</clus>
<clus scale="   78.775">  2  5  1 -1</clus>
</clustering>
</event>
<event>
 9    1  0.1321469E-005  0.9349710E+02  0.7546771E-02  0.1295882E+00
         -3   -1    0    0    0  501 -0.00000000000E+00  0.00000000000E+00  0.18382142708E+03  0.18382142708E+03  0.00000000000E+00 0.  1.
         21   -1    0    0  501  502  0.00000000000E+00 -0.00000000000E+00 -0.11861520432E+03  0.11861520432E+03  0.00000000000E+00 0.  1.
         23    2    1    2    0    0  0.14806715007E+02 -0.36550204640E+02  0.89566212388E+02  0.13236554929E+03  0.89125619033E+02 0.  0.
         23    2    1    2    0    0 -0.57139919675E+01 -0.18550970486E+02  0.23712361541E+02  0.96384122215E+02  0.91382901657E+02 0.  0.
        -11    1    4    4    0    0  0.13951299294E+00  0.31977286246E+02 -0.12084244932E+02  0.34184722832E+02  0.00000000000E+00 0. -1.
         11    1    4    4    0    0 -0.58535049604E+01 -0.50528256732E+02  0.35796606473E+02  0.62199399383E+02  0.00000000000E+00 0.  1.
        -13    1    3    3    0    0  0.34852972671E+02 -0.21949348708E+02  0.18710077677E+01  0.41231108192E+02  0.00000000000E+00 0.  1.
         13    1    3    3    0    0 -0.20046257664E+02 -0.14600855932E+02  0.87695204620E+02  0.91134441095E+02  0.00000000000E+00 0. -1.
         -3    1    1    2    0  502 -0.90927230392E+01  0.55101175126E+02 -0.48072351170E+02  0.73686959902E+02  0.00000000000E+00 0.  1.
<scales pt_clust_5="13000.00000" pt_clust_6="13000.00000" pt_clust_7="13000.00000" pt_clust_8="13000.00000" pt_clust_9="55.84637"></scales>
<clustering>
<clus scale="   55.846">  2  9  1 -1</clus>
<clus scale="   89.126">  7  8 -1 -1</clus>
<clus scale="   91.292">  1  7  2 -1</clus>
<clus scale="   91.383">  5  6 -1 -1</clus>
<clus scale="   55.846">  2  5  1 -1</clus>
</clustering>
</event>
<event>
 9    1  0.1321469E-005  0.1233172E+03  0.7546771E-02  0.1251589E+00
         21   -1    0    0  501  502  0.00000000000E+00  0.00000000000E+00  0.53933579864E+03  0.53933579864E+03  0.00000000000E+00 0.  1.
          1   -1    0    0  502    0 -0.00000000000E+00 -0.00000000000E+00 -0.33061800532E+02  0.33061800532E+02  0.00000000000E+00 0. -1.
         23    2    1    2    0    0 -0.29537261521E+02 -0.20053596953E+02  0.19287739564E+03  0.23051644215E+03  0.12108486191E+03 0.  0.
         23    2    1    2    0    0  0.16190276972E+01  0.79636348079E+01  0.28900751747E+03  0.30288856245E+03  0.90277878674E+02 0.  0.
        -13    1    3    3    0    0  0.27539807003E+02 -0.23550690761E+02  0.81514154955E+01  0.37141911362E+02  0.00000000000E+00 0. -1.
         13    1    3    3    0    0 -0.57077068524E+02  0.34970938081E+01  0.18472598015E+03  0.19337453079E+03  0.00000000000E+00 0.  1.
        -13    1    4    4    0    0 -0.21806554216E+02 -0.32767059546E+02  0.17883029938E+03  0.18311057309E+03  0.00000000000E+00 0. -1.
         13    1    4    4    0    0  0.23425581913E+02  0.40730694354E+02  0.11017721808E+03  0.11977798936E+03  0.00000000000E+00 0.  1.
          1    1    1    2  501    0  0.27918233824E+02  0.12089962145E+02  0.24389084993E+02  0.38992594571E+02  0.00000000000E+00 0. -1.
<scales pt_clust_5="13000.00000" pt_clust_6="13000.00000" pt_clust_7="13000.00000" pt_clust_8="13000.00000" pt_clust_9="30.42361"></scales>
<clustering>
<clus scale="   30.424">  1  9  2 -1</clus>
<clus scale="   90.278">  7  8 -1 -1</clus>
<clus scale="   93.251">  1  7  2 -1</clus>
<clus scale="  121.085">  5  6 -1 -1</clus>
<clus scale="   30.424">  1  5  2 -1</clus>
</clustering>
</event>
<event>
 9    1  0.1321469E-005  0.1296952E+03  0.7546771E-02  0.1230041E+00
         21   -1    0    0  501  502  0.00000000000E+00  0.00000000000E+00  0.24204834813E+03  0.24204834813E+03  0.00000000000E+00 0.  1.
         -2   -1    0    0    0  501 -0.00000000000E+00 -0.00000000000E+00 -0.93184902358E+02  0.93184902358E+02  0.00000000000E+00 0.  1.
         23    2    1    2    0    0  0.43975645491E+02  0.78829591115E+02  0.29276932962E+02  0.12800320731E+03  0.85905299298E+02 0.  0.
         23    2    1    2    0    0 -0.32516392719E+02 -0.10653128708E+03  0.11319999777E+03  0.17657900717E+03  0.77198933652E+02 0.  0.
        -13    1    4    4    0    0 -0.83324174475E+01 -0.81201771669E+02  0.31153641424E+02  0.87371083756E+02  0.00000000000E+00 0.  1.
         13    1    4    4    0    0 -0.24183975271E+02 -0.25329515410E+02  0.82046356345E+02  0.89207923417E+02  0.00000000000E+00 0. -1.
        -13    1    3    3    0    0  0.54673222894E+02  0.11113066280E+02  0.90111083640E+01  0.56514260304E+02  0.00000000000E+00 0.  1.
         13    1    3    3    0    0 -0.10697577403E+02  0.67716524835E+02  0.20265824598E+02  0.71488947011E+02  0.00000000000E+00 0. -1.
         -2    1    1    2    0  502 -0.11459252772E+02  0.27701695965E+02  0.63865150380E+01  0.30651035998E+02  0.00000000000E+00 0.  1.
<scales pt_clust_5="13000.00000" pt_clust_6="13000.00000" pt_clust_7="13000.00000" pt_clust_8="13000.00000" pt_clust_9="29.97831"></scales>
<clustering>
<clus scale="   29.978">  1  9  2 -1</clus>
<clus scale="   77.199">  5  6 -1 -1</clus>
<clus scale="   85.905">  7  8 -1 -1</clus>
<clus scale="  124.100">  1  5  2 -1</clus>
<clus scale="   29.978">  1  5  2 -1</clus>
</clustering>
</event>
<event>
 9    1  0.1321469E-005  0.9594071E+02  0.7546771E-02  0.1290010E+00
         21   -1    0    0  501  502  0.00000000000E+00  0.00000000000E+00  0.30218536482E+03  0.30218536482E+03  0.00000000000E+00 0. -1.
          3   -1    0    0  502    0 -0.00000000000E+00 -0.00000000000E+00 -0.13924632107E+03  0.13924632107E+03  0.00000000000E+00 0. -1.
         23    2    1    2    0    0 -0.13216521151E+02  0.51813223737E+02 -0.67718849832E+02  0.12568771920E+03  0.91390773875E+02 0.  0.
         23    2    1    2    0    0  0.96419089269E+01  0.32673155716E+02  0.34104175516E+02  0.10177179501E+03  0.89632036458E+02 0.  0.
        -13    1    4    4    0    0 -0.35358352193E+02 -0.65147936955E+01  0.16489196612E+02  0.39554382963E+02  0.00000000000E+00 0.  1.
         13    1    4    4    0    0  0.45000261120E+02  0.39187949412E+02  0.17614978904E+02  0.62217412046E+02  0.00000000000E+00 0. -1.
        -13    1    3    3    0    0 -0.41485240746E+02  0.52629753423E+02 -0.19510858014E+02  0.69796774464E+02  0.00000000000E+00 0.  1.
         13    1    3    3    0    0  0.28268719595E+02 -0.81652968589E+00 -0.48207991818E+02  0.55890944736E+02  0.00000000000E+00 0. -1.
          3    1    1    2  501    0  0.35746122242E+01 -0.84486379453E+02  0.19655371807E+03  0.21397217168E+03  0.00000000000E+00 0. -1.
<scales pt_clust_5="13000.00000" pt_clust_6="13000.00000" pt_clust_7="13000.00000" pt_clust_8="13000.00000" pt_clust_9="84.56197"></scales>
<clustering>
<clus scale="   84.562">  1  9  2 -1</clus>
<clus scale="   89.632">  5  6 -1 -1</clus>
<clus scale="   91.391">  7  8 -1 -1</clus>
<clus scale="   94.267">  1  5  2 -1</clus>
<clus scale="   84.562">  1  5  2 -1</clus>
</clustering>
</event>
<event>
 9    1  0.1321469E-005  0.1541398E+03  0.7546771E-02  0.1211312E+00
          3   -1    0    0  502    0 -0.00000000000E+00  0.00000000000E+00  0.10556764388E+03  0.10556764388E+03  0.00000000000E+00 0. -1.
         21   -1    0    0  501  502  0.00000000000E+00 -0.00000000000E+00 -0.69883451112E+03  0.69883451112E+03  0.00000000000E+00 0. -1.
         23    2    1    2    0    0 -0.24911322957E+02  0.52242115079E+02 -0.55380573398E+02  0.12270503491E+03  0.92950013894E+02 0.  0.
         23    2    1    2    0    0 -0.53290481815E+02 -0.14154015341E+03 -0.58912291424E+02  0.18823409523E+03  0.95330614429E+02 0.  0.
        -11    1    4    4    0    0  0.26894065299E+02 -0.41635343863E+02 -0.71979121067E+01  0.50085951579E+02  0.00000000000E+00 0.  1.
         11    1    4    4    0    0 -0.80184547114E+02 -0.99904809546E+02 -0.51714379317E+02  0.13814814365E+03  0.00000000000E+00 0. -1.
        -11    1    3    3    0    0 -0.34517521556E+02  0.18896566564E+02  0.16667284897E+02  0.42735674888E+02  0.00000000000E+00 0. -1.
         11    1    3    3    0    0  0.96061985996E+01  0.33345548514E+02 -0.72047858295E+02  0.79969360021E+02  0.00000000000E+00 0.  1.
          3    1    1    2  501    0  0.78201804771E+02  0.89298038331E+02 -0.47897400241E+03  0.49346302486E+03  0.00000000000E+00 0. -1.
<scales pt_clust_5="13000.00000" pt_clust_6="13000.00000" pt_clust_7="13000.00000" pt_clust_8="13000.00000" pt_clust_9="121.12450"></scales>
<clustering>
<clus scale="   92.950">  7  8 -1 -1</clus>
<clus scale="   95.331">  5  6 -1 -1</clus>
<clus scale="  109.497">  1  7  2 -1</clus>
<clus scale="  121.125">  2  9  1 -1</clus>
<clus scale="  121.125">  2  5  1 -1</clus>
</clustering>
</event>
<event>
 9    1  0.2108194E-005  0.9384918E+02  0.7546771E-02  0.1303211E+00
          1   -1    0    0  502    0 -0.00000000000E+00  0.00000000000E+00  0.47377160474E+03  0.47377160474E+03  0.00000000000E+00 0. -1.
         21   -1    0    0  501  502  0.00000000000E+00 -0.00000000000E+00 -0.82530091017E+02  0.82530091017E+02  0.00000000000E+00 0. -1.
         23    2    1    2    0    0  0.13888743016E+02 -0.43046386961E+01  0.36078631041E+03  0.36905662568E+03  0.76319093852E+02 0.  0.
         23    2    1    2    0    0 -0.55665045695E+02  0.14891985255E+02  0.69817963244E+02  0.12887745712E+03  0.91730487974E+02 0.  0.
        -11    1    4    4    0    0 -0.71695806698E+02  0.36655812221E+02  0.45337144870E+02  0.92408841420E+02  0.00000000000E+00 0. -1.
         11    1    4    4    0    0  0.16030761002E+02 -0.21763826965E+02  0.24480818374E+02  0.36468615696E+02  0.00000000000E+00 0.  1.
        -13    1    3    3    0    0  0.43687549281E+02 -0.10962791802E+02  0.25518615568E+03  0.25913077551E+03  0.00000000000E+00 0.  1.
         13    1    3    3    0    0 -0.29798806265E+02  0.66581531060E+01  0.10560015472E+03  0.10992585017E+03  0.00000000000E+00 0. -1.
          1    1    1    2  501    0  0.41776302679E+02 -0.10587346559E+02 -0.39362759932E+02  0.58367612956E+02  0.00000000000E+00 0. -1.
<scales pt_clust_5="13000.00000" pt_clust_6="13000.00000" pt_clust_7="13000.00000" pt_clust_8="13000.00000" pt_clust_9="43.09700"></scales>
<clustering>
<clus scale="   43.097">  2  9  1 -1</clus>
<clus scale="   76.319">  7  8 -1 -1</clus>
<clus scale="   78.853">  1  7  2 -1</clus>
<clus scale="   91.730">  5  6 -1 -1</clus>
<clus scale="   43.097">  2  5  1 -1</clus>
</clustering>
</event>
<event>
 9    1  0.1380308E-005  0.1400052E+03  0.7546771E-02  0.1235237E+00
          1   -1    0    0  502    0 -0.00000000000E+00  0.00000000000E+00  0.56151128702E+03  0.56151128702E+03  0.00000000000E+00 0. -1.
         21   -1    0    0  501  502  0.00000000000E+00 -0.00000000000E+00 -0.24418436165E+03  0.24418436165E+03  0.00000000000E+00 0. -1.
         23    2    1    2    0    0  0.87262958000E+01  0.46083891607E+01  0.16514713410E+03  0.18744004487E+03  0.88106804669E+02 0.  0.
         23    2    1    2    0    0  0.97226678534E+02  0.11899263129E+02  0.36028465292E+03  0.38414843006E+03  0.90390075298E+02 0.  0.
        -11    1    3    3    0    0  0.47323663930E+02  0.75365838222E+01  0.71126934096E+02  0.85763453857E+02  0.00000000000E+00 0. -1.
         11    1    3    3    0    0 -0.38597368130E+02 -0.29281946614E+01  0.94020200003E+02  0.10167659101E+03  0.00000000000E+00 0.  1.
        -11    1    4    4    0    0  0.16730433888E+02 -0.23979859014E+02  0.28398951833E+02  0.40760784114E+02  0.00000000000E+00 0.  1.
         11    1    4    4    0    0  0.80496244646E+02  0.35879122142E+02  0.33188570108E+03  0.34338764595E+03  0.00000000000E+00 0. -1.
          1    1    1    2  501    0 -0.10595297433E+03 -0.16507652290E+02 -0.20810486164E+03  0.23410717373E+03  0.00000000000E+00 0. -1.
<scales pt_clust_5="13000.00000" pt_clust_6="13000.00000" pt_clust_7="13000.00000" pt_clust_8="13000.00000" pt_clust_9="106.91633"></scales>
<clustering>
<clus scale="   88.107">  5  6 -1 -1</clus>
<clus scale="   88.658">  1  5  2 -1</clus>
<clus scale="   90.390">  7  8 -1 -1</clus>
<clus scale="  106.916">  2  9  1 -1</clus>
<clus scale="  106.916">  2  5  1 -1</clus>
</clustering>
</event>
<event>
 9    1  0.1321469E-005  0.1026082E+03  0.7546771E-02  0.1276605E+00
         -1   -1    0    0    0  501 -0.00000000000E+00  0.00000000000E+00  0.60961728087E+02  0.60961728087E+02  0.00000000000E+00 0.  1.
         21   -1    0    0  501  502  0.00000000000E+00 -0.00000000000E+00 -0.27462625960E+03  0.27462625960E+03  0.00000000000E+00 0. -1.
         23    2    1    2    0    0  0.12457328287E+02  0.49751750808E+02 -0.13412576767E+02  0.10271473794E+03  0.87977260919E+02 0.  0.
         23    2    1    2    0    0 -0.78026631190E+00 -0.31279618663E+02 -0.15876448622E+03  0.18598206201E+03  0.91674107281E+02 0.  0.
        -11    1    4    4    0    0 -0.39464777768E+02 -0.39710472694E+02 -0.10753678817E+03  0.12123758137E+03  0.00000000000E+00 0.  1.
         11    1    4    4    0    0  0.38684511456E+02  0.84308540311E+01 -0.51227698051E+02  0.64744480644E+02  0.00000000000E+00 0. -1.
        -13    1    3    3    0    0 -0.17785101649E+02  0.64291825970E+02 -0.17356750879E+02  0.68927538243E+02  0.00000000000E+00 0. -1.
         13    1    3    3    0    0  0.30242429936E+02 -0.14540075162E+02  0.39441741122E+01  0.33787199700E+02  0.00000000000E+00 0.  1.
         -1    1    1    2    0  502 -0.11677061976E+02 -0.18472132145E+02 -0.41487468525E+02  0.46891187733E+02  0.00000000000E+00 0.  1.
<scales pt_clust_5="13000.00000" pt_clust_6="13000.00000" pt_clust_7="13000.00000" pt_clust_8="13000.00000" pt_clust_9="21.85345"></scales>
<clustering>
<clus scale="   21.853">  2  9  1 -1</clus>
<clus scale="   87.977">  7  8 -1 -1</clus>
<clus scale="   91.674">  5  6 -1 -1</clus>
<clus scale="   99.319">  1  7  2 -1</clus>
<clus scale="   21.853">  2  5  1 -1</clus>
</clustering>
</event>
<event>
 9    1  0.1321469E-005  0.4131423E+03  0.7546771E-02  0.1039499E+00
          1   -1    0    0  502    0 -0.00000000000E+00  0.00000000000E+00  0.21353619591E+04  0.21353619591E+04  0.00000000000E+00 0. -1.
         21   -1    0    0  501  502  0.00000000000E+00 -0.00000000000E+00 -0.12466497292E+03  0.12466497292E+03  0.00000000000E+00 0. -1.
         23    2    1    2    0    0  0.10151162659E+03 -0.39122701690E+03  0.10817153980E+04  0.11592721959E+04  0.10217941460E+03 0.  0.
         23    2    1    2    0    0 -0.66721307720E+02  0.39128464768E+03  0.96686462365E+03  0.10493203703E+04  0.93223552295E+02 0.  0.
        -13    1    3    3    0    0 -0.19925823931E+02 -0.81839443215E+02  0.20148306556E+03  0.21838076525E+03  0.00000000000E+00 0.  1.
         13    1    3    3    0    0  0.12143745052E+03 -0.30938757368E+03  0.88023233249E+03  0.94089143067E+03  0.00000000000E+00 0. -1.
        -13    1    4    4    0    0 -0.79033977544E+02  0.27740408896E+03  0.61502668898E+03  0.67930643037E+03  0.00000000000E+00 0.  1.
         13    1    4    4    0    0  0.12312669824E+02  0.11388055872E+03  0.35183793467E+03  0.37001393996E+03  0.00000000000E+00 0. -1.
          1    1    1    2  501    0 -0.34790318869E+02 -0.57630776665E-01 -0.37883035484E+02  0.51434365805E+02  0.00000000000E+00 0. -1.
<scales pt_clust_5="13000.00000" pt_clust_6="13000.00000" pt_clust_7="13000.00000" pt_clust_8="13000.00000" pt_clust_9="34.79037"></scales>
<clustering>
<clus scale="   34.790">  2  9  1 -1</clus>
<clus scale="   93.224">  7  8 -1 -1</clus>
<clus scale="  102.179">  5  6 -1 -1</clus>
<clus scale="  411.019">  2  7  1 -1</clus>
<clus scale="   34.790">  2  5  1 -1</clus>
</clustering>
</event>
<event>
 9    1  0.1321469E-005  0.1189932E+03  0.7546771E-02  0.1253030E+00
         -3   -1    0    0    0  501 -0.00000000000E+00  0.00000000000E+00  0.75972875705E+03  0.75972875705E+03  0.00000000000E+00 0.  1.
         21   -1    0    0  501  502  0.00000000000E+00 -0.00000000000E+00 -0.44046454322E+02  0.44046454322E+02  0.00000000000E+00 0. -1.
         23    2    1    2    0    0 -0.26646742905E+02  0.39700232522E+02  0.58103053059E+03  0.59013748267E+03  0.91540229421E+02 0.  0.
         23    2    1    2    0    0  0.11165831180E+02 -0.15353654771E+02  0.14434485276E+03  0.18320139700E+03  0.11120658633E+03 0.  0.
        -11    1    3    3    0    0 -0.58521689596E+02  0.94159610159E+01  0.34096671797E+03  0.34608055599E+03  0.00000000000E+00 0.  1.
         11    1    3    3    0    0  0.31874946691E+02  0.30284271506E+02  0.24006381262E+03  0.24405692667E+03  0.00000000000E+00 0. -1.
        -13    1    4    4    0    0 -0.45798627392E+02 -0.21386260551E+01  0.30058932840E+02  0.54823602909E+02  0.00000000000E+00 0.  1.
         13    1    4    4    0    0  0.56964458571E+02 -0.13215028716E+02  0.11428591992E+03  0.12837779409E+03  0.00000000000E+00 0. -1.
         -3    1    1    2    0  502  0.15480911725E+02 -0.24346577751E+02 -0.96930806161E+01  0.30436331708E+02  0.00000000000E+00 0.  1.
<scales pt_clust_5="13000.00000" pt_clust_6="13000.00000" pt_clust_7="13000.00000" pt_clust_8="13000.00000" pt_clust_9="28.85159"></scales>
<clustering>
<clus scale="   28.852">  2  9  1 -1</clus>
<clus scale="   91.540">  5  6 -1 -1</clus>
<clus scale="  100.857">  1  5  2 -1</clus>
<clus scale="  111.207">  7  8 -1 -1</clus>
<clus scale="   28.852">  2  5  1 -1</clus>
</clustering>
</event>
<event>
 9    1  0.1321469E-005  0.1610763E+03  0.7546771E-02  0.1187979E+00
         21   -1    0    0  501  502  0.00000000000E+00  0.00000000000E+00  0.49033088856E+03  0.49033088856E+03  0.00000000000E+00 0. -1.
         -2   -1    0    0    0  501 -0.00000000000E+00 -0.00000000000E+00 -0.65238098885E+02  0.65238098885E+02  0.00000000000E+00 0.  1.
         23    2    1    2    0    0 -0.44831727806E+02 -0.11981532795E+03  0.16986260319E+03  0.23077071198E+03  0.89644971497E+02 0.  0.
         23    2    1    2    0    0  0.77503589096E+02  0.11420729097E+03  0.19696124256E+03  0.25775970131E+03  0.92715807254E+02 0.  0.
        -11    1    4    4    0    0  0.18352669894E+02 -0.12545726151E+02  0.50804961206E+02  0.55455926825E+02  0.00000000000E+00 0. -1.
         11    1    4    4    0    0  0.59150919201E+02  0.12675301712E+03  0.14615628136E+03  0.20230377449E+03  0.00000000000E+00 0.  1.
        -11    1    3    3    0    0  0.21823432821E+02 -0.56225259333E+01  0.14674498600E+02  0.26892674228E+02  0.00000000000E+00 0.  1.
         11    1    3    3    0    0 -0.66655160627E+02 -0.11419280202E+03  0.15518810459E+03  0.20387803775E+03  0.00000000000E+00 0. -1.
         -2    1    1    2    0  502 -0.32671861290E+02  0.56080369893E+01  0.58268943925E+02  0.67038574158E+02  0.00000000000E+00 0.  1.
<scales pt_clust_5="13000.00000" pt_clust_6="13000.00000" pt_clust_7="13000.00000" pt_clust_8="13000.00000" pt_clust_9="33.14967"></scales>
<clustering>
<clus scale="   33.150">  1  9  2 -1</clus>
<clus scale="   89.645">  7  8 -1 -1</clus>
<clus scale="   92.716">  5  6 -1 -1</clus>
<clus scale="  159.329">  2  7  1 -1</clus>
<clus scale="   33.150">  1  5  2 -1</clus>
</clustering>
</event>
<event>
 9    1  0.1321469E-005  0.1153733E+03  0.7546771E-02  0.1252981E+00
         21   -1    0    0  501  502  0.00000000000E+00  0.00000000000E+00  0.17090542779E+03  0.17090542779E+03  0.00000000000E+00 0.  1.
         -1   -1    0    0    0  501 -0.00000000000E+00 -0.00000000000E+00 -0.11538272056E+03  0.11538272056E+03  0.00000000000E+00 0.  1.
         23    2    1    2    0    0  0.36631773638E+02  0.62920742983E+02 -0.41332382620E+02  0.12341458998E+03  0.90674629475E+02 0.  0.
         23    2    1    2    0    0 -0.50683597220E+02 -0.47826697195E+02  0.75408455656E+02  0.13312054033E+03  0.84725575131E+02 0.  0.
        -13    1    4    4    0    0 -0.73602456727E+02 -0.29776794817E+02  0.46309933102E+02  0.91916206676E+02  0.00000000000E+00 0.  1.
         13    1    4    4    0    0  0.22918859507E+02 -0.18049902379E+02  0.29098522554E+02  0.41204333653E+02  0.00000000000E+00 0. -1.
        -13    1    3    3    0    0  0.69719927960E+01  0.75679055646E+02 -0.48743369122E+02  0.90287563819E+02  0.00000000000E+00 0.  1.
         13    1    3    3    0    0  0.29659780842E+02 -0.12758312663E+02  0.74109865019E+01  0.33127026165E+02  0.00000000000E+00 0. -1.
         -1    1    1    2    0  502  0.14051823582E+02 -0.15094045788E+02  0.21446634187E+02  0.29753018035E+02  0.00000000000E+00 0.  1.
<scales pt_clust_5="13000.00000" pt_clust_6="13000.00000" pt_clust_7="13000.00000" pt_clust_8="13000.00000" pt_clust_9="20.62241"></scales>
<clustering>
<clus scale="   20.622">  1  9  2 -1</clus>
<clus scale="   84.726">  5  6 -1 -1</clus>
<clus scale="   90.675">  7  8 -1 -1</clus>
<clus scale="  110.759">  1  5  2 -1</clus>
<clus scale="   20.622">  1  5  2 -1</clus>
</clustering>
</event>
<event>
 9    1  0.1321469E-005  0.1361977E+03  0.7546771E-02  0.1219245E+00
         21   -1    0    0  501  502  0.00000000000E+00  0.00000000000E+00  0.60962067950E+03  0.60962067950E+03  0.00000000000E+00 0.  1.
         -1   -1    0    0    0  501 -0.00000000000E+00 -0.00000000000E+00 -0.13379089164E+03  0.13379089164E+03  0.00000000000E+00 0.  1.
         23    2    1    2    0    0  0.10523922107E+03 -0.14134883377E+02 -0.69087178046E+02  0.15162774823E+03  0.83323749809E+02 0.  0.
         23    2    1    2    0    0 -0.82310190033E+02  0.90673495832E+02  0.32899206136E+03  0.36155032390E+03  0.86522887426E+02 0.  0.
        -13    1    4    4    0    0 -0.21858928337E+02  0.69347837998E+02  0.24696641183E+03  0.25744774996E+03  0.00000000000E+00 0.  1.
         13    1    4    4    0    0 -0.60451261696E+02  0.21325657834E+02  0.82025649522E+02  0.10410257395E+03  0.00000000000E+00 0. -1.
        -13    1    3    3    0    0  0.84206662781E+02 -0.35373366805E+02 -0.78348822343E+02  0.12033526124E+03  0.00000000000E+00 0.  1.
         13    1    3    3    0    0  0.21032558291E+02  0.21238483428E+02  0.92616442975E+01  0.31292486984E+02  0.00000000000E+00 0. -1.
         -1    1    1    2    0  502 -0.22929031039E+02 -0.76538612455E+02  0.21592490456E+03  0.23023349901E+03  0.00000000000E+00 0.  1.
<scales pt_clust_5="13000.00000" pt_clust_6="13000.00000" pt_clust_7="13000.00000" pt_clust_8="13000.00000" pt_clust_9="79.89931"></scales>
<clustering>
<clus scale="   79.899">  1  9  2 -1</clus>
<clus scale="   83.324">  7  8 -1 -1</clus>
<clus scale="   86.523">  5  6 -1 -1</clus>
<clus scale="  134.188">  2  7  1 -1</clus>
<clus scale="   79.899">  1  5  2 -1</clus>
</clustering>
</event>
<event>
 9    1  0.1321469E-005  0.9980038E+02  0.7546771E-02  0.1283026E+00
          1   -1    0    0  502    0 -0.00000000000E+00  0.00000000000E+00  0.22535820462E+03  0.22535820462E+03  0.00000000000E+00 0. -1.
         21   -1    0    0  501  502  0.00000000000E+00 -0.00000000000E+00 -0.71896967244E+02  0.71896967244E+02  0.00000000000E+00 0.  1.
         23    2    1    2    0    0  0.64546276924E+01  0.35609968438E+02  0.10464496119E+03  0.14385042923E+03  0.91829439819E+02 0.  0.
         23    2    1    2    0    0 -0.96999379289E+01 -0.11795072153E+02  0.71082454834E+02  0.12064098164E+03  0.96272106771E+02 0.  0.
        -13    1    3    3    0    0 -0.20411185641E+02  0.37243220468E+02  0.10863442936E+03  0.11664095855E+03  0.00000000000E+00 0. -1.
         13    1    3    3    0    0  0.26865813333E+02 -0.16332520302E+01 -0.39894681727E+01  0.27209470678E+02  0.00000000000E+00 0.  1.
        -13    1    4    4    0    0  0.11902243747E+02  0.36186165678E+02  0.87825609563E+01  0.39092651095E+02  0.00000000000E+00 0. -1.
         13    1    4    4    0    0 -0.21602181676E+02 -0.47981237831E+02  0.62299893878E+02  0.81548330542E+02  0.00000000000E+00 0.  1.
          1    1    1    2  501    0  0.32453102365E+01 -0.23814896285E+02 -0.22266178640E+02  0.32763761000E+02  0.00000000000E+00 0. -1.
<scales pt_clust_5="13000.00000" pt_clust_6="13000.00000" pt_clust_7="13000.00000" pt_clust_8="13000.00000" pt_clust_9="24.03500"></scales>
<clustering>
<clus scale="   24.035">  2  9  1 -1</clus>
<clus scale="   91.829">  5  6 -1 -1</clus>
<clus scale="   95.522">  1  5  2 -1</clus>
<clus scale="   96.272">  7  8 -1 -1</clus>
<clus scale="   24.035">  2  5  1 -1</clus>
</clustering>
</event>
<event>
 9    1  0.1321469E-005  0.2366862E+03  0.7546771E-02  0.1122100E+00
         21   -1    0    0  501  502  0.00000000000E+00  0.00000000000E+00  0.31549781076E+03  0.31549781076E+03  0.00000000000E+00 0.  1.
          1   -1    0    0  502    0 -0.00000000000E+00 -0.00000000000E+00 -0.73109604130E+03  0.73109604130E+03  0.00000000000E+00 0. -1.
         23    2    1    2    0    0 -0.52010414064E+02 -0.21379466558E+03 -0.64248662931E+03  0.68468427799E+03  0.87122037905E+02 0.  0.
         23    2    1    2    0    0  0.29618754291E+02  0.21394785046E+03  0.13992274138E+03  0.27210737222E+03  0.88391714192E+02 0.  0.
        -11    1    4    4    0    0  0.10929017708E+02  0.53844853043E+02 -0.52331597576E+01  0.55191463003E+02  0.00000000000E+00 0. -1.
         11    1    4    4    0    0  0.18689736583E+02  0.16010299742E+03  0.14515590114E+03  0.21691590922E+03  0.00000000000E+00 0.  1.
        -13    1    3    3    0    0  0.20091181871E+02 -0.90317827039E+02 -0.28584243170E+03  0.30044443950E+03  0.00000000000E+00 0.  1.
         13    1    3    3    0    0 -0.72101595935E+02 -0.12347683854E+03 -0.35664419761E+03  0.38423983849E+03  0.00000000000E+00 0. -1.
          1    1    1    2  501    0  0.22391659773E+02 -0.15318487910E+00  0.86965657385E+02  0.89802201852E+02  0.00000000000E+00 0. -1.
<scales pt_clust_5="13000.00000" pt_clust_6="13000.00000" pt_clust_7="13000.00000" pt_clust_8="13000.00000" pt_clust_9="22.39218"></scales>
<clustering>
<clus scale="   22.392">  1  9  2 -1</clus>
<clus scale="   87.122">  7  8 -1 -1</clus>
<clus scale="   88.392">  5  6 -1 -1</clus>
<clus scale="  236.215">  2  7  1 -1</clus>
<clus scale="   22.392">  1  5  2 -1</clus>
</clustering>
</event>
<event>
 9    1  0.1321469E-005  0.1412258E+03  0.7546771E-02  0.1230870E+00
          1   -1    0    0  502    0 -0.00000000000E+00  0.00000000000E+00  0.37622915178E+03  0.37622915178E+03  0.00000000000E+00 0. -1.
         21   -1    0    0  501  502  0.00000000000E+00 -0.00000000000E+00 -0.11152498840E+03  0.11152498840E+03  0.00000000000E+00 0. -1.
         23    2    1    2    0    0  0.19735686484E+02 -0.19449983993E+02  0.43360739963E+02  0.10396023982E+03  0.90331492266E+02 0.  0.
         23    2    1    2    0    0  0.48382693033E+02  0.98818080827E+02  0.23718050517E+03  0.27801005669E+03  0.94493923109E+02 0.  0.
        -11    1    4    4    0    0  0.26295409093E+02  0.98776188283E+02  0.23443873665E+03  0.25575321142E+03  0.00000000000E+00 0. -1.
         11    1    4    4    0    0  0.22087283940E+02  0.41892543575E-01  0.27417685267E+01  0.22256845273E+02  0.00000000000E+00 0.  1.
        -11    1    3    3    0    0  0.12414798548E+02  0.28970197223E+02  0.45026208955E+02  0.54961432323E+02  0.00000000000E+00 0.  1.
         11    1    3    3    0    0  0.73208879359E+01 -0.48420181216E+02 -0.16654689920E+01  0.48998807497E+02  0.00000000000E+00 0. -1.
          1    1    1    2  501    0 -0.68118379517E+02 -0.79368096834E+02 -0.15837081762E+02  0.10578384367E+03  0.00000000000E+00 0. -1.
<scales pt_clust_5="13000.00000" pt_clust_6="13000.00000" pt_clust_7="13000.00000" pt_clust_8="13000.00000" pt_clust_9="104.95538"></scales>
<clustering>
<clus scale="   90.331">  7  8 -1 -1</clus>
<clus scale="   94.486">  1  7  2 -1</clus>
<clus scale="   94.494">  5  6 -1 -1</clus>
<clus scale="  104.955">  2  9  1 -1</clus>
<clus scale="  104.955">  2  5  1 -1</clus>
</clustering>
</event>
<event>
 9    1  0.1321469E-005  0.1067939E+03  0.7546771E-02  0.1272672E+00
         21   -1    0    0  501  502  0.00000000000E+00  0.00000000000E+00  0.71932348761E+03  0.71932348761E+03  0.00000000000E+00 0.  1.
         -1   -1    0    0    0  501 -0.00000000000E+00 -0.00000000000E+00 -0.46117464898E+02  0.46117464898E+02  0.00000000000E+00 0.  1.
         23    2    1    2    0    0  0.90507134748E+01 -0.50158935312E+02  0.79028376754E+02  0.13992310875E+03  0.10361060672E+03 0.  0.
         23    2    1    2    0    0  0.17695341400E+02 -0.39734372962E+02  0.28612098207E+03  0.30350066022E+03  0.91408363259E+02 0.  0.
        -13    1    4    4    0    0  0.36139148735E+02  0.17647967131E+02  0.13285191499E+03  0.13880605222E+03  0.00000000000E+00 0. -1.
         13    1    4    4    0    0 -0.18443807334E+02 -0.57382340093E+02  0.15326906708E+03  0.16469460801E+03  0.00000000000E+00 0.  1.
        -13    1    3    3    0    0  0.12211291948E+01 -0.24735460782E+02 -0.23414991261E+02  0.34082194652E+02  0.00000000000E+00 0.  1.
         13    1    3    3    0    0  0.78295842800E+01 -0.25423474530E+02  0.10244336801E+03  0.10584091410E+03  0.00000000000E+00 0. -1.
         -1    1    1    2    0  502 -0.26746054875E+02  0.89893308274E+02  0.30805666389E+03  0.32201718353E+03  0.00000000000E+00 0.  1.
<scales pt_clust_5="13000.00000" pt_clust_6="13000.00000" pt_clust_7="13000.00000" pt_clust_8="13000.00000" pt_clust_9="93.78784"></scales>
<clustering>
<clus scale="   91.408">  5  6 -1 -1</clus>
<clus scale="   93.788">  1  9  2 -1</clus>
<clus scale="   95.001">  1  5  2 -1</clus>
<clus scale="  103.611">  7  8 -1 -1</clus>
<clus scale="   93.788">  1  5  2 -1</clus>
</clustering>
</event>
<event>
 9    1  0.1321469E-005  0.1025079E+03  0.7546771E-02  0.1276106E+00
         21   -1    0    0  501  502  0.00000000000E+00  0.00000000000E+00  0.68806044529E+02  0.68806044529E+02  0.00000000000E+00 0.  1.
         -3   -1    0    0    0  501 -0.00000000000E+00 -0.00000000000E+00 -0.28722753677E+03  0.28722753677E+03  0.00000000000E+00 0.  1.
         23    2    1    2    0    0 -0.28744402954E+02 -0.34957923023E+02 -0.20028371154E+03  0.22470058403E+03  0.91260562516E+02 0.  0.
         23    2    1    2    0    0  0.47726074716E+02  0.25879047960E+02 -0.28125559168E+02  0.10804167799E+03  0.89075550924E+02 0.  0.
        -13    1    4    4    0    0 -0.22166699557E+02  0.26227073749E+02 -0.72459476530E+01  0.35095950252E+02  0.00000000000E+00 0. -1.
         13    1    4    4    0    0  0.69892774273E+02 -0.34802578912E+00 -0.20879611515E+02  0.72945727733E+02  0.00000000000E+00 0.  1.
        -13    1    3    3    0    0  0.20097288038E+02  0.11871636597E+02 -0.15766130068E+02  0.28167491889E+02  0.00000000000E+00 0.  1.
         13    1    3    3    0    0 -0.48841690992E+02 -0.46829559620E+02 -0.18451758148E+03  0.19653309214E+03  0.00000000000E+00 0. -1.
         -3    1    1    2    0  502 -0.18981671762E+02  0.90788750631E+01  0.99877784687E+01  0.23291319285E+02  0.00000000000E+00 0.  1.
<scales pt_clust_5="13000.00000" pt_clust_6="13000.00000" pt_clust_7="13000.00000" pt_clust_8="13000.00000" pt_clust_9="21.04115"></scales>
<clustering>
<clus scale="   21.041">  1  9  2 -1</clus>
<clus scale="   89.076">  5  6 -1 -1</clus>
<clus scale="   91.261">  7  8 -1 -1</clus>
<clus scale="  100.568">  1  5  2 -1</clus>
<clus scale="   21.041">  1  5  2 -1</clus>
</clustering>
</event>
<event>
 9    1  0.1321469E-005  0.1571966E+03  0.7546771E-02  0.1192200E+00
         -2   -1    0    0    0  501 -0.00000000000E+00  0.00000000000E+00  0.25856617970E+03  0.25856617970E+03  0.00000000000E+00 0.  1.
         21   -1    0    0  501  502  0.00000000000E+00 -0.00000000000E+00 -0.50439668988E+03  0.50439668988E+03  0.00000000000E+00 0. -1.
         23    2    1    2    0    0  0.12899647543E+03 -0.80231537576E+01  0.21717043664E+03  0.26901540910E+03  0.92205369219E+02 0.  0.
         23    2    1    2    0    0 -0.95294088068E+02  0.94238704148E+01 -0.41411574739E+03  0.43455406317E+03  0.90419074452E+02 0.  0.
        -11    1    4    4    0    0 -0.26947993327E+02 -0.28668957120E+02 -0.58970824885E+02  0.70891901049E+02  0.00000000000E+00 0.  1.
         11    1    4    4    0    0 -0.68346094741E+02  0.38092827534E+02 -0.35514492250E+03  0.36366216212E+03  0.00000000000E+00 0. -1.
        -13    1    3    3    0    0  0.61968514252E+02 -0.96670931937E+00  0.18348227833E+03  0.19366666659E+03  0.00000000000E+00 0. -1.
         13    1    3    3    0    0  0.67027961179E+02 -0.70564444382E+01  0.33688158309E+02  0.75348742512E+02  0.00000000000E+00 0.  1.
         -2    1    1    2    0  502 -0.33702387363E+02 -0.14007166572E+01 -0.48885199437E+02  0.59393397319E+02  0.00000000000E+00 0.  1.
<scales pt_clust_5="13000.00000" pt_clust_6="13000.00000" pt_clust_7="13000.00000" pt_clust_8="13000.00000" pt_clust_9="33.73148"></scales>
<clustering>
<clus scale="   33.731">  2  9  1 -1</clus>
<clus scale="   90.419">  5  6 -1 -1</clus>
<clus scale="   92.205">  7  8 -1 -1</clus>
<clus scale="  156.156">  2  5  1 -1</clus>
<clus scale="   33.731">  2  5  1 -1</clus>
</clustering>
</event>
<event>
 9    1  0.1321469E-005  0.1319920E+03  0.7546771E-02  0.1224984E+00
          1   -1    0    0  502    0 -0.00000000000E+00  0.00000000000E+00  0.25861611267E+03  0.25861611267E+03  0.00000000000E+00 0. -1.
         21   -1    0    0  501  502  0.00000000000E+00 -0.00000000000E+00 -0.27685956998E+03  0.27685956998E+03  0.00000000000E+00 0. -1.
         23    2    1    2    0    0  0.11672908120E+03  0.20762518219E+02  0.16932972657E+03  0.22582343061E+03  0.90922521673E+02 0.  0.
         23    2    1    2    0    0 -0.15869779469E+02 -0.69663168784E+02 -0.33322989492E+02  0.11897714920E+03  0.89108548509E+02 0.  0.
        -11    1    3    3    0    0  0.68659344378E+01  0.37591799417E+02  0.45970554293E+02  0.59779396962E+02  0.00000000000E+00 0.  1.
         11    1    3    3    0    0  0.10986314677E+03 -0.16829281198E+02  0.12335917228E+03  0.16604403364E+03  0.00000000000E+00 0. -1.
        -13    1    4    4    0    0  0.14805432512E+02  0.14776794099E+02  0.46730702657E+01  0.21433433262E+02  0.00000000000E+00 0.  1.
         13    1    4    4    0    0 -0.30675211980E+02 -0.84439962883E+02 -0.37996059757E+02  0.97543715937E+02  0.00000000000E+00 0. -1.
          1    1    1    2  501    0 -0.10085930173E+03  0.48900650565E+02 -0.15425019440E+03  0.19067510284E+03  0.00000000000E+00 0. -1.
<scales pt_clust_5="13000.00000" pt_clust_6="13000.00000" pt_clust_7="13000.00000" pt_clust_8="13000.00000" pt_clust_9="112.08868"></scales>
<clustering>
<clus scale="   89.109">  7  8 -1 -1</clus>
<clus scale="   90.923">  5  6 -1 -1</clus>
<clus scale="  112.089">  2  9  1 -1</clus>
<clus scale="  130.749">  2  7  1 -1</clus>
<clus scale="  112.089">  2  5  1 -1</clus>
</clustering>
</event>
<event>
 9    1  0.1321469E-005  0.1312799E+03  0.7546771E-02  0.1225977E+00
         21   -1    0    0  501  502  0.00000000000E+00  0.00000000000E+00  0.12917767606E+03  0.12917767606E+03  0.00000000000E+00 0. -1.
          1   -1    0    0  502    0 -0.00000000000E+00 -0.00000000000E+00 -0.33307624512E+03  0.33307624512E+03  0.00000000000E+00 0. -1.
         23    2    1    2    0    0 -0.92941866577E+02  0.29304333537E+02 -0.25595988309E+03  0.28820692987E+03  0.89726462903E+02 0.  0.
         23    2    1    2    0    0  0.72163252365E+02 -0.59130516912E+02  0.30884930124E+02  0.13197810424E+03  0.88093064817E+02 0.  0.
        -11    1    4    4    0    0  0.88597462929E+02 -0.27856430627E+02  0.24811773159E+02  0.96130719606E+02  0.00000000000E+00 0.  1.
         11    1    4    4    0    0 -0.16434210564E+02 -0.31274086285E+02  0.60731569644E+01  0.35847384638E+02  0.00000000000E+00 0. -1.
        -11    1    3    3    0    0 -0.68432733085E+02 -0.13666297217E+02 -0.20764855953E+03  0.21906102098E+03  0.00000000000E+00 0. -1.
         11    1    3    3    0    0 -0.24509133492E+02  0.42970630754E+02 -0.48311323560E+02  0.69145908889E+02  0.00000000000E+00 0.  1.
          1    1    1    2  501    0  0.20778614212E+02  0.29826183375E+02  0.21176383909E+02  0.42068887064E+02  0.00000000000E+00 0. -1.
<scales pt_clust_5="13000.00000" pt_clust_6="13000.00000" pt_clust_7="13000.00000" pt_clust_8="13000.00000" pt_clust_9="36.35041"></scales>
<clustering>
<clus scale="   36.350">  1  9  2 -1</clus>
<clus scale="   88.093">  5  6 -1 -1</clus>
<clus scale="   89.726">  7  8 -1 -1</clus>
<clus scale="  130.169">  1  5  2 -1</clus>
<clus scale="   36.350">  1  5  2 -1</clus>
</clustering>
</event>
<event>
 9    1  0.1321469E-005  0.1287116E+03  0.7546771E-02  0.1230653E+00
         21   -1    0    0  501  502  0.00000000000E+00  0.00000000000E+00  0.29776166644E+03  0.29776166644E+03  0.00000000000E+00 0. -1.
          2   -1    0    0  502    0 -0.00000000000E+00 -0.00000000000E+00 -0.12770598676E+03  0.12770598676E+03  0.00000000000E+00 0. -1.
         23    2    1    2    0    0 -0.55968337956E+02  0.39390031900E+02 -0.32537035338E+01  0.12015597821E+03  0.98705840992E+02 0.  0.
         23    2    1    2    0    0  0.57398749296E+02 -0.89021930325E+02  0.18854512319E+02  0.14307210348E+03  0.94311259457E+02 0.  0.
        -11    1    4    4    0    0  0.55783361238E+02 -0.17798493322E+02  0.37370966877E+02  0.69463363875E+02  0.00000000000E+00 0.  1.
         11    1    4    4    0    0  0.16153880586E+01 -0.71223437003E+02 -0.18516454558E+02  0.73608739607E+02  0.00000000000E+00 0. -1.
        -13    1    3    3    0    0  0.23894473556E+02  0.23694124542E+02  0.14841563165E+02  0.36778110358E+02  0.00000000000E+00 0.  1.
         13    1    3    3    0    0 -0.79862811512E+02  0.15695907358E+02 -0.18095266699E+02  0.83377867850E+02  0.00000000000E+00 0. -1.
          2    1    1    2  501    0 -0.14304113407E+01  0.49631898425E+02  0.15445487090E+03  0.16223957151E+03  0.00000000000E+00 0. -1.
<scales pt_clust_5="13000.00000" pt_clust_6="13000.00000" pt_clust_7="13000.00000" pt_clust_8="13000.00000" pt_clust_9="49.65251"></scales>
<clustering>
<clus scale="   49.653">  1  9  2 -1</clus>
<clus scale="   94.311">  5  6 -1 -1</clus>
<clus scale="   98.706">  7  8 -1 -1</clus>
<clus scale="  125.373">  1  5  2 -1</clus>
<clus scale="   49.653">  1  5  2 -1</clus>
</clustering>
</event>
<event>
 9    1  0.1321469E-005  0.1043817E+03  0.7546771E-02  0.1271642E+00
          4   -1    0    0  502    0 -0.00000000000E+00  0.00000000000E+00  0.30102697615E+03  0.30102697615E+03  0.00000000000E+00 0. -1.
         21   -1    0    0  501  502  0.00000000000E+00 -0.00000000000E+00 -0.74084453436E+02  0.74084453436E+02  0.00000000000E+00 0.  1.
         23    2    1    2    0    0 -0.44007314066E+02  0.29606353538E+02  0.20367200581E+03  0.22938549622E+03  0.91226312347E+02 0.  0.
         23    2    1    2    0    0  0.52873726409E+02  0.56513030818E+01  0.28983143206E+02  0.10892444266E+03  0.90536972823E+02 0.  0.
        -11    1    4    4    0    0  0.68197920392E+02 -0.15829994937E+02  0.38429547842E+00  0.70012090160E+02  0.00000000000E+00 0.  1.
         11    1    4    4    0    0 -0.15324193983E+02  0.21481298019E+02  0.28598847728E+02  0.38912352501E+02  0.00000000000E+00 0. -1.
        -11    1    3    3    0    0 -0.51964331965E+02  0.56691554854E+02  0.15738362630E+03  0.17516800511E+03  0.00000000000E+00 0. -1.
         11    1    3    3    0    0  0.79570178993E+01 -0.27085201316E+02  0.46288379519E+02  0.54217491114E+02  0.00000000000E+00 0.  1.
          4    1    1    2  501    0 -0.88664123437E+01 -0.35257656620E+02 -0.57126263104E+01  0.36801490697E+02  0.00000000000E+00 0. -1.
<scales pt_clust_5="13000.00000" pt_clust_6="13000.00000" pt_clust_7="13000.00000" pt_clust_8="13000.00000" pt_clust_9="36.35541"></scales>
<clustering>
<clus scale="   36.355">  2  9  1 -1</clus>
<clus scale="   90.537">  5  6 -1 -1</clus>
<clus scale="   91.226">  7  8 -1 -1</clus>
<clus scale="  103.780">  2  5  1 -1</clus>
<clus scale="   36.355">  2  5  1 -1</clus>
</clustering>
</event>
<event>
 9    1  0.1321469E-005  0.1211161E+03  0.7546771E-02  0.1245248E+00
          1   -1    0    0  502    0 -0.00000000000E+00  0.00000000000E+00  0.14769792944E+03  0.14769792944E+03  0.00000000000E+00 0. -1.
         21   -1    0    0  501  502  0.00000000000E+00 -0.00000000000E+00 -0.23894393125E+03  0.23894393125E+03  0.00000000000E+00 0.  1.
         23    2    1    2    0    0  0.11964511012E+02 -0.66988109759E+02  0.67338869679E+02  0.13754038282E+03  0.98753618491E+02 0.  0.
         23    2    1    2    0    0 -0.34612874659E+02 -0.32114443831E+01 -0.72043372450E+02  0.13538975097E+03  0.10923265394E+03 0.  0.
        -11    1    3    3    0    0  0.48011511585E+02 -0.21858584429E+02  0.59063099081E+02  0.79191872254E+02  0.00000000000E+00 0. -1.
         11    1    3    3    0    0 -0.36047000573E+02 -0.45129525331E+02  0.82757705972E+01  0.58348510571E+02  0.00000000000E+00 0.  1.
        -13    1    4    4    0    0 -0.52665852559E+02 -0.43993879672E+02 -0.53819595465E+02  0.87210677847E+02  0.00000000000E+00 0.  1.
         13    1    4    4    0    0  0.18052977900E+02  0.40782435289E+02 -0.18223776984E+02  0.48179073121E+02  0.00000000000E+00 0. -1.
          1    1    1    2  501    0  0.22648363647E+02  0.70199554142E+02 -0.86541499045E+02  0.11371172690E+03  0.00000000000E+00 0. -1.
<scales pt_clust_5="13000.00000" pt_clust_6="13000.00000" pt_clust_7="13000.00000" pt_clust_8="13000.00000" pt_clust_9="73.76263"></scales>
<clustering>
<clus scale="   73.763">  2  9  1 -1</clus>
<clus scale="   98.754">  5  6 -1 -1</clus>
<clus scale="  109.233">  7  8 -1 -1</clus>
<clus scale="  111.757">  1  5  2 -1</clus>
<clus scale="   73.763">  2  5  1 -1</clus>
</clustering>
</event>
<event>
 9    1  0.1321469E-005  0.1626031E+03  0.7546771E-02  0.1206299E+00
         21   -1    0    0  501  502  0.00000000000E+00  0.00000000000E+00  0.13359298966E+03  0.13359298966E+03  0.00000000000E+00 0. -1.
          2   -1    0    0  502    0 -0.00000000000E+00 -0.00000000000E+00 -0.41665426876E+03  0.41665426876E+03  0.00000000000E+00 0. -1.
         23    2    1    2    0    0 -0.43017506315E+02  0.19597095521E+02 -0.10808473466E+02  0.10439529445E+03  0.92449999466E+02 0.  0.
         23    2    1    2    0    0 -0.90573090227E+02  0.40788983546E+02 -0.26811936931E+03  0.29918904662E+03  0.88084411615E+02 0.  0.
        -11    1    3    3    0    0  0.59632885463E+01 -0.30614179583E+02 -0.13978860496E+02  0.34178902009E+02  0.00000000000E+00 0.  1.
         11    1    3    3    0    0 -0.48980794861E+02  0.50211275104E+02  0.31703870302E+01  0.70216392436E+02  0.00000000000E+00 0. -1.
        -13    1    4    4    0    0 -0.16809179828E+02  0.33811903751E+02 -0.25639968969E+02  0.45642100855E+02  0.00000000000E+00 0.  1.
         13    1    4    4    0    0 -0.73763910399E+02  0.69770797948E+01 -0.24247940034E+03  0.25354694577E+03  0.00000000000E+00 0. -1.
          2    1    1    2  501    0  0.13359059654E+03 -0.60386079067E+02 -0.41334363248E+01  0.14666291735E+03  0.00000000000E+00 0. -1.
<scales pt_clust_5="13000.00000" pt_clust_6="13000.00000" pt_clust_7="13000.00000" pt_clust_8="13000.00000" pt_clust_9="136.67816"></scales>
<clustering>
<clus scale="   88.084">  7  8 -1 -1</clus>
<clus scale="   92.450">  5  6 -1 -1</clus>
<clus scale="  103.834">  2  5  1 -1</clus>
<clus scale="  136.678">  1  9  2 -1</clus>
<clus scale="  136.678">  1  5  2 -1</clus>
</clustering>
</event>
<event>
 9    1  0.1321469E-005  0.9961403E+02  0.7546771E-02  0.1281622E+00
          1   -1    0    0  502    0 -0.00000000000E+00  0.00000000000E+00  0.66136678182E+03  0.66136678182E+03  0.00000000000E+00 0. -1.
         21   -1    0    0  501  502  0.00000000000E+00 -0.00000000000E+00 -0.26972475708E+02  0.26972475708E+02  0.00000000000E+00 0. -1.
         23    2    1    2    0    0 -0.51925514424E+02  0.17646422689E+02  0.33598252812E+03  0.35235853642E+03  0.90909975828E+02 0.  0.
         23    2    1    2    0    0  0.70406553476E+01 -0.29351858843E+02  0.25378220975E+03  0.27161095979E+03  0.91956517167E+02 0.  0.
        -11    1    4    4    0    0  0.19684838539E+02  0.15980063104E+02  0.17793335518E+02  0.30975120241E+02  0.00000000000E+00 0.  1.
         11    1    4    4    0    0 -0.12644183192E+02 -0.45331921946E+02  0.23598887423E+03  0.24063583955E+03  0.00000000000E+00 0. -1.
        -13    1    3    3    0    0  0.32599985363E+01 -0.26367549797E+02  0.39605010027E+02  0.47691006405E+02  0.00000000000E+00 0. -1.
         13    1    3    3    0    0 -0.55185512961E+02  0.44013972486E+02  0.29637751809E+03  0.30466753002E+03  0.00000000000E+00 0.  1.
          1    1    1    2  501    0  0.44884859077E+02  0.11705436153E+02  0.44629568243E+02  0.64369761313E+02  0.00000000000E+00 0. -1.
<scales pt_clust_5="13000.00000" pt_clust_6="13000.00000" pt_clust_7="13000.00000" pt_clust_8="13000.00000" pt_clust_9="46.38607"></scales>
<clustering>
<clus scale="   46.386">  2  9  1 -1</clus>
<clus scale="   90.910">  7  8 -1 -1</clus>
<clus scale="   91.957">  5  6 -1 -1</clus>
<clus scale="   98.649">  1  7  2 -1</clus>
<clus scale="   46.386">  2  5  1 -1</clus>
</clustering>
</event>
<event>
 9    1  0.1321469E-005  0.1343496E+03  0.7546771E-02  0.1222539E+00
          2   -1    0    0  502    0 -0.00000000000E+00  0.00000000000E+00  0.15967359844E+03  0.15967359844E+03  0.00000000000E+00 0. -1.
         21   -1    0    0  501  502  0.00000000000E+00 -0.00000000000E+00 -0.17722705801E+03  0.17722705801E+03  0.00000000000E+00 0. -1.
         23    2    1    2    0    0  0.10053383724E+03 -0.52526164344E+02  0.43674180274E+02  0.15202123797E+03  0.91307022724E+02 0.  0.
         23    2    1    2    0    0 -0.51416412515E+02  0.45154674847E+02 -0.19703920256E+02  0.12014087078E+03  0.96762555893E+02 0.  0.
        -11    1    4    4    0    0  0.21597216733E+02 -0.12944035265E+02 -0.52309129491E+01  0.25716731321E+02  0.00000000000E+00 0. -1.
         11    1    4    4    0    0 -0.73013629249E+02  0.58098710113E+02 -0.14473007307E+02  0.94424139463E+02  0.00000000000E+00 0.  1.
        -13    1    3    3    0    0  0.10528353510E+03 -0.23252273261E+02  0.54039945483E+02  0.12060516856E+03  0.00000000000E+00 0. -1.
         13    1    3    3    0    0 -0.47496978547E+01 -0.29273891083E+02 -0.10365765209E+02  0.31416069410E+02  0.00000000000E+00 0.  1.
          2    1    1    2  501    0 -0.49117424729E+02  0.73714894963E+01 -0.41523719588E+02  0.64738547696E+02  0.00000000000E+00 0. -1.
<scales pt_clust_5="13000.00000" pt_clust_6="13000.00000" pt_clust_7="13000.00000" pt_clust_8="13000.00000" pt_clust_9="49.66750"></scales>
<clustering>
<clus scale="   49.667">  2  9  1 -1</clus>
<clus scale="   91.307">  7  8 -1 -1</clus>
<clus scale="   96.763">  5  6 -1 -1</clus>
<clus scale="  130.475">  1  7  2 -1</clus>
<clus scale="   49.667">  2  5  1 -1</clus>
</clustering>
</event>
<event>
 9    1  0.1321469E-005  0.1276020E+03  0.7546771E-02  0.1231618E+00
          2   -1    0    0  502    0 -0.00000000000E+00  0.00000000000E+00  0.93828836177E+03  0.93828836177E+03  0.00000000000E+00 0. -1.
         21   -1    0    0  501  502  0.00000000000E+00 -0.00000000000E+00 -0.21963250231E+02  0.21963250231E+02  0.00000000000E+00 0. -1.
         23    2    1    2    0    0  0.18385966096E+02  0.91724273958E+02  0.47059574683E+03  0.48901420334E+03  0.94462415551E+02 0.  0.
         23    2    1    2    0    0 -0.24775557438E+02 -0.71871171550E+02  0.28443201025E+03  0.30859728721E+03  0.92473908032E+02 0.  0.
        -11    1    3    3    0    0 -0.25874581046E+02 -0.34712183002E+01  0.13043448294E+03  0.13302141798E+03  0.00000000000E+00 0.  1.
         11    1    3    3    0    0  0.44260547142E+02  0.95195492258E+02  0.34016126389E+03  0.35599278536E+03  0.00000000000E+00 0. -1.
        -13    1    4    4    0    0 -0.48293854773E+02 -0.46842209495E+02  0.25383591285E+03  0.26260076095E+03  0.00000000000E+00 0. -1.
         13    1    4    4    0    0  0.23518297335E+02 -0.25028962055E+02  0.30596097402E+02  0.45996526253E+02  0.00000000000E+00 0.  1.
          2    1    1    2  501    0  0.63895913417E+01 -0.19853102408E+02  0.16129735445E+03  0.16264012145E+03  0.00000000000E+00 0. -1.
<scales pt_clust_5="13000.00000" pt_clust_6="13000.00000" pt_clust_7="13000.00000" pt_clust_8="13000.00000" pt_clust_9="20.85601"></scales>
<clustering>
<clus scale="   20.856">  2  9  1 -1</clus>
<clus scale="   92.474">  7  8 -1 -1</clus>
<clus scale="   94.462">  5  6 -1 -1</clus>
<clus scale="  126.137">  2  7  1 -1</clus>
<clus scale="   20.856">  2  5  1 -1</clus>
</clustering>
</event>
<event>
 9    1  0.1321469E-005  0.3223958E+03  0.7546771E-02  0.1074559E+00
         21   -1    0    0  501  502  0.00000000000E+00  0.00000000000E+00  0.21638660974E+03  0.21638660974E+03  0.00000000000E+00 0.  1.
          1   -1    0    0  502    0 -0.00000000000E+00 -0.00000000000E+00 -0.58202512784E+03  0.58202512784E+03  0.00000000000E+00 0. -1.
         23    2    1    2    0    0 -0.30676271365E+03 -0.63320091112E+01 -0.28016434923E+03  0.42530188231E+03  0.90808434023E+02 0.  0.
         23    2    1    2    0    0  0.31342858245E+03 -0.23134901320E+02 -0.96206075626E+02  0.34104887525E+03  0.91027613201E+02 0.  0.
        -11    1    4    4    0    0  0.26630721618E+03  0.72695847681E+01 -0.56488160905E+02  0.27232938250E+03  0.00000000000E+00 0.  1.
         11    1    4    4    0    0  0.47121366273E+02 -0.30404486088E+02 -0.39717914722E+02  0.68719492748E+02  0.00000000000E+00 0. -1.
        -11    1    3    3    0    0 -0.21449175374E+03  0.37129139086E+01 -0.13651972482E+03  0.25427963626E+03  0.00000000000E+00 0. -1.
         11    1    3    3    0    0 -0.92270959909E+02 -0.10044923020E+02 -0.14364462441E+03  0.17102224604E+03  0.00000000000E+00 0.  1.
          1    1    1    2  501    0 -0.66658688011E+01  0.29466910431E+02  0.10731906750E+02  0.32060980018E+02  0.00000000000E+00 0. -1.
<scales pt_clust_5="13000.00000" pt_clust_6="13000.00000" pt_clust_7="13000.00000" pt_clust_8="13000.00000" pt_clust_9="30.21146"></scales>
<clustering>
<clus scale="   30.211">  1  9  2 -1</clus>
<clus scale="   90.808">  7  8 -1 -1</clus>
<clus scale="   91.028">  5  6 -1 -1</clus>
<clus scale="  322.334">  2  7  1 -1</clus>
<clus scale="   30.211">  1  5  2 -1</clus>
</clustering>
</event>
<event>
 9    1  0.1321469E-005  0.9144498E+02  0.7546771E-02  0.1304212E+00
         -3   -1    0    0    0  501 -0.00000000000E+00  0.00000000000E+00  0.10920570330E+03  0.10920570330E+03  0.00000000000E+00 0.  1.
         21   -1    0    0  501  502  0.00000000000E+00 -0.00000000000E+00 -0.19884685184E+03  0.19884685184E+03  0.00000000000E+00 0.  1.
         23    2    1    2    0    0  0.12658951295E+02  0.24386240197E+01  0.31383707101E+02  0.90123179044E+02  0.83492840379E+02 0.  0.
         23    2    1    2    0    0  0.13278082862E+02 -0.93136658602E+01  0.12905086559E+01  0.92705399614E+02  0.91266499050E+02 0.  0.
        -13    1    3    3    0    0 -0.86885832236E+01  0.39891426771E+02  0.20383858505E+02  0.45632434691E+02  0.00000000000E+00 0.  1.
         13    1    3    3    0    0  0.21347534518E+02 -0.37452802752E+02  0.10999848597E+02  0.44490744353E+02  0.00000000000E+00 0. -1.
        -13    1    4    4    0    0  0.28381236096E+02  0.12884214600E+02 -0.35447730895E+02  0.47202109845E+02  0.00000000000E+00 0. -1.
         13    1    4    4    0    0 -0.15103153234E+02 -0.22197880460E+02  0.36738239551E+02  0.45503289769E+02  0.00000000000E+00 0.  1.
         -3    1    1    2    0  502 -0.25937034157E+02  0.68750418405E+01 -0.12231536430E+03  0.12522397648E+03  0.00000000000E+00 0.  1.
<scales pt_clust_5="13000.00000" pt_clust_6="13000.00000" pt_clust_7="13000.00000" pt_clust_8="13000.00000" pt_clust_9="26.83274"></scales>
<clustering>
<clus scale="   26.833">  2  9  1 -1</clus>
<clus scale="   83.493">  5  6 -1 -1</clus>
<clus scale="   83.688">  1  5  2 -1</clus>
<clus scale="   91.266">  7  8 -1 -1</clus>
<clus scale="   26.833">  2  5  1 -1</clus>
</clustering>
</event>
<event>
 9    1  0.1321469E-005  0.1689438E+03  0.7546771E-02  0.1201383E+00
         21   -1    0    0  501  502  0.00000000000E+00  0.00000000000E+00  0.66202280805E+02  0.66202280805E+02  0.00000000000E+00 0. -1.
          2   -1    0    0  502    0 -0.00000000000E+00 -0.00000000000E+00 -0.82116894980E+03  0.82116894980E+03  0.00000000000E+00 0. -1.
         23    2    1    2    0    0  0.28103119962E+02  0.39347702763E+02 -0.36793932055E+03  0.38206672850E+03  0.90871416606E+02 0.  0.
         23    2    1    2    0    0  0.49665843958E+02 -0.14462995858E+03 -0.14299351697E+03  0.22838415968E+03  0.91255999933E+02 0.  0.
        -11    1    3    3    0    0 -0.27903462402E+02  0.36231614753E+02 -0.19349709396E+03  0.19882771057E+03  0.00000000000E+00 0. -1.
         11    1    3    3    0    0  0.56006582364E+02  0.31160880103E+01 -0.17444222659E+03  0.18323901792E+03  0.00000000000E+00 0.  1.
        -13    1    4    4    0    0 -0.17875333438E+02 -0.12870619725E+02 -0.47059766566E+02  0.51959619195E+02  0.00000000000E+00 0.  1.
         13    1    4    4    0    0  0.67541177397E+02 -0.13175933886E+03 -0.95933750401E+02  0.17642454049E+03  0.00000000000E+00 0. -1.
          2    1    1    2  501    0 -0.77768963920E+02  0.10528225582E+03 -0.24403383148E+03  0.27692034242E+03  0.00000000000E+00 0. -1.
<scales pt_clust_5="13000.00000" pt_clust_6="13000.00000" pt_clust_7="13000.00000" pt_clust_8="13000.00000" pt_clust_9="142.17731"></scales>
<clustering>
<clus scale="   90.871">  5  6 -1 -1</clus>
<clus scale="   91.256">  7  8 -1 -1</clus>
<clus scale="  102.935">  2  5  1 -1</clus>
<clus scale="  142.177">  1  9  2 -1</clus>
<clus scale="  142.177">  1  5  2 -1</clus>
</clustering>
</event>
<event>
 9    1  0.1321469E-005  0.1809021E+03  0.7546771E-02  0.1166967E+00
         21   -1    0    0  501  502  0.00000000000E+00  0.00000000000E+00  0.87607027108E+02  0.87607027108E+02  0.00000000000E+00 0. -1.
          1   -1    0    0  502    0 -0.00000000000E+00 -0.00000000000E+00 -0.66092845371E+03  0.66092845371E+03  0.00000000000E+00 0. -1.
         23    2    1    2    0    0  0.86294674374E+02 -0.13495778661E+03 -0.48870953761E+03  0.52241139595E+03  0.91740282748E+02 0.  0.
         23    2    1    2    0    0 -0.99505420132E+02  0.10426196899E+03 -0.88398321620E+02  0.19249234249E+03  0.92017127978E+02 0.  0.
        -11    1    3    3    0    0  0.89050257590E+02 -0.92242764363E+02 -0.43627267669E+03  0.45472246962E+03  0.00000000000E+00 0. -1.
         11    1    3    3    0    0 -0.27555832164E+01 -0.42715022248E+02 -0.52436860919E+02  0.67688926328E+02  0.00000000000E+00 0.  1.
        -11    1    4    4    0    0 -0.12105978139E+02  0.31467747134E+02 -0.69422104946E+02  0.77176437282E+02  0.00000000000E+00 0.  1.
         11    1    4    4    0    0 -0.87399441993E+02  0.72794221852E+02 -0.18976216673E+02  0.11531590521E+03  0.00000000000E+00 0. -1.
          1    1    1    2  501    0  0.13210745759E+02  0.30695817626E+02  0.37864326227E+01  0.33631742375E+02  0.00000000000E+00 0. -1.
<scales pt_clust_5="13000.00000" pt_clust_6="13000.00000" pt_clust_7="13000.00000" pt_clust_8="13000.00000" pt_clust_9="33.41791"></scales>
<clustering>
<clus scale="   33.418">  1  9  2 -1</clus>
<clus scale="   91.740">  5  6 -1 -1</clus>
<clus scale="   92.017">  7  8 -1 -1</clus>
<clus scale="  180.761">  2  5  1 -1</clus>
<clus scale="   33.418">  1  5  2 -1</clus>
</clustering>
</event>
<event>
 9    1  0.1321469E-005  0.1241905E+03  0.7546771E-02  0.1236374E+00
          4   -1    0    0  502    0 -0.00000000000E+00  0.00000000000E+00  0.28176136885E+03  0.28176136885E+03  0.00000000000E+00 0. -1.
         21   -1    0    0  501  502  0.00000000000E+00 -0.00000000000E+00 -0.93585590915E+02  0.93585590915E+02  0.00000000000E+00 0.  1.
         23    2    1    2    0    0 -0.55847010551E+02 -0.55080996280E+02  0.13218480371E+03  0.17859543950E+03  0.90943410645E+02 0.  0.
         23    2    1    2    0    0  0.81157974778E+02  0.62448541138E+02  0.24312772905E+01  0.13705590265E+03  0.91060266748E+02 0.  0.
        -11    1    4    4    0    0  0.29365997079E+02 -0.15637461105E+02 -0.22415634329E+02  0.40116737612E+02  0.00000000000E+00 0. -1.
         11    1    4    4    0    0  0.51791977699E+02  0.78086002243E+02  0.24846911619E+02  0.96939165033E+02  0.00000000000E+00 0.  1.
        -11    1    3    3    0    0 -0.73312582310E+02 -0.13310827777E+02  0.75899912169E+02  0.10636122192E+03  0.00000000000E+00 0. -1.
         11    1    3    3    0    0  0.17465571759E+02 -0.41770168502E+02  0.56284891545E+02  0.72234217583E+02  0.00000000000E+00 0.  1.
          4    1    1    2  501    0 -0.25310964227E+02 -0.73675448584E+01  0.53559696935E+02  0.59695617621E+02  0.00000000000E+00 0. -1.
<scales pt_clust_5="13000.00000" pt_clust_6="13000.00000" pt_clust_7="13000.00000" pt_clust_8="13000.00000" pt_clust_9="26.36146"></scales>
<clustering>
<clus scale="   26.361">  2  9  1 -1</clus>
<clus scale="   90.943">  7  8 -1 -1</clus>
<clus scale="   91.060">  5  6 -1 -1</clus>
<clus scale="  124.105">  1  7  2 -1</clus>
<clus scale="   26.361">  2  5  1 -1</clus>
</clustering>
</event>
<event>
 9    1  0.1321469E-005  0.1012955E+03  0.7546771E-02  0.1281431E+00
          2   -1    0    0  502    0 -0.00000000000E+00  0.00000000000E+00  0.85486520880E+03  0.85486520880E+03  0.00000000000E+00 0. -1.
         21   -1    0    0  501  502  0.00000000000E+00 -0.00000000000E+00 -0.16437486676E+02  0.16437486676E+02  0.00000000000E+00 0. -1.
         23    2    1    2    0    0  0.33778430903E+02 -0.14644700708E+02  0.44863854742E+03  0.45975193014E+03  0.93487118810E+02 0.  0.
         23    2    1    2    0    0 -0.44028165955E+02 -0.48614980068E+01  0.36847146374E+03  0.38089144933E+03  0.85702759732E+02 0.  0.
        -13    1    4    4    0    0 -0.52450157610E+02 -0.36181970910E+02  0.25846453030E+03  0.26620305685E+03  0.00000000000E+00 0. -1.
         13    1    4    4    0    0  0.84219916547E+01  0.31320472903E+02  0.11000693343E+03  0.11468839248E+03  0.00000000000E+00 0.  1.
        -13    1    3    3    0    0  0.58584322926E+02 -0.35102525868E+02  0.30011359654E+03  0.30778642114E+03  0.00000000000E+00 0. -1.
         13    1    3    3    0    0 -0.24805892023E+02  0.20457825160E+02  0.14852495089E+03  0.15196550900E+03  0.00000000000E+00 0.  1.
          2    1    1    2  501    0  0.10249735052E+02  0.19506198714E+02  0.21317710965E+02  0.30659316002E+02  0.00000000000E+00 0. -1.
<scales pt_clust_5="13000.00000" pt_clust_6="13000.00000" pt_clust_7="13000.00000" pt_clust_8="13000.00000" pt_clust_9="22.03517"></scales>
<clustering>
<clus scale="   22.035">  2  9  1 -1</clus>
<clus scale="   85.703">  5  6 -1 -1</clus>
<clus scale="   93.487">  7  8 -1 -1</clus>
<clus scale="   94.159">  2  5  1 -1</clus>
<clus scale="   22.035">  2  5  1 -1</clus>
</clustering>
</event>
<event>
 9    1  0.1321469E-005  0.1228767E+03  0.7546771E-02  0.1248105E+00
         -2   -1    0    0    0  501 -0.00000000000E+00  0.00000000000E+00  0.47809239384E+03  0.47809239384E+03  0.00000000000E+00 0.  1.
         21   -1    0    0  501  502  0.00000000000E+00 -0.00000000000E+00 -0.53230596059E+02  0.53230596059E+02  0.00000000000E+00 0.  1.
         23    2    1    2    0    0  0.36988522727E+02  0.13120553372E+02  0.32698026202E+03  0.34886237262E+03  0.11510240462E+03 0.  0.
         23    2    1    2    0    0 -0.39973737410E+02 -0.33091693175E+02  0.11512176240E+03  0.15590909478E+03  0.91442144648E+02 0.  0.
        -11    1    4    4    0    0 -0.60284600365E+02 -0.47993299787E+02  0.10097401812E+03  0.12701709413E+03  0.00000000000E+00 0.  1.
         11    1    4    4    0    0  0.20310862955E+02  0.14901606612E+02  0.14147744284E+02  0.28892000656E+02  0.00000000000E+00 0. -1.
        -13    1    3    3    0    0  0.33107916491E+02 -0.45500567394E+02  0.21696400474E+03  0.22414239920E+03  0.00000000000E+00 0.  1.
         13    1    3    3    0    0  0.38806062356E+01  0.58621120766E+02  0.11001625728E+03  0.12471997342E+03  0.00000000000E+00 0. -1.
         -2    1    1    2    0  502  0.29852146831E+01  0.19971139803E+02 -0.17240226644E+02  0.26551522489E+02  0.00000000000E+00 0.  1.
<scales pt_clust_5="13000.00000" pt_clust_6="13000.00000" pt_clust_7="13000.00000" pt_clust_8="13000.00000" pt_clust_9="20.19302"></scales>
<clustering>
<clus scale="   20.193">  2  9  1 -1</clus>
<clus scale="   91.442">  5  6 -1 -1</clus>
<clus scale="  101.053">  2  5  1 -1</clus>
<clus scale="  115.102">  7  8 -1 -1</clus>
<clus scale="   20.193">  2  5  1 -1</clus>
</clustering>
</event>
<event>
 9    1  0.1321469E-005  0.1033624E+03  0.7546771E-02  0.1275731E+00
         21   -1    0    0  501  502  0.00000000000E+00  0.00000000000E+00  0.28717097253E+03  0.28717097253E+03  0.00000000000E+00 0. -1.
          2   -1    0    0  502    0 -0.00000000000E+00 -0.00000000000E+00 -0.12904802967E+03  0.12904802967E+03  0.00000000000E+00 0. -1.
         23    2    1    2    0    0 -0.29790765707E+02 -0.33558054623E+02 -0.35294794124E+02  0.10618968852E+03  0.89537113563E+02 0.  0.
         23    2    1    2    0    0 -0.26933367787E+02  0.53036592072E+02  0.44700108913E+01  0.11179136590E+03  0.94546507566E+02 0.  0.
        -11    1    4    4    0    0  0.22871471736E+02  0.54696652817E+02  0.14328876192E+02  0.60992989284E+02  0.00000000000E+00 0. -1.
         11    1    4    4    0    0 -0.49804839524E+02 -0.16600607452E+01 -0.98588653011E+01  0.50798376615E+02  0.00000000000E+00 0.  1.
        -13    1    3    3    0    0  0.25397429462E+02  0.71248624473E+01  0.47311207043E+01  0.26798816976E+02  0.00000000000E+00 0.  1.
         13    1    3    3    0    0 -0.55188195170E+02 -0.40682917070E+02 -0.40025914828E+02  0.79390871549E+02  0.00000000000E+00 0. -1.
          2    1    1    2  501    0  0.56724133494E+02 -0.19478537449E+02  0.18894772609E+03  0.19823794777E+03  0.00000000000E+00 0. -1.
<scales pt_clust_5="13000.00000" pt_clust_6="13000.00000" pt_clust_7="13000.00000" pt_clust_8="13000.00000" pt_clust_9="59.97533"></scales>
<clustering>
<clus scale="   59.975">  1  9  2 -1</clus>
<clus scale="   89.537">  7  8 -1 -1</clus>
<clus scale="   94.547">  5  6 -1 -1</clus>
<clus scale="   98.801">  2  7  1 -1</clus>
<clus scale="   59.975">  1  5  2 -1</clus>
</clustering>
</event>
<event>
 9    1  0.1321469E-005  0.1518181E+03  0.7546771E-02  0.1199635E+00
         21   -1    0    0  501  502  0.00000000000E+00  0.00000000000E+00  0.17232536228E+03  0.17232536228E+03  0.00000000000E+00 0. -1.
          1   -1    0    0  502    0 -0.00000000000E+00 -0.00000000000E+00 -0.39063202925E+03  0.39063202925E+03  0.00000000000E+00 0. -1.
         23    2    1    2    0    0  0.35207328892E+02 -0.88498314879E+02 -0.12180158830E+03  0.17936009031E+03  0.90900535423E+02 0.  0.
         23    2    1    2    0    0 -0.68633682615E+02  0.12032558511E+03 -0.20474873756E+03  0.26592408446E+03  0.98003797579E+02 0.  0.
        -11    1    4    4    0    0 -0.54735322161E+02  0.13725537353E+03 -0.17707443238E+03  0.23063032684E+03  0.00000000000E+00 0. -1.
         11    1    4    4    0    0 -0.13898360454E+02 -0.16929788424E+02 -0.27674305178E+02  0.35293757614E+02  0.00000000000E+00 0.  1.
        -11    1    3    3    0    0  0.34328857154E+01 -0.97256695438E+02 -0.79045272479E+02  0.12537465698E+03  0.00000000000E+00 0.  1.
         11    1    3    3    0    0  0.31774443177E+02  0.87583805594E+01 -0.42756315826E+02  0.53985433334E+02  0.00000000000E+00 0. -1.
          1    1    1    2  501    0  0.33426353723E+02 -0.31827270229E+02  0.10824365889E+03  0.11767321676E+03  0.00000000000E+00 0. -1.
<scales pt_clust_5="13000.00000" pt_clust_6="13000.00000" pt_clust_7="13000.00000" pt_clust_8="13000.00000" pt_clust_9="46.15513"></scales>
<clustering>
<clus scale="   46.155">  1  9  2 -1</clus>
<clus scale="   90.901">  7  8 -1 -1</clus>
<clus scale="   98.004">  5  6 -1 -1</clus>
<clus scale="  147.333">  2  7  1 -1</clus>
<clus scale="   46.155">  1  5  2 -1</clus>
</clustering>
</event>
<event>
 9    1  0.1321469E-005  0.1474421E+03  0.7546771E-02  0.1204021E+00
          2   -1    0    0  502    0 -0.00000000000E+00  0.00000000000E+00  0.77671205648E+03  0.77671205648E+03  0.00000000000E+00 0.  1.
         21   -1    0    0  501  502  0.00000000000E+00 -0.00000000000E+00 -0.44552813573E+02  0.44552813573E+02  0.00000000000E+00 0. -1.
         23    2    1    2    0    0 -0.12085291025E+03 -0.49207408906E+01  0.54410060855E+03  0.56450077056E+03  0.89364467896E+02 0.  0.
         23    2    1    2    0    0  0.10138392984E+03  0.29471628018E+02  0.17218163882E+03  0.22163766722E+03  0.91265879164E+02 0.  0.
        -11    1    3    3    0    0 -0.10653483825E+03  0.29470865738E+02  0.35673467503E+03  0.37346731056E+03  0.00000000000E+00 0.  1.
         11    1    3    3    0    0 -0.14318071996E+02 -0.34391606628E+02  0.18736593353E+03  0.19103346000E+03  0.00000000000E+00 0. -1.
        -11    1    4    4    0    0  0.26767569782E+02  0.21303982831E+02  0.44485053587E+00  0.34213453034E+02  0.00000000000E+00 0. -1.
         11    1    4    4    0    0  0.74616360057E+02  0.81676451867E+01  0.17173678828E+03  0.18742421419E+03  0.00000000000E+00 0.  1.
          2    1    1    2  501    0  0.19468980408E+02 -0.24550887127E+02  0.15876995535E+02  0.35126432271E+02  0.00000000000E+00 0.  1.
<scales pt_clust_5="13000.00000" pt_clust_6="13000.00000" pt_clust_7="13000.00000" pt_clust_8="13000.00000" pt_clust_9="31.33348"></scales>
<clustering>
<clus scale="   31.333">  2  9  1 -1</clus>
<clus scale="   89.364">  5  6 -1 -1</clus>
<clus scale="   91.266">  7  8 -1 -1</clus>
<clus scale="  146.273">  1  5  2 -1</clus>
<clus scale="   31.333">  2  5  1 -1</clus>
</clustering>
</event>
<event>
 9    1  0.1321469E-005  0.1015112E+03  0.7546771E-02  0.1278407E+00
         21   -1    0    0  501  502  0.00000000000E+00  0.00000000000E+00  0.22934031343E+03  0.22934031343E+03  0.00000000000E+00 0.  1.
          3   -1    0    0  502    0 -0.00000000000E+00 -0.00000000000E+00 -0.75638703614E+02  0.75638703614E+02  0.00000000000E+00 0. -1.
         23    2    1    2    0    0  0.14742430359E+02  0.21275011199E+02  0.38983159966E+02  0.10236064681E+03  0.91038727477E+02 0.  0.
         23    2    1    2    0    0 -0.56390599762E+02 -0.40158009424E+02  0.48792128325E+02  0.12238485163E+03  0.88344862106E+02 0.  0.
        -13    1    3    3    0    0 -0.28920194434E+02  0.24657414445E+02  0.44160225791E+02  0.58262262873E+02  0.00000000000E+00 0.  1.
         13    1    3    3    0    0  0.43662624793E+02 -0.33824032461E+01 -0.51770658245E+01  0.44098383940E+02  0.00000000000E+00 0. -1.
        -13    1    4    4    0    0 -0.41580759938E+02 -0.68542580886E+02  0.33153738710E+02  0.86753762927E+02  0.00000000000E+00 0.  1.
         13    1    4    4    0    0 -0.14809839824E+02  0.28384571462E+02  0.15638389615E+02  0.35631088707E+02  0.00000000000E+00 0. -1.
          3    1    1    2  501    0  0.41648169403E+02  0.18882998225E+02  0.65926321526E+02  0.80233518597E+02  0.00000000000E+00 0. -1.
<scales pt_clust_5="13000.00000" pt_clust_6="13000.00000" pt_clust_7="13000.00000" pt_clust_8="13000.00000" pt_clust_9="45.72896"></scales>
<clustering>
<clus scale="   45.729">  1  9  2 -1</clus>
<clus scale="   88.345">  7  8 -1 -1</clus>
<clus scale="   91.039">  5  6 -1 -1</clus>
<clus scale="   99.102">  1  7  2 -1</clus>
<clus scale="   45.729">  1  5  2 -1</clus>
</clustering>
</event>
<event>
 9    1  0.1321469E-005  0.9688535E+02  0.7546771E-02  0.1291593E+00
          1   -1    0    0  502    0 -0.00000000000E+00  0.00000000000E+00  0.38289758222E+03  0.38289758222E+03  0.00000000000E+00 0. -1.
         21   -1    0    0  501  502  0.00000000000E+00 -0.00000000000E+00 -0.34258145170E+02  0.34258145170E+02  0.00000000000E+00 0.  1.
         23    2    1    2    0    0 -0.14690311355E+02 -0.35318891142E+02  0.22337622982E+03  0.24161636057E+03  0.83775272767E+02 0.  0.
         23    2    1    2    0    0  0.12283288902E+02  0.94305204552E+01  0.11330487201E+03  0.14692113356E+03  0.92238883139E+02 0.  0.
        -11    1    3    3    0    0 -0.20355673471E+02  0.18810954453E+02  0.13507717430E+03  0.13789143725E+03  0.00000000000E+00 0. -1.
         11    1    3    3    0    0  0.56653621160E+01 -0.54129845595E+02  0.88299055520E+02  0.10372492332E+03  0.00000000000E+00 0.  1.
        -13    1    4    4    0    0  0.14279428026E+02  0.34799584500E+02  0.78322879751E+01  0.38422101466E+02  0.00000000000E+00 0.  1.
         13    1    4    4    0    0 -0.19961391242E+01 -0.25369064045E+02  0.10547258404E+03  0.10849903209E+03  0.00000000000E+00 0. -1.
          1    1    1    2  501    0  0.24070224527E+01  0.25888370687E+02  0.11958335225E+02  0.28618233266E+02  0.00000000000E+00 0. -1.
<scales pt_clust_5="13000.00000" pt_clust_6="13000.00000" pt_clust_7="13000.00000" pt_clust_8="13000.00000" pt_clust_9="26.00003"></scales>
<clustering>
<clus scale="   26.000">  2  9  1 -1</clus>
<clus scale="   83.775">  5  6 -1 -1</clus>
<clus scale="   88.865">  1  5  2 -1</clus>
<clus scale="   92.239">  7  8 -1 -1</clus>
<clus scale="   26.000">  2  5  1 -1</clus>
</clustering>
</event>
<event>
 9    1  0.1475151E-005  0.9839476E+02  0.7546771E-02  0.1284043E+00
          2   -1    0    0  502    0 -0.00000000000E+00  0.00000000000E+00  0.13616636605E+03  0.13616636605E+03  0.00000000000E+00 0. -1.
         21   -1    0    0  501  502  0.00000000000E+00 -0.00000000000E+00 -0.28055784667E+03  0.28055784667E+03  0.00000000000E+00 0. -1.
         23    2    1    2    0    0  0.23398971570E+02 -0.27168159969E+02  0.99638021221E+02  0.13956350841E+03  0.90909937961E+02 0.  0.
         23    2    1    2    0    0 -0.46695671649E+02  0.33821662024E+02 -0.19482732927E+03  0.22231675195E+03  0.90236685417E+02 0.  0.
        -11    1    3    3    0    0  0.22045768429E+02  0.29083198762E+02  0.18749247532E+02  0.41029046283E+02  0.00000000000E+00 0.  1.
         11    1    3    3    0    0  0.13532031408E+01 -0.56251358730E+02  0.80888773689E+02  0.98534462127E+02  0.00000000000E+00 0. -1.
        -13    1    4    4    0    0 -0.26602315600E+02  0.63519043509E+01 -0.30234942480E+01  0.27516747657E+02  0.00000000000E+00 0.  1.
         13    1    4    4    0    0 -0.20093356049E+02  0.27469757674E+02 -0.19180383502E+03  0.19480000430E+03  0.00000000000E+00 0. -1.
          2    1    1    2  501    0  0.23296700079E+02 -0.66535020559E+01 -0.49202172575E+02  0.54843952358E+02  0.00000000000E+00 0. -1.
<scales pt_clust_5="13000.00000" pt_clust_6="13000.00000" pt_clust_7="13000.00000" pt_clust_8="13000.00000" pt_clust_9="24.22819"></scales>
<clustering>
<clus scale="   24.228">  2  9  1 -1</clus>
<clus scale="   90.237">  7  8 -1 -1</clus>
<clus scale="   90.910">  5  6 -1 -1</clus>
<clus scale="   97.773">  2  7  1 -1</clus>
<clus scale="   24.228">  2  5  1 -1</clus>
</clustering>
</event>
<event>
 9    1  0.1321469E-005  0.9566798E+02  0.7546771E-02  0.1290365E+00
         21   -1    0    0  501  502  0.00000000000E+00  0.00000000000E+00  0.38268792464E+03  0.38268792464E+03  0.00000000000E+00 0. -1.
          1   -1    0    0  502    0 -0.00000000000E+00 -0.00000000000E+00 -0.92504235212E+02  0.92504235212E+02  0.00000000000E+00 0. -1.
         23    2    1    2    0    0  0.10675861489E+02 -0.18776182452E+02  0.90316215879E+01  0.93779319204E+02  0.90810084660E+02 0.  0.
         23    2    1    2    0    0 -0.42982187272E+02 -0.39308717484E+02  0.18541407061E+02  0.11052187838E+03  0.92079629295E+02 0.  0.
        -13    1    3    3    0    0 -0.40318175329E+02 -0.10014524279E+02  0.56773488428E+01  0.41929443692E+02  0.00000000000E+00 0.  1.
         13    1    3    3    0    0  0.50994036819E+02 -0.87616581724E+01  0.33542727450E+01  0.51849875512E+02  0.00000000000E+00 0. -1.
        -13    1    4    4    0    0 -0.57553536772E+02  0.33683430036E+01 -0.79853746349E+01  0.58202418657E+02  0.00000000000E+00 0.  1.
         13    1    4    4    0    0  0.14571349500E+02 -0.42677060487E+02  0.26526781696E+02  0.52319459719E+02  0.00000000000E+00 0. -1.
          1    1    1    2  501    0  0.32306325782E+02  0.58084899935E+02  0.26261066078E+03  0.27089096227E+03  0.00000000000E+00 0. -1.
<scales pt_clust_5="13000.00000" pt_clust_6="13000.00000" pt_clust_7="13000.00000" pt_clust_8="13000.00000" pt_clust_9="66.46468"></scales>
<clustering>
<clus scale="   66.465">  1  9  2 -1</clus>
<clus scale="   90.810">  5  6 -1 -1</clus>
<clus scale="   92.080">  7  8 -1 -1</clus>
<clus scale="   94.447">  2  5  1 -1</clus>
<clus scale="   66.465">  1  5  2 -1</clus>
</clustering>
</event>
<event>
 9    1  0.1321469E-005  0.2095785E+03  0.7546771E-02  0.1156228E+00
          3   -1    0    0  502    0 -0.00000000000E+00  0.00000000000E+00  0.23783118185E+03  0.23783118185E+03  0.00000000000E+00 0. -1.
         21   -1    0    0  501  502  0.00000000000E+00 -0.00000000000E+00 -0.77568774308E+03  0.77568774308E+03  0.00000000000E+00 0.  1.
         23    2    1    2    0    0 -0.70152180017E+02 -0.87402150295E+02  0.14242862244E+03  0.20624013008E+03  0.98430760082E+02 0.  0.
         23    2    1    2    0    0  0.16144186765E+03  0.21008050670E+03 -0.40966436862E+03  0.49644216295E+03  0.91829354323E+02 0.  0.
        -11    1    4    4    0    0  0.17206325017E+03  0.18942633293E+03 -0.38723863466E+03  0.46415714779E+03  0.00000000000E+00 0.  1.
         11    1    4    4    0    0 -0.10621382522E+02  0.20654173765E+02 -0.22425733959E+02  0.32285015165E+02  0.00000000000E+00 0. -1.
        -13    1    3    3    0    0 -0.32058342909E+02 -0.48864336711E+02  0.14032862056E+03  0.15201178409E+03  0.00000000000E+00 0. -1.
         13    1    3    3    0    0 -0.38093837108E+02 -0.38537813583E+02  0.21000018714E+01  0.54228345994E+02  0.00000000000E+00 0.  1.
          3    1    1    2  501    0 -0.91289687629E+02 -0.12267835640E+03 -0.27062081504E+03  0.31083663190E+03  0.00000000000E+00 0. -1.
<scales pt_clust_5="13000.00000" pt_clust_6="13000.00000" pt_clust_7="13000.00000" pt_clust_8="13000.00000" pt_clust_9="188.38925"></scales>
<clustering>
<clus scale="   91.829">  5  6 -1 -1</clus>
<clus scale="   98.431">  7  8 -1 -1</clus>
<clus scale="  149.161">  1  7  2 -1</clus>
<clus scale="  188.389">  2  9  1 -1</clus>
<clus scale="  188.389">  2  5  1 -1</clus>
</clustering>
</event>
<event>
 9    1  0.1321469E-005  0.1059231E+03  0.7546771E-02  0.1268821E+00
         21   -1    0    0  501  502  0.00000000000E+00  0.00000000000E+00  0.13464587632E+03  0.13464587632E+03  0.00000000000E+00 0. -1.
          2   -1    0    0  502    0 -0.00000000000E+00 -0.00000000000E+00 -0.37579848796E+03  0.37579848796E+03  0.00000000000E+00 0. -1.
         23    2    1    2    0    0  0.45741726599E+02 -0.18354213902E+02 -0.30435118249E+03  0.32155908269E+03  0.91331367317E+02 0.  0.
         23    2    1    2    0    0 -0.83471361652E+02 -0.16131091734E+02  0.34669571491E+02  0.13034755469E+03  0.92524729073E+02 0.  0.
        -11    1    3    3    0    0 -0.14946553997E+02  0.24424996121E+02 -0.66933514185E+02  0.72801615594E+02  0.00000000000E+00 0.  1.
         11    1    3    3    0    0  0.60688280596E+02 -0.42779210023E+02 -0.23741766830E+03  0.24875746709E+03  0.00000000000E+00 0. -1.
        -11    1    4    4    0    0 -0.26146151787E+02 -0.20962204745E+02 -0.29157569599E+02  0.44420706275E+02  0.00000000000E+00 0.  1.
         11    1    4    4    0    0 -0.57325209865E+02  0.48311130111E+01  0.63827141090E+02  0.85926848416E+02  0.00000000000E+00 0. -1.
          2    1    1    2  501    0  0.37729635053E+02  0.34485305636E+02  0.28528999363E+02  0.58537726901E+02  0.00000000000E+00 0. -1.
<scales pt_clust_5="13000.00000" pt_clust_6="13000.00000" pt_clust_7="13000.00000" pt_clust_8="13000.00000" pt_clust_9="51.11518"></scales>
<clustering>
<clus scale="   51.115">  1  9  2 -1</clus>
<clus scale="   91.331">  5  6 -1 -1</clus>
<clus scale="   92.525">  7  8 -1 -1</clus>
<clus scale="  104.882">  2  5  1 -1</clus>
<clus scale="   51.115">  1  5  2 -1</clus>
</clustering>
</event>
<event>
 9    1  0.1321469E-005  0.3072659E+03  0.7546771E-02  0.1082668E+00
         21   -1    0    0  501  502  0.00000000000E+00  0.00000000000E+00  0.15239989495E+03  0.15239989495E+03  0.00000000000E+00 0. -1.
          1   -1    0    0  502    0 -0.00000000000E+00 -0.00000000000E+00 -0.11417921899E+04  0.11417921899E+04  0.00000000000E+00 0. -1.
         23    2    1    2    0    0  0.18385706022E+03  0.26706460904E+03 -0.79308822128E+03  0.86431304478E+03  0.11367140643E+03 0.  0.
         23    2    1    2    0    0 -0.11843357076E+03 -0.14331934117E+03 -0.23630239506E+02  0.20759683813E+03  0.89281099603E+02 0.  0.
        -11    1    4    4    0    0 -0.93792674366E+02 -0.12142412337E+03  0.18015343611E+02  0.15448442027E+03  0.00000000000E+00 0. -1.
         11    1    4    4    0    0 -0.24640896392E+02 -0.21895217795E+02 -0.41645583117E+02  0.53112417855E+02  0.00000000000E+00 0.  1.
        -13    1    3    3    0    0  0.71885253035E+02  0.38571661887E+02 -0.27925596599E+03  0.29092809635E+03  0.00000000000E+00 0.  1.
         13    1    3    3    0    0  0.11197180718E+03  0.22849294716E+03 -0.51383225529E+03  0.57338494843E+03  0.00000000000E+00 0. -1.
          1    1    1    2  501    0 -0.65423489459E+02 -0.12374526787E+03 -0.17267383413E+03  0.22228220192E+03  0.00000000000E+00 0. -1.
<scales pt_clust_5="13000.00000" pt_clust_6="13000.00000" pt_clust_7="13000.00000" pt_clust_8="13000.00000" pt_clust_9="139.97551"></scales>
<clustering>
<clus scale="   89.281">  5  6 -1 -1</clus>
<clus scale="  113.671">  7  8 -1 -1</clus>
<clus scale="  139.976">  1  9  2 -1</clus>
<clus scale="  299.102">  1  5  2 -1</clus>
<clus scale="  139.976">  1  5  2 -1</clus>
</clustering>
</event>
<event>
 9    1  0.1321469E-005  0.9870983E+02  0.7546771E-02  0.1283797E+00
         21   -1    0    0  501  502  0.00000000000E+00  0.00000000000E+00  0.88665671479E+02  0.88665671479E+02  0.00000000000E+00 0. -1.
         -1   -1    0    0    0  501 -0.00000000000E+00 -0.00000000000E+00 -0.30584035672E+03  0.30584035672E+03  0.00000000000E+00 0.  1.
         23    2    1    2    0    0  0.37220060414E+02  0.22664369465E+02 -0.23706622940E+03  0.25723190829E+03  0.89826783188E+02 0.  0.
         23    2    1    2    0    0  0.35461527993E+01 -0.90671918184E+01  0.21153949214E+02  0.94281550244E+02  0.91360450863E+02 0.  0.
        -11    1    4    4    0    0 -0.26269747831E+01  0.37852251497E+02  0.27040951943E+02  0.46592993270E+02  0.00000000000E+00 0. -1.
         11    1    4    4    0    0  0.61731275824E+01 -0.46919443315E+02 -0.58870027294E+01  0.47688556974E+02  0.00000000000E+00 0.  1.
        -13    1    3    3    0    0  0.39518669122E+02  0.54181809344E+02 -0.14174430186E+03  0.15680829310E+03  0.00000000000E+00 0.  1.
         13    1    3    3    0    0 -0.22986087077E+01 -0.31517439879E+02 -0.95321927539E+02  0.10042361519E+03  0.00000000000E+00 0. -1.
         -1    1    1    2    0  502 -0.40766213214E+02 -0.13597177646E+02 -0.12624050500E+01  0.42992569663E+02  0.00000000000E+00 0.  1.
<scales pt_clust_5="13000.00000" pt_clust_6="13000.00000" pt_clust_7="13000.00000" pt_clust_8="13000.00000" pt_clust_9="42.97403"></scales>
<clustering>
<clus scale="   42.974">  1  9  2 -1</clus>
<clus scale="   89.827">  7  8 -1 -1</clus>
<clus scale="   91.360">  5  6 -1 -1</clus>
<clus scale="   97.292">  2  7  1 -1</clus>
<clus scale="   42.974">  1  5  2 -1</clus>
</clustering>
</event>
<event>
 9    1  0.1321469E-005  0.9546179E+02  0.7546771E-02  0.1291906E+00
         21   -1    0    0  501  502  0.00000000000E+00  0.00000000000E+00  0.18709765765E+03  0.18709765765E+03  0.00000000000E+00 0. -1.
          1   -1    0    0  502    0 -0.00000000000E+00 -0.00000000000E+00 -0.37787641234E+03  0.37787641234E+03  0.00000000000E+00 0. -1.
         23    2    1    2    0    0  0.44643851358E+01 -0.46379824968E+02 -0.20836674582E+03  0.23347658753E+03  0.94464793761E+02 0.  0.
         23    2    1    2    0    0  0.13723474731E+02 -0.28384860396E+02 -0.13182210159E+03  0.16343817081E+03  0.91328720301E+02 0.  0.
        -11    1    4    4    0    0  0.33479176372E+02  0.61259497873E+01 -0.11557424712E+03  0.12048148865E+03  0.00000000000E+00 0.  1.
         11    1    4    4    0    0 -0.19755701640E+02 -0.34510810184E+02 -0.16247854469E+02  0.42956682154E+02  0.00000000000E+00 0. -1.
        -13    1    3    3    0    0  0.50302254220E+01  0.28333380610E+02 -0.39993004288E+02  0.49269909849E+02  0.00000000000E+00 0.  1.
         13    1    3    3    0    0 -0.56584028616E+00 -0.74713205579E+02 -0.16837374154E+03  0.18420667768E+03  0.00000000000E+00 0. -1.
          1    1    1    2  501    0 -0.18187859867E+02  0.74764685365E+02  0.14941009272E+03  0.16805931165E+03  0.00000000000E+00 0. -1.
<scales pt_clust_5="13000.00000" pt_clust_6="13000.00000" pt_clust_7="13000.00000" pt_clust_8="13000.00000" pt_clust_9="76.94515"></scales>
<clustering>
<clus scale="   76.945">  1  9  2 -1</clus>
<clus scale="   91.329">  5  6 -1 -1</clus>
<clus scale="   92.360">  1  5  2 -1</clus>
<clus scale="   94.465">  7  8 -1 -1</clus>
<clus scale="   76.945">  1  5  2 -1</clus>
</clustering>
</event>
<event>
 9    1  0.1321469E-005  0.9983645E+02  0.7546771E-02  0.1281297E+00
          1   -1    0    0  502    0 -0.00000000000E+00  0.00000000000E+00  0.29318845101E+03  0.29318845101E+03  0.00000000000E+00 0. -1.
         21   -1    0    0  501  502  0.00000000000E+00 -0.00000000000E+00 -0.57851311654E+02  0.57851311654E+02  0.00000000000E+00 0.  1.
         23    2    1    2    0    0  0.14001607436E+01 -0.36133152884E+02  0.17479149644E+03  0.19968059829E+03  0.89513735914E+02 0.  0.
         23    2    1    2    0    0 -0.15412096911E+02  0.51793627663E+02  0.71525863688E+02  0.12764946016E+03  0.90875315162E+02 0.  0.
        -11    1    3    3    0    0 -0.18633341439E+02  0.20624842384E+02  0.21958981626E+02  0.35422907992E+02  0.00000000000E+00 0.  1.
         11    1    3    3    0    0  0.20033502183E+02 -0.56757995268E+02  0.15283251482E+03  0.16425769030E+03  0.00000000000E+00 0. -1.
        -13    1    4    4    0    0  0.20345959408E+02 -0.17479374716E+01  0.58498562739E+02  0.61960432472E+02  0.00000000000E+00 0. -1.
         13    1    4    4    0    0 -0.35758056320E+02  0.53541565135E+02  0.13027300949E+02  0.65689027690E+02  0.00000000000E+00 0.  1.
          1    1    1    2  501    0  0.14011936168E+02 -0.15660474780E+02 -0.10980220776E+02  0.23709704211E+02  0.00000000000E+00 0. -1.
<scales pt_clust_5="13000.00000" pt_clust_6="13000.00000" pt_clust_7="13000.00000" pt_clust_8="13000.00000" pt_clust_9="21.01392"></scales>
<clustering>
<clus scale="   21.014">  2  9  1 -1</clus>
<clus scale="   89.514">  5  6 -1 -1</clus>
<clus scale="   90.875">  7  8 -1 -1</clus>
<clus scale="   98.599">  1  5  2 -1</clus>
<clus scale="   21.014">  2  5  1 -1</clus>
</clustering>
</event>
<event>
 9    1  0.1321469E-005  0.1851393E+03  0.7546771E-02  0.1163271E+00
         21   -1    0    0  501  502  0.00000000000E+00  0.00000000000E+00  0.68297690375E+03  0.68297690375E+03  0.00000000000E+00 0. -1.
          2   -1    0    0  502    0 -0.00000000000E+00 -0.00000000000E+00 -0.61218848216E+02  0.61218848216E+02  0.00000000000E+00 0. -1.
         23    2    1    2    0    0 -0.13555562288E+03  0.99819711972E+02  0.20846174792E+03  0.28252842412E+03  0.89591898616E+02 0.  0.
         23    2    1    2    0    0  0.12904888282E+03 -0.75583791121E+02  0.32123823638E+03  0.36625031677E+03  0.92621630182E+02 0.  0.
        -13    1    3    3    0    0 -0.54885773655E+02  0.17149321682E+02  0.18866425120E+02  0.60518504448E+02  0.00000000000E+00 0.  1.
         13    1    3    3    0    0 -0.80669849220E+02  0.82670390290E+02  0.18959532280E+03  0.22200991967E+03  0.00000000000E+00 0. -1.
        -13    1    4    4    0    0  0.97349598529E+02 -0.36731685698E+02  0.28766875322E+03  0.30590762110E+03  0.00000000000E+00 0. -1.
         13    1    4    4    0    0  0.31699284292E+02 -0.38852105423E+02  0.33569483169E+02  0.60342695669E+02  0.00000000000E+00 0.  1.
          2    1    1    2  501    0  0.65067400536E+01 -0.24235920851E+02  0.92058071230E+02  0.95417011084E+02  0.00000000000E+00 0. -1.
<scales pt_clust_5="13000.00000" pt_clust_6="13000.00000" pt_clust_7="13000.00000" pt_clust_8="13000.00000" pt_clust_9="25.09417"></scales>
<clustering>
<clus scale="   25.094">  1  9  2 -1</clus>
<clus scale="   89.592">  5  6 -1 -1</clus>
<clus scale="   92.622">  7  8 -1 -1</clus>
<clus scale="  183.642">  2  5  1 -1</clus>
<clus scale="   25.094">  1  5  2 -1</clus>
</clustering>
</event>
<event>
 9    1  0.1321469E-005  0.9641702E+02  0.7546771E-02  0.1288166E+00
         21   -1    0    0  501  502  0.00000000000E+00  0.00000000000E+00  0.88123555955E+02  0.88123555955E+02  0.00000000000E+00 0. -1.
          2   -1    0    0  502    0 -0.00000000000E+00 -0.00000000000E+00 -0.27867269046E+03  0.27867269046E+03  0.00000000000E+00 0. -1.
         23    2    1    2    0    0 -0.15541296761E+02 -0.28283625612E+02 -0.14446919646E+03  0.17629394610E+03  0.95742943970E+02 0.  0.
         23    2    1    2    0    0 -0.26788083605E+02 -0.33944549399E+02 -0.46808176225E+02  0.11523841431E+03  0.96015899276E+02 0.  0.
        -11    1    3    3    0    0  0.40718742484E+02 -0.11144139918E+02 -0.59376331495E+02  0.72854351866E+02  0.00000000000E+00 0.  1.
         11    1    3    3    0    0 -0.56260039245E+02 -0.17139485694E+02 -0.85092864970E+02  0.10343959423E+03  0.00000000000E+00 0. -1.
        -13    1    4    4    0    0  0.22928442752E+02 -0.12135730318E+01 -0.50629292231E+02  0.55592368886E+02  0.00000000000E+00 0.  1.
         13    1    4    4    0    0 -0.49716526357E+02 -0.32730976367E+02  0.38211160066E+01  0.59646045422E+02  0.00000000000E+00 0. -1.
          2    1    1    2  501    0  0.42329380366E+02  0.62228175011E+02  0.72823817917E+00  0.75263886016E+02  0.00000000000E+00 0. -1.
<scales pt_clust_5="13000.00000" pt_clust_6="13000.00000" pt_clust_7="13000.00000" pt_clust_8="13000.00000" pt_clust_9="75.26036"></scales>
<clustering>
<clus scale="   75.260">  1  9  2 -1</clus>
<clus scale="   95.743">  5  6 -1 -1</clus>
<clus scale="   96.016">  7  8 -1 -1</clus>
<clus scale="   96.145">  2  5  1 -1</clus>
<clus scale="   75.260">  1  5  2 -1</clus>
</clustering>
</event>
<event>
 9    1  0.1321469E-005  0.1121480E+03  0.7546771E-02  0.1258820E+00
         21   -1    0    0  501  502  0.00000000000E+00  0.00000000000E+00  0.31243819266E+02  0.31243819266E+02  0.00000000000E+00 0.  1.
          2   -1    0    0  502    0 -0.00000000000E+00 -0.00000000000E+00 -0.77536663324E+03  0.77536663324E+03  0.00000000000E+00 0. -1.
         23    2    1    2    0    0 -0.39972567772E+02 -0.25769265801E+02 -0.32220622586E+03  0.33880892725E+03  0.93342251772E+02 0.  0.
         23    2    1    2    0    0  0.85057670906E+02 -0.33503262885E+01 -0.38159167307E+03  0.40066944692E+03  0.87622877588E+02 0.  0.
        -13    1    4    4    0    0  0.58764781351E+02  0.38902139647E+02 -0.25752459211E+03  0.26699361704E+03  0.00000000000E+00 0.  1.
         13    1    4    4    0    0  0.26292889555E+02 -0.42252465935E+02 -0.12406708096E+03  0.13367582989E+03  0.00000000000E+00 0. -1.
        -13    1    3    3    0    0 -0.74208201211E+01 -0.56920713403E+02 -0.14460365120E+03  0.15558037192E+03  0.00000000000E+00 0.  1.
         13    1    3    3    0    0 -0.32551747651E+02  0.31151447602E+02 -0.17760257465E+03  0.18322855533E+03  0.00000000000E+00 0. -1.
          2    1    1    2  501    0 -0.45085103135E+02  0.29119592089E+02 -0.40324915046E+02  0.67132078335E+02  0.00000000000E+00 0. -1.
<scales pt_clust_5="13000.00000" pt_clust_6="13000.00000" pt_clust_7="13000.00000" pt_clust_8="13000.00000" pt_clust_9="53.67138"></scales>
<clustering>
<clus scale="   53.671">  1  9  2 -1</clus>
<clus scale="   87.623">  5  6 -1 -1</clus>
<clus scale="   93.342">  7  8 -1 -1</clus>
<clus scale="  107.434">  1  5  2 -1</clus>
<clus scale="   53.671">  1  5  2 -1</clus>
</clustering>
</event>
<event>
 9    1  0.1321469E-005  0.9295197E+02  0.7546771E-02  0.1298412E+00
         -2   -1    0    0    0  501 -0.00000000000E+00  0.00000000000E+00  0.15605722183E+03  0.15605722183E+03  0.00000000000E+00 0.  1.
         21   -1    0    0  501  502  0.00000000000E+00 -0.00000000000E+00 -0.12190151503E+03  0.12190151503E+03  0.00000000000E+00 0. -1.
         23    2    1    2    0    0 -0.18989620645E+02  0.61350617398E+01  0.73026706032E+02  0.11943229434E+03  0.92373851616E+02 0.  0.
         23    2    1    2    0    0 -0.50990195495E+01 -0.27685533390E+01  0.23723044717E+02  0.91372810436E+02  0.88048524965E+02 0.  0.
        -11    1    4    4    0    0  0.33023326766E+02 -0.11759799226E+02  0.36076528645E+02  0.50302573568E+02  0.00000000000E+00 0.  1.
         11    1    4    4    0    0 -0.38122346316E+02  0.89912458868E+01 -0.12353483928E+02  0.41070236868E+02  0.00000000000E+00 0. -1.
        -11    1    3    3    0    0  0.26132989327E+02  0.31140903755E+02  0.45293492066E+02  0.60862052556E+02  0.00000000000E+00 0.  1.
         11    1    3    3    0    0 -0.45122609972E+02 -0.25005842015E+02  0.27733213966E+02  0.58570241782E+02  0.00000000000E+00 0. -1.
         -2    1    1    2    0  502  0.24088640194E+02 -0.33665084008E+01 -0.62594043941E+02  0.67153632084E+02  0.00000000000E+00 0.  1.
<scales pt_clust_5="13000.00000" pt_clust_6="13000.00000" pt_clust_7="13000.00000" pt_clust_8="13000.00000" pt_clust_9="24.32275"></scales>
<clustering>
<clus scale="   24.323">  2  9  1 -1</clus>
<clus scale="   88.049">  5  6 -1 -1</clus>
<clus scale="   88.655">  2  5  1 -1</clus>
<clus scale="   92.374">  7  8 -1 -1</clus>
<clus scale="   24.323">  2  5  1 -1</clus>
</clustering>
</event>
<event>
 9    1  0.1321469E-005  0.1035339E+03  0.7546771E-02  0.1273559E+00
         21   -1    0    0  501  502  0.00000000000E+00  0.00000000000E+00  0.30724497026E+02  0.30724497026E+02  0.00000000000E+00 0.  1.
          1   -1    0    0  502    0 -0.00000000000E+00 -0.00000000000E+00 -0.69450567163E+03  0.69450567163E+03  0.00000000000E+00 0. -1.
         23    2    1    2    0    0 -0.33428325813E+02  0.34606787054E+02 -0.35662279299E+03  0.37052555303E+03  0.88285255202E+02 0.  0.
         23    2    1    2    0    0  0.73858000461E+02 -0.97354456910E+01 -0.14625059668E+03  0.18694151640E+03  0.89488046065E+02 0.  0.
        -13    1    4    4    0    0 -0.63156952747E+01  0.27288066980E+02 -0.38916380173E+02  0.47948005715E+02  0.00000000000E+00 0. -1.
         13    1    4    4    0    0  0.80173695736E+02 -0.37023512671E+02 -0.10733421651E+03  0.13899351069E+03  0.00000000000E+00 0.  1.
        -13    1    3    3    0    0  0.29984759280E+02  0.12914335434E+02 -0.14082910372E+03  0.14456383470E+03  0.00000000000E+00 0.  1.
         13    1    3    3    0    0 -0.63413085093E+02  0.21692451621E+02 -0.21579368927E+03  0.22596171833E+03  0.00000000000E+00 0. -1.
          1    1    1    2  501    0 -0.40429674648E+02 -0.24871341363E+02 -0.16090778492E+03  0.16776309923E+03  0.00000000000E+00 0. -1.
<scales pt_clust_5="13000.00000" pt_clust_6="13000.00000" pt_clust_7="13000.00000" pt_clust_8="13000.00000" pt_clust_9="47.46730"></scales>
<clustering>
<clus scale="   47.467">  1  9  2 -1</clus>
<clus scale="   88.285">  7  8 -1 -1</clus>
<clus scale="   89.488">  5  6 -1 -1</clus>
<clus scale="  102.496">  2  7  1 -1</clus>
<clus scale="   47.467">  1  5  2 -1</clus>
</clustering>
</event>
<event>
 9    1  0.1321469E-005  0.9434437E+02  0.7546771E-02  0.1293191E+00
         21   -1    0    0  501  502  0.00000000000E+00  0.00000000000E+00  0.11938952349E+04  0.11938952349E+04  0.00000000000E+00 0. -1.
          2   -1    0    0  502    0 -0.00000000000E+00 -0.00000000000E+00 -0.24557552672E+02  0.24557552672E+02  0.00000000000E+00 0. -1.
         23    2    1    2    0    0  0.53192253506E+02  0.14358859619E+01  0.16892309529E+03  0.19868207629E+03  0.90044865017E+02 0.  0.
         23    2    1    2    0    0  0.40695899144E+02  0.78309401694E+01  0.41865286016E+03  0.43040871215E+03  0.90906338298E+02 0.  0.
        -11    1    3    3    0    0  0.77002987686E+02 -0.33664988849E+01  0.10463933029E+03  0.12996223632E+03  0.00000000000E+00 0. -1.
         11    1    3    3    0    0 -0.23810734180E+02  0.48023848469E+01  0.64283765003E+02  0.68719839969E+02  0.00000000000E+00 0.  1.
        -13    1    4    4    0    0  0.60886349516E+02 -0.12878336961E+02  0.35604472442E+03  0.36144272701E+03  0.00000000000E+00 0. -1.
         13    1    4    4    0    0 -0.20190450372E+02  0.20709277131E+02  0.62608135737E+02  0.68965985138E+02  0.00000000000E+00 0.  1.
          2    1    1    2  501    0 -0.93888152650E+02 -0.92668261313E+01  0.58176172675E+03  0.58936199910E+03  0.00000000000E+00 0. -1.
<scales pt_clust_5="13000.00000" pt_clust_6="13000.00000" pt_clust_7="13000.00000" pt_clust_8="13000.00000" pt_clust_9="94.34437"></scales>
<clustering>
<clus scale="   90.045">  5  6 -1 -1</clus>
<clus scale="   90.906">  7  8 -1 -1</clus>
<clus scale="   94.344">  1  9  2 -1</clus>
<clus scale="   93.414">  2  5  1 -1</clus>
<clus scale="   94.344">  1  5  2 -1</clus>
</clustering>
</event>
<event>
 9    1  0.1321469E-005  0.2556119E+03  0.7546771E-02  0.1110375E+00
         -4   -1    0    0    0  501 -0.00000000000E+00  0.00000000000E+00  0.42223597966E+03  0.42223597966E+03  0.00000000000E+00 0.  1.
         21   -1    0    0  501  502  0.00000000000E+00 -0.00000000000E+00 -0.27889017422E+03  0.27889017422E+03  0.00000000000E+00 0.  1.
         23    2    1    2    0    0  0.25118326711E+03  0.88636498680E+01  0.27574979526E+03  0.38407955596E+03  0.91145804958E+02 0.  0.
         23    2    1    2    0    0 -0.18641430536E+03  0.26890973095E+02 -0.90368364561E+02  0.23195602699E+03  0.10081537318E+03 0.  0.
        -13    1    3    3    0    0  0.55837890335E+02  0.41137394678E+02  0.72766434204E+02  0.10052417214E+03  0.00000000000E+00 0. -1.
         13    1    3    3    0    0  0.19534537677E+03 -0.32273744810E+02  0.20298336105E+03  0.28355538382E+03  0.00000000000E+00 0.  1.
        -13    1    4    4    0    0 -0.10107687233E+03  0.55850703068E+02 -0.81623995403E+02  0.14141538735E+03  0.00000000000E+00 0.  1.
         13    1    4    4    0    0 -0.85337433025E+02 -0.28959729974E+02 -0.87443691576E+01  0.90540639645E+02  0.00000000000E+00 0. -1.
         -4    1    1    2    0  502 -0.64768961751E+02 -0.35754622963E+02 -0.42035625249E+02  0.85090570920E+02  0.00000000000E+00 0.  1.
<scales pt_clust_5="13000.00000" pt_clust_6="13000.00000" pt_clust_7="13000.00000" pt_clust_8="13000.00000" pt_clust_9="73.98251"></scales>
<clustering>
<clus scale="   73.983">  2  9  1 -1</clus>
<clus scale="   91.146">  5  6 -1 -1</clus>
<clus scale="  100.815">  7  8 -1 -1</clus>
<clus scale="  251.955">  1  5  2 -1</clus>
<clus scale="   73.983">  2  5  1 -1</clus>
</clustering>
</event>
<event>
 9    1  0.1321469E-005  0.1564601E+03  0.7546771E-02  0.1193501E+00
          1   -1    0    0  502    0 -0.00000000000E+00  0.00000000000E+00  0.35566439551E+03  0.35566439551E+03  0.00000000000E+00 0. -1.
         21   -1    0    0  501  502  0.00000000000E+00 -0.00000000000E+00 -0.26843033208E+03  0.26843033208E+03  0.00000000000E+00 0. -1.
         23    2    1    2    0    0 -0.67252339752E+02 -0.10098924838E+03  0.29311133975E+03  0.33016033618E+03  0.91487073432E+02 0.  0.
         23    2    1    2    0    0  0.88909809844E+02  0.12079687006E+03 -0.15896820488E+03  0.23860041568E+03  0.95720583454E+02 0.  0.
        -13    1    3    3    0    0 -0.30310490567E+02 -0.10286409077E+03  0.16475610049E+03  0.19658158525E+03  0.00000000000E+00 0. -1.
         13    1    3    3    0    0 -0.36941849185E+02  0.18748423967E+01  0.12835523925E+03  0.13357875093E+03  0.00000000000E+00 0.  1.
        -13    1    4    4    0    0  0.80622383951E+02  0.43897680650E+02 -0.12252799996E+03  0.15310155432E+03  0.00000000000E+00 0.  1.
         13    1    4    4    0    0  0.82874258936E+01  0.76899189408E+02 -0.36440204923E+02  0.85498861362E+02  0.00000000000E+00 0. -1.
          1    1    1    2  501    0 -0.21657470092E+02 -0.19807621680E+02 -0.46909071439E+02  0.55333975735E+02  0.00000000000E+00 0. -1.
<scales pt_clust_5="13000.00000" pt_clust_6="13000.00000" pt_clust_7="13000.00000" pt_clust_8="13000.00000" pt_clust_9="29.34941"></scales>
<clustering>
<clus scale="   29.349">  2  9  1 -1</clus>
<clus scale="   91.487">  5  6 -1 -1</clus>
<clus scale="   95.721">  7  8 -1 -1</clus>
<clus scale="  153.907">  1  5  2 -1</clus>
<clus scale="   29.349">  2  5  1 -1</clus>
</clustering>
</event>
<event>
 9    1  0.1321469E-005  0.1015180E+03  0.7546771E-02  0.1277272E+00
         21   -1    0    0  501  502  0.00000000000E+00  0.00000000000E+00  0.44059535484E+03  0.44059535484E+03  0.00000000000E+00 0. -1.
          1   -1    0    0  502    0 -0.00000000000E+00 -0.00000000000E+00 -0.80749816080E+02  0.80749816080E+02  0.00000000000E+00 0. -1.
         23    2    1    2    0    0 -0.42629318949E+02 -0.56998828011E+02  0.19798710124E+02  0.11802538825E+03  0.92042805910E+02 0.  0.
         23    2    1    2    0    0  0.16157183145E+01  0.11328443685E+02  0.47615390360E+02  0.10451542271E+03  0.92332572814E+02 0.  0.
        -13    1    3    3    0    0 -0.40187463924E+02  0.15991618582E+02  0.93360863179E+01  0.44248464710E+02  0.00000000000E+00 0.  1.
         13    1    3    3    0    0 -0.24418550253E+01 -0.72990446593E+02  0.10462623806E+02  0.73776923538E+02  0.00000000000E+00 0. -1.
        -13    1    4    4    0    0  0.42638359353E+01  0.37976629379E+02  0.62960726106E+02  0.73650917901E+02  0.00000000000E+00 0.  1.
         13    1    4    4    0    0 -0.26481176208E+01 -0.26648185694E+02 -0.15345335747E+02  0.30864504806E+02  0.00000000000E+00 0. -1.
          1    1    1    2  501    0  0.41013600634E+02  0.45670384327E+02  0.29243143827E+03  0.29880435996E+03  0.00000000000E+00 0. -1.
<scales pt_clust_5="13000.00000" pt_clust_6="13000.00000" pt_clust_7="13000.00000" pt_clust_8="13000.00000" pt_clust_9="61.38322"></scales>
<clustering>
<clus scale="   61.383">  1  9  2 -1</clus>
<clus scale="   92.043">  5  6 -1 -1</clus>
<clus scale="   92.333">  7  8 -1 -1</clus>
<clus scale="  101.255">  2  5  1 -1</clus>
<clus scale="   61.383">  1  5  2 -1</clus>
</clustering>
</event>
<event>
 9    1  0.1321469E-005  0.1082670E+03  0.7546771E-02  0.1266299E+00
         21   -1    0    0  501  502  0.00000000000E+00  0.00000000000E+00  0.17625289244E+03  0.17625289244E+03  0.00000000000E+00 0. -1.
         -1   -1    0    0    0  501 -0.00000000000E+00 -0.00000000000E+00 -0.26637518057E+03  0.26637518057E+03  0.00000000000E+00 0.  1.
         23    2    1    2    0    0 -0.17170320961E+02 -0.47138128295E+02 -0.13251156251E+03  0.16866677127E+03  0.91500505295E+02 0.  0.
         23    2    1    2    0    0  0.39166164856E+02  0.58375412098E+02 -0.87949464414E+02  0.14130279079E+03  0.85379700093E+02 0.  0.
        -11    1    4    4    0    0  0.20418293499E+02 -0.56041265016E+01 -0.68730718351E+02  0.71918179818E+02  0.00000000000E+00 0.  1.
         11    1    4    4    0    0  0.18747871357E+02  0.63979538600E+02 -0.19218746062E+02  0.69384610975E+02  0.00000000000E+00 0. -1.
        -11    1    3    3    0    0 -0.34614257752E+02 -0.12736690078E+02 -0.12372733191E+03  0.12910779517E+03  0.00000000000E+00 0.  1.
         11    1    3    3    0    0  0.17443936791E+02 -0.34401438217E+02 -0.87842306034E+01  0.39558976092E+02  0.00000000000E+00 0. -1.
         -1    1    1    2    0  502 -0.21995843895E+02 -0.11237283804E+02  0.13033873880E+03  0.13265851095E+03  0.00000000000E+00 0.  1.
<scales pt_clust_5="13000.00000" pt_clust_6="13000.00000" pt_clust_7="13000.00000" pt_clust_8="13000.00000" pt_clust_9="24.70007"></scales>
<clustering>
<clus scale="   24.700">  1  9  2 -1</clus>
<clus scale="   85.380">  5  6 -1 -1</clus>
<clus scale="   91.501">  7  8 -1 -1</clus>
<clus scale="  103.146">  1  5  2 -1</clus>
<clus scale="   24.700">  1  5  2 -1</clus>
</clustering>
</event>
<event>
 9    1  0.1321469E-005  0.1300672E+03  0.7546771E-02  0.1227666E+00
         21   -1    0    0  501  502  0.00000000000E+00  0.00000000000E+00  0.64013878488E+02  0.64013878488E+02  0.00000000000E+00 0.  1.
          4   -1    0    0  502    0 -0.00000000000E+00 -0.00000000000E+00 -0.35571858699E+03  0.35571858699E+03  0.00000000000E+00 0. -1.
         23    2    1    2    0    0 -0.13013390053E+02 -0.78512360787E+02 -0.93600979999E+02  0.15202076465E+03  0.89530052560E+02 0.  0.
         23    2    1    2    0    0  0.10330453623E+02  0.10773508315E+03 -0.12374589392E+03  0.18777264145E+03  0.90730106366E+02 0.  0.
        -11    1    4    4    0    0 -0.98332184608E+01  0.11798766501E+03 -0.99996828085E+02  0.15497466537E+03  0.00000000000E+00 0.  1.
         11    1    4    4    0    0  0.20163672084E+02 -0.10252581861E+02 -0.23749065833E+02  0.32797976076E+02  0.00000000000E+00 0. -1.
        -11    1    3    3    0    0 -0.25741620820E+02 -0.95285793352E+02 -0.78431593029E+02  0.12606953733E+03  0.00000000000E+00 0. -1.
         11    1    3    3    0    0  0.12728230767E+02  0.16773432566E+02 -0.15169386971E+02  0.25951227323E+02  0.00000000000E+00 0.  1.
          4    1    1    2  501    0  0.26829364299E+01 -0.29222722365E+02 -0.74357834589E+02  0.79939059383E+02  0.00000000000E+00 0. -1.
<scales pt_clust_5="13000.00000" pt_clust_6="13000.00000" pt_clust_7="13000.00000" pt_clust_8="13000.00000" pt_clust_9="29.34564"></scales>
<clustering>
<clus scale="   29.346">  1  9  2 -1</clus>
<clus scale="   89.530">  7  8 -1 -1</clus>
<clus scale="   90.730">  5  6 -1 -1</clus>
<clus scale="  129.233">  2  7  1 -1</clus>
<clus scale="   29.346">  1  5  2 -1</clus>
</clustering>
</event>
<event>
 9    1  0.1321469E-005  0.1386876E+03  0.7546771E-02  0.1217152E+00
         -4   -1    0    0    0  501 -0.00000000000E+00  0.00000000000E+00  0.16116263307E+03  0.16116263307E+03  0.00000000000E+00 0.  1.
         21   -1    0    0  501  502  0.00000000000E+00 -0.00000000000E+00 -0.41483817610E+03  0.41483817610E+03  0.00000000000E+00 0.  1.
         23    2    1    2    0    0  0.45159812125E+02  0.61990710771E+02  0.29584316921E+02  0.12452559616E+03  0.93536813284E+02 0.  0.
         23    2    1    2    0    0 -0.10751544536E+03 -0.16318271748E+03 -0.10551121243E+03  0.23764670949E+03  0.84588251596E+02 0.  0.
        -11    1    3    3    0    0 -0.12231318222E+02  0.56225451898E+02  0.33728013693E+02  0.66696967654E+02  0.00000000000E+00 0.  1.
         11    1    3    3    0    0  0.57391130348E+02  0.57652588732E+01 -0.41436967723E+01  0.57828628510E+02  0.00000000000E+00 0. -1.
        -11    1    4    4    0    0 -0.13687430205E+02 -0.80548817505E+02 -0.14448159876E+02  0.82971121909E+02  0.00000000000E+00 0. -1.
         11    1    4    4    0    0 -0.93828015157E+02 -0.82633899978E+02 -0.91063052558E+02  0.15467558759E+03  0.00000000000E+00 0.  1.
         -4    1    1    2    0  502  0.62355633236E+02  0.10119200671E+03 -0.17774864752E+03  0.21382850351E+03  0.00000000000E+00 0.  1.
<scales pt_clust_5="13000.00000" pt_clust_6="13000.00000" pt_clust_7="13000.00000" pt_clust_8="13000.00000" pt_clust_9="118.86146"></scales>
<clustering>
<clus scale="   84.588">  7  8 -1 -1</clus>
<clus scale="   93.537">  5  6 -1 -1</clus>
<clus scale="  118.861">  2  9  1 -1</clus>
<clus scale="  132.817">  2  7  1 -1</clus>
<clus scale="  118.861">  2  5  1 -1</clus>
</clustering>
</event>
<event>
 9    1  0.1321469E-005  0.1095278E+03  0.7546771E-02  0.1261557E+00
         21   -1    0    0  501  502  0.00000000000E+00  0.00000000000E+00  0.81961240537E+02  0.81961240537E+02  0.00000000000E+00 0.  1.
          1   -1    0    0  502    0 -0.00000000000E+00 -0.00000000000E+00 -0.39930358222E+03  0.39930358222E+03  0.00000000000E+00 0. -1.
         23    2    1    2    0    0 -0.37154080642E+02 -0.50390251796E+02 -0.33637488061E+03  0.35416309592E+03  0.91454004954E+02 0.  0.
         23    2    1    2    0    0  0.31254404964E+02  0.30763516910E+02  0.41331201347E+01  0.10176385844E+03  0.91736407166E+02 0.  0.
        -11    1    4    4    0    0 -0.28971814167E+02 -0.47384250115E+01 -0.88405507402E+01  0.30658995827E+02  0.00000000000E+00 0.  1.
         11    1    4    4    0    0  0.60226219131E+02  0.35501941922E+02  0.12973670875E+02  0.71104862611E+02  0.00000000000E+00 0. -1.
        -13    1    3    3    0    0 -0.11836412150E+02 -0.71701873623E+02 -0.27493607132E+03  0.28437844969E+03  0.00000000000E+00 0. -1.
         13    1    3    3    0    0 -0.25317668492E+02  0.21311621828E+02 -0.61438809281E+02  0.69784646224E+02  0.00000000000E+00 0.  1.
          1    1    1    2  501    0  0.58996756776E+01  0.19626734886E+02  0.14899418783E+02  0.25337868408E+02  0.00000000000E+00 0. -1.
<scales pt_clust_5="13000.00000" pt_clust_6="13000.00000" pt_clust_7="13000.00000" pt_clust_8="13000.00000" pt_clust_9="20.49426"></scales>
<clustering>
<clus scale="   20.494">  1  9  2 -1</clus>
<clus scale="   91.454">  7  8 -1 -1</clus>
<clus scale="   91.736">  5  6 -1 -1</clus>
<clus scale="  109.291">  2  7  1 -1</clus>
<clus scale="   20.494">  1  5  2 -1</clus>
</clustering>
</event>
<event>
 9    1  0.1321469E-005  0.9675159E+02  0.7546771E-02  0.1288130E+00
         21   -1    0    0  501  502  0.00000000000E+00  0.00000000000E+00  0.16878693219E+03  0.16878693219E+03  0.00000000000E+00 0.  1.
         -1   -1    0    0    0  501 -0.00000000000E+00 -0.00000000000E+00 -0.43287062183E+03  0.43287062183E+03  0.00000000000E+00 0.  1.
         23    2    1    2    0    0  0.33553601480E+02  0.69884528852E+01 -0.37156701766E+03  0.38400660309E+03  0.90688146710E+02 0.  0.
         23    2    1    2    0    0 -0.10165293196E+02 -0.64025017610E+02  0.22103782593E+02  0.11234259677E+03  0.89049120026E+02 0.  0.
        -11    1    4    4    0    0 -0.27783948897E+02 -0.51880476544E+02 -0.22392783357E+02  0.62967995119E+02  0.00000000000E+00 0.  1.
         11    1    4    4    0    0  0.17618655702E+02 -0.12144541066E+02  0.44496565950E+02  0.49374601647E+02  0.00000000000E+00 0. -1.
        -11    1    3    3    0    0 -0.30935724556E+02 -0.32956051316E+01 -0.10179457159E+03  0.10644254259E+03  0.00000000000E+00 0. -1.
         11    1    3    3    0    0  0.64489326036E+02  0.10284058017E+02 -0.26977244607E+03  0.27756406050E+03  0.00000000000E+00 0.  1.
         -1    1    1    2    0  502 -0.23388308284E+02  0.57036564724E+02  0.85379545429E+02  0.10530835417E+03  0.00000000000E+00 0.  1.
<scales pt_clust_5="13000.00000" pt_clust_6="13000.00000" pt_clust_7="13000.00000" pt_clust_8="13000.00000" pt_clust_9="61.64562"></scales>
<clustering>
<clus scale="   61.646">  1  9  2 -1</clus>
<clus scale="   89.049">  5  6 -1 -1</clus>
<clus scale="   90.688">  7  8 -1 -1</clus>
<clus scale="   95.217">  1  5  2 -1</clus>
<clus scale="   61.646">  1  5  2 -1</clus>
</clustering>
</event>
<event>
 9    1  0.1321469E-005  0.1198564E+03  0.7546771E-02  0.1243976E+00
         21   -1    0    0  501  502  0.00000000000E+00  0.00000000000E+00  0.39803362303E+03  0.39803362303E+03  0.00000000000E+00 0.  1.
          3   -1    0    0  502    0 -0.00000000000E+00 -0.00000000000E+00 -0.62459758348E+02  0.62459758348E+02  0.00000000000E+00 0. -1.
         23    2    1    2    0    0  0.50961904480E+02  0.75733723007E+02  0.49953078447E+02  0.13762493527E+03  0.90069974201E+02 0.  0.
         23    2    1    2    0    0 -0.31851593302E+02 -0.36216084406E+02  0.17085768863E+03  0.19999690210E+03  0.92088448364E+02 0.  0.
        -13    1    4    4    0    0 -0.24357724315E+02 -0.64407846615E+02  0.14693930104E+03  0.16227392775E+03  0.00000000000E+00 0.  1.
         13    1    4    4    0    0 -0.74938689868E+01  0.28191762209E+02  0.23918387591E+02  0.37722974350E+02  0.00000000000E+00 0. -1.
        -13    1    3    3    0    0  0.71500057796E+02  0.68098101441E+02  0.57725227016E+02  0.11437574707E+03  0.00000000000E+00 0.  1.
         13    1    3    3    0    0 -0.20538153316E+02  0.76356215658E+01 -0.77721485688E+01  0.23249188195E+02  0.00000000000E+00 0. -1.
          3    1    1    2  501    0 -0.19110311177E+02 -0.39517638601E+02  0.11476309761E+03  0.12287154401E+03  0.00000000000E+00 0. -1.
<scales pt_clust_5="13000.00000" pt_clust_6="13000.00000" pt_clust_7="13000.00000" pt_clust_8="13000.00000" pt_clust_9="43.89587"></scales>
<clustering>
<clus scale="   43.896">  1  9  2 -1</clus>
<clus scale="   90.070">  7  8 -1 -1</clus>
<clus scale="   92.088">  5  6 -1 -1</clus>
<clus scale="  118.313">  2  7  1 -1</clus>
<clus scale="   43.896">  1  5  2 -1</clus>
</clustering>
</event>
<event>
 9    1  0.1321469E-005  0.2510971E+03  0.7546771E-02  0.1113000E+00
          1   -1    0    0  502    0 -0.00000000000E+00  0.00000000000E+00  0.23218232627E+04  0.23218232627E+04  0.00000000000E+00 0. -1.
         21   -1    0    0  501  502  0.00000000000E+00 -0.00000000000E+00 -0.78602661925E+02  0.78602661925E+02  0.00000000000E+00 0. -1.
         23    2    1    2    0    0  0.47954705902E+02  0.21352802264E+03  0.12538382531E+04  0.12760258803E+04  0.90762393495E+02 0.  0.
         23    2    1    2    0    0 -0.51539626466E+02 -0.24582682843E+03  0.10343922413E+04  0.10688846857E+04  0.97262530027E+02 0.  0.
        -11    1    3    3    0    0 -0.16037656581E+02  0.13347300198E+03  0.71158102964E+03  0.72416835779E+03  0.00000000000E+00 0. -1.
         11    1    3    3    0    0  0.63992362484E+02  0.80055020662E+02  0.54225722345E+03  0.55185752253E+03  0.00000000000E+00 0.  1.
        -11    1    4    4    0    0 -0.11704301792E+02 -0.22058204342E+03  0.88915569436E+03  0.91618299339E+03  0.00000000000E+00 0. -1.
         11    1    4    4    0    0 -0.39835324674E+02 -0.25244785012E+02  0.14523654697E+03  0.15270169232E+03  0.00000000000E+00 0.  1.
          1    1    1    2  501    0  0.35849205636E+01  0.32298805795E+02 -0.45009893657E+02  0.55515358580E+02  0.00000000000E+00 0. -1.
<scales pt_clust_5="13000.00000" pt_clust_6="13000.00000" pt_clust_7="13000.00000" pt_clust_8="13000.00000" pt_clust_9="32.49715"></scales>
<clustering>
<clus scale="   32.497">  2  9  1 -1</clus>
<clus scale="   90.762">  5  6 -1 -1</clus>
<clus scale="   97.263">  7  8 -1 -1</clus>
<clus scale="  248.652">  1  5  2 -1</clus>
<clus scale="   32.497">  2  5  1 -1</clus>
</clustering>
</event>
<event>
 9    1  0.1321469E-005  0.1078230E+03  0.7546771E-02  0.1268324E+00
         21   -1    0    0  501  502  0.00000000000E+00  0.00000000000E+00  0.24726401827E+03  0.24726401827E+03  0.00000000000E+00 0. -1.
          3   -1    0    0  502    0 -0.00000000000E+00 -0.00000000000E+00 -0.52965998205E+03  0.52965998205E+03  0.00000000000E+00 0. -1.
         23    2    1    2    0    0  0.12942810675E+02 -0.54768137011E+02 -0.46550846616E+03  0.47649292727E+03  0.84736724565E+02 0.  0.
         23    2    1    2    0    0 -0.43862172397E+02  0.21045938020E+02 -0.63566158252E+01  0.10551637277E+03  0.93415612630E+02 0.  0.
        -11    1    3    3    0    0  0.34469748585E+02  0.79819916028E+01 -0.16243517044E+03  0.16624397840E+03  0.00000000000E+00 0.  1.
         11    1    3    3    0    0 -0.21526937910E+02 -0.62750128614E+02 -0.30307329572E+03  0.31024894887E+03  0.00000000000E+00 0. -1.
        -13    1    4    4    0    0 -0.55957227089E+02 -0.86319866086E+01 -0.31491483414E+02  0.64787622150E+02  0.00000000000E+00 0. -1.
         13    1    4    4    0    0  0.12095054691E+02  0.29677924629E+02  0.25134867589E+02  0.40728750619E+02  0.00000000000E+00 0.  1.
          3    1    1    2  501    0  0.30919361723E+02  0.33722198991E+02  0.18946911820E+03  0.19491470029E+03  0.00000000000E+00 0. -1.
<scales pt_clust_5="13000.00000" pt_clust_6="13000.00000" pt_clust_7="13000.00000" pt_clust_8="13000.00000" pt_clust_9="45.75143"></scales>
<clustering>
<clus scale="   45.751">  1  9  2 -1</clus>
<clus scale="   84.737">  5  6 -1 -1</clus>
<clus scale="   93.416">  7  8 -1 -1</clus>
<clus scale="  100.397">  2  5  1 -1</clus>
<clus scale="   45.751">  1  5  2 -1</clus>
</clustering>
</event>
<event>
 9    1  0.1321469E-005  0.1141369E+03  0.7546771E-02  0.1254331E+00
          2   -1    0    0  502    0 -0.00000000000E+00  0.00000000000E+00  0.27274435344E+03  0.27274435344E+03  0.00000000000E+00 0. -1.
         21   -1    0    0  501  502  0.00000000000E+00 -0.00000000000E+00 -0.90941891068E+02  0.90941891068E+02  0.00000000000E+00 0.  1.
         23    2    1    2    0    0 -0.46357630402E+02  0.10305271984E+02  0.87859188403E+02  0.13478615153E+03  0.90514314512E+02 0.  0.
         23    2    1    2    0    0  0.89543830288E+02  0.28660544592E+02  0.10541391149E+03  0.16961300966E+03  0.93898647230E+02 0.  0.
        -11    1    4    4    0    0  0.81927746483E+02  0.16155221024E+01  0.11385333684E+03  0.14027597038E+03  0.00000000000E+00 0. -1.
         11    1    4    4    0    0  0.76160838053E+01  0.27045022490E+02 -0.84394253457E+01  0.29337039288E+02  0.00000000000E+00 0.  1.
        -11    1    3    3    0    0  0.36336156550E+01  0.39832442566E+02  0.55209075215E+02  0.68175278727E+02  0.00000000000E+00 0.  1.
         11    1    3    3    0    0 -0.49991246057E+02 -0.29527170583E+02  0.32650113188E+02  0.66610872807E+02  0.00000000000E+00 0. -1.
          2    1    1    2  501    0 -0.43186199886E+02 -0.38965816576E+02 -0.11470637526E+02  0.59287083309E+02  0.00000000000E+00 0. -1.
<scales pt_clust_5="13000.00000" pt_clust_6="13000.00000" pt_clust_7="13000.00000" pt_clust_8="13000.00000" pt_clust_9="58.16685"></scales>
<clustering>
<clus scale="   58.167">  2  9  1 -1</clus>
<clus scale="   90.514">  7  8 -1 -1</clus>
<clus scale="   93.899">  5  6 -1 -1</clus>
<clus scale="  111.369">  1  7  2 -1</clus>
<clus scale="   58.167">  2  5  1 -1</clus>
</clustering>
</event>
<event>
 9    1  0.1321469E-005  0.2438363E+03  0.7546771E-02  0.1117651E+00
          1   -1    0    0  502    0 -0.00000000000E+00  0.00000000000E+00  0.13857191322E+04  0.13857191322E+04  0.00000000000E+00 0. -1.
         21   -1    0    0  501  502  0.00000000000E+00 -0.00000000000E+00 -0.74221797785E+02  0.74221797785E+02  0.00000000000E+00 0. -1.
         23    2    1    2    0    0 -0.21130551102E+03  0.56845629021E+02  0.10355302033E+04  0.10628737316E+04  0.97449078197E+02 0.  0.
         23    2    1    2    0    0  0.23057226165E+03 -0.74472453608E+02  0.25659635893E+03  0.36455351757E+03  0.91366632693E+02 0.  0.
        -11    1    3    3    0    0 -0.23672540352E+02 -0.14020899202E+02  0.49322611911E+02  0.56477383322E+02  0.00000000000E+00 0.  1.
         11    1    3    3    0    0 -0.18763297067E+03  0.70866528223E+02  0.98620759135E+03  0.10063963482E+04  0.00000000000E+00 0. -1.
        -11    1    4    4    0    0  0.89639725018E+02 -0.73703584048E+02  0.93722432526E+02  0.14916900805E+03  0.00000000000E+00 0.  1.
         11    1    4    4    0    0  0.14093253663E+03 -0.76886956052E+00  0.16287392640E+03  0.21538450953E+03  0.00000000000E+00 0. -1.
          1    1    1    2  501    0 -0.19266750634E+02  0.17626824587E+02  0.19370772184E+02  0.32513680813E+02  0.00000000000E+00 0. -1.
<scales pt_clust_5="13000.00000" pt_clust_6="13000.00000" pt_clust_7="13000.00000" pt_clust_8="13000.00000" pt_clust_9="26.11346"></scales>
<clustering>
<clus scale="   26.113">  2  9  1 -1</clus>
<clus scale="   91.367">  7  8 -1 -1</clus>
<clus scale="   97.449">  5  6 -1 -1</clus>
<clus scale="  241.470">  2  7  1 -1</clus>
<clus scale="   26.113">  2  5  1 -1</clus>
</clustering>
</event>
<event>
 9    1  0.1321469E-005  0.1058969E+03  0.7546771E-02  0.1268832E+00
         21   -1    0    0  501  502  0.00000000000E+00  0.00000000000E+00  0.12883327046E+03  0.12883327046E+03  0.00000000000E+00 0.  1.
         -3   -1    0    0    0  501 -0.00000000000E+00 -0.00000000000E+00 -0.31940418078E+03  0.31940418078E+03  0.00000000000E+00 0.  1.
         23    2    1    2    0    0 -0.35826544405E+02 -0.30478664274E+02 -0.22408383439E+03  0.24637834407E+03  0.90973805754E+02 0.  0.
         23    2    1    2    0    0  0.93350698933E+02  0.45452814981E+02  0.91377032140E+01  0.13761422461E+03  0.89854692781E+02 0.  0.
        -13    1    3    3    0    0 -0.65894826060E+02 -0.29809119214E+02 -0.15632916956E+03  0.17224842799E+03  0.00000000000E+00 0.  1.
         13    1    3    3    0    0  0.30068281655E+02 -0.66954506035E+00 -0.67754664833E+02  0.74129916086E+02  0.00000000000E+00 0. -1.
        -13    1    4    4    0    0  0.29883619515E+02  0.52157653558E+02  0.34071218405E+02  0.69096305716E+02  0.00000000000E+00 0. -1.
         13    1    4    4    0    0  0.63467079417E+02 -0.67048385762E+01 -0.24933515191E+02  0.68517918897E+02  0.00000000000E+00 0.  1.
         -3    1    1    2    0  502 -0.57524154527E+02 -0.14974150707E+02  0.24375220850E+02  0.64244882558E+02  0.00000000000E+00 0.  1.
<scales pt_clust_5="13000.00000" pt_clust_6="13000.00000" pt_clust_7="13000.00000" pt_clust_8="13000.00000" pt_clust_9="59.44118"></scales>
<clustering>
<clus scale="   59.441">  1  9  2 -1</clus>
<clus scale="   89.855">  7  8 -1 -1</clus>
<clus scale="   90.974">  5  6 -1 -1</clus>
<clus scale="  104.937">  1  7  2 -1</clus>
<clus scale="   59.441">  1  5  2 -1</clus>
</clustering>
</event>
<event>
 9    1  0.1321469E-005  0.1085767E+03  0.7546771E-02  0.1263389E+00
         21   -1    0    0  501  502  0.00000000000E+00  0.00000000000E+00  0.13624447419E+03  0.13624447419E+03  0.00000000000E+00 0.  1.
          2   -1    0    0  502    0 -0.00000000000E+00 -0.00000000000E+00 -0.22777281365E+03  0.22777281365E+03  0.00000000000E+00 0. -1.
         23    2    1    2    0    0 -0.57957733607E+02  0.25412744458E+01 -0.17243109019E+03  0.20313945260E+03  0.90374771815E+02 0.  0.
         23    2    1    2    0    0  0.67472105970E+02 -0.20790383183E+02  0.54122305387E+02  0.12710291104E+03  0.90781060461E+02 0.  0.
        -11    1    4    4    0    0 -0.84229355690E+01  0.18854766709E+02  0.32969543719E+02  0.38902941847E+02  0.00000000000E+00 0.  1.
         11    1    4    4    0    0  0.75895041539E+02 -0.39645149892E+02  0.21152761668E+02  0.88199969197E+02  0.00000000000E+00 0. -1.
        -11    1    3    3    0    0 -0.68839453219E+02 -0.28415644831E+02 -0.11548571905E+03  0.13741641276E+03  0.00000000000E+00 0.  1.
         11    1    3    3    0    0  0.10881719612E+02  0.30956919276E+02 -0.56945371132E+02  0.65723039842E+02  0.00000000000E+00 0. -1.
          2    1    1    2  501    0 -0.95143723634E+01  0.18249108738E+02  0.26780445344E+02  0.33774924190E+02  0.00000000000E+00 0. -1.
<scales pt_clust_5="13000.00000" pt_clust_6="13000.00000" pt_clust_7="13000.00000" pt_clust_8="13000.00000" pt_clust_9="20.58041"></scales>
<clustering>
<clus scale="   20.580">  1  9  2 -1</clus>
<clus scale="   90.375">  7  8 -1 -1</clus>
<clus scale="   90.781">  5  6 -1 -1</clus>
<clus scale="  108.237">  2  7  1 -1</clus>
<clus scale="   20.580">  1  5  2 -1</clus>
</clustering>
</event>
<event>
 9    1  0.1321469E-005  0.1002157E+03  0.7546771E-02  0.1280222E+00
         -1   -1    0    0    0  501 -0.00000000000E+00  0.00000000000E+00  0.84737683066E+02  0.84737683066E+02  0.00000000000E+00 0.  1.
         21   -1    0    0  501  502  0.00000000000E+00 -0.00000000000E+00 -0.23147148387E+03  0.23147148387E+03  0.00000000000E+00 0. -1.
         23    2    1    2    0    0  0.17102836676E+02  0.12512130378E+02 -0.33323571541E+02  0.98700781488E+02  0.90456196123E+02 0.  0.
         23    2    1    2    0    0 -0.67792924508E+02 -0.98513310414E+01 -0.25011244056E+02  0.11557239846E+03  0.89657613286E+02 0.  0.
        -11    1    3    3    0    0  0.37394653514E+02 -0.28072583807E+02 -0.23252458402E+02  0.52221709037E+02  0.00000000000E+00 0.  1.
         11    1    3    3    0    0 -0.20291816838E+02  0.40584714185E+02 -0.10071113140E+02  0.46479072451E+02  0.00000000000E+00 0. -1.
        -13    1    4    4    0    0 -0.95966339346E+01  0.33316083855E+02  0.85643418560E+01  0.35712809715E+02  0.00000000000E+00 0.  1.
         13    1    4    4    0    0 -0.58196290573E+02 -0.43167414897E+02 -0.33575585912E+02  0.79859588746E+02  0.00000000000E+00 0. -1.
         -1    1    1    2    0  502  0.50690087831E+02 -0.26607993367E+01 -0.88398985210E+02  0.10193598699E+03  0.00000000000E+00 0.  1.
<scales pt_clust_5="13000.00000" pt_clust_6="13000.00000" pt_clust_7="13000.00000" pt_clust_8="13000.00000" pt_clust_9="50.75987"></scales>
<clustering>
<clus scale="   50.760">  2  9  1 -1</clus>
<clus scale="   89.658">  7  8 -1 -1</clus>
<clus scale="   90.456">  5  6 -1 -1</clus>
<clus scale="   99.495">  2  7  1 -1</clus>
<clus scale="   50.760">  2  5  1 -1</clus>
</clustering>
</event>
<event>
 9    1  0.1321469E-005  0.1241879E+03  0.7546771E-02  0.1236819E+00
         -2   -1    0    0    0  501 -0.00000000000E+00  0.00000000000E+00  0.43941043077E+03  0.43941043077E+03  0.00000000000E+00 0. -1.
         21   -1    0    0  501  502  0.00000000000E+00 -0.00000000000E+00 -0.46395475638E+02  0.46395475638E+02  0.00000000000E+00 0.  1.
         23    2    1    2    0    0  0.38098920452E+02 -0.50365809407E+02  0.15847106047E+03  0.19637798887E+03  0.97277926622E+02 0.  0.
         23    2    1    2    0    0 -0.41089769629E+02  0.82236905585E+02  0.21254478405E+03  0.25058627986E+03  0.95744036985E+02 0.  0.
        -11    1    3    3    0    0 -0.19857775244E+02 -0.54354208173E+02  0.77368296673E+02  0.96615550062E+02  0.00000000000E+00 0.  1.
         11    1    3    3    0    0  0.57956695696E+02  0.39883987655E+01  0.81102763796E+02  0.99762438804E+02  0.00000000000E+00 0. -1.
        -11    1    4    4    0    0 -0.42645989517E+02  0.24936678658E+02  0.26810415102E+02  0.56207799479E+02  0.00000000000E+00 0.  1.
         11    1    4    4    0    0  0.15562198874E+01  0.57300226927E+02  0.18573436895E+03  0.19437848038E+03  0.00000000000E+00 0. -1.
         -2    1    1    2    0  502  0.29908491774E+01 -0.31871096178E+02  0.21999110618E+02  0.38841637689E+02  0.00000000000E+00 0. -1.
<scales pt_clust_5="13000.00000" pt_clust_6="13000.00000" pt_clust_7="13000.00000" pt_clust_8="13000.00000" pt_clust_9="32.01112"></scales>
<clustering>
<clus scale="   32.011">  2  9  1 -1</clus>
<clus scale="   95.744">  7  8 -1 -1</clus>
<clus scale="   97.278">  5  6 -1 -1</clus>
<clus scale="  122.990">  2  7  1 -1</clus>
<clus scale="   32.011">  2  5  1 -1</clus>
</clustering>
</event>
<event>
 9    1  0.1321469E-005  0.1127758E+03  0.7546771E-02  0.1261265E+00
          1   -1    0    0  502    0 -0.00000000000E+00  0.00000000000E+00  0.67209395015E+03  0.67209395015E+03  0.00000000000E+00 0. -1.
         21   -1    0    0  501  502  0.00000000000E+00 -0.00000000000E+00 -0.26289833770E+02  0.26289833770E+02  0.00000000000E+00 0.  1.
         23    2    1    2    0    0  0.64412384200E+02  0.44266284714E+02  0.35345778900E+03  0.36956256543E+03  0.74401760472E+02 0.  0.
         23    2    1    2    0    0 -0.56320309601E+02 -0.11417815875E+02  0.26357856844E+03  0.28441302633E+03  0.90081984961E+02 0.  0.
        -11    1    4    4    0    0 -0.34969785622E+02 -0.44864611142E+02  0.21105097643E+03  0.21858232749E+03  0.00000000000E+00 0. -1.
         11    1    4    4    0    0 -0.21350523978E+02  0.33446795267E+02  0.52527592013E+02  0.65830698845E+02  0.00000000000E+00 0.  1.
        -13    1    3    3    0    0  0.56786502815E+02  0.63214095637E+02  0.31172968958E+03  0.32310389684E+03  0.00000000000E+00 0.  1.
         13    1    3    3    0    0  0.76258813855E+01 -0.18947810923E+02  0.41728099419E+02  0.46458668587E+02  0.00000000000E+00 0. -1.
          1    1    1    2  501    0 -0.80920745995E+01 -0.32848468839E+02  0.28767758948E+02  0.44408192164E+02  0.00000000000E+00 0. -1.
<scales pt_clust_5="13000.00000" pt_clust_6="13000.00000" pt_clust_7="13000.00000" pt_clust_8="13000.00000" pt_clust_9="33.83051"></scales>
<clustering>
<clus scale="   33.831">  2  9  1 -1</clus>
<clus scale="   74.402">  7  8 -1 -1</clus>
<clus scale="   90.082">  5  6 -1 -1</clus>
<clus scale="  100.694">  1  7  2 -1</clus>
<clus scale="   33.831">  2  5  1 -1</clus>
</clustering>
</event>
<event>
 9    1  0.1321469E-005  0.1683788E+03  0.7546771E-02  0.1180114E+00
         21   -1    0    0  501  502  0.00000000000E+00  0.00000000000E+00  0.48469975931E+03  0.48469975931E+03  0.00000000000E+00 0. -1.
         -1   -1    0    0    0  501 -0.00000000000E+00 -0.00000000000E+00 -0.16634659654E+03  0.16634659654E+03  0.00000000000E+00 0.  1.
         23    2    1    2    0    0  0.49761029255E+02 -0.12719546277E+03 -0.76937193740E+02  0.18072234749E+03  0.89924353318E+02 0.  0.
         23    2    1    2    0    0 -0.34884844435E+02  0.15128272048E+03  0.18847332803E+03  0.26157827757E+03  0.93795447811E+02 0.  0.
        -11    1    4    4    0    0 -0.40914484652E+02  0.31847529789E+02  0.21341830203E+02  0.56069010375E+02  0.00000000000E+00 0.  1.
         11    1    4    4    0    0  0.60296402172E+01  0.11943519069E+03  0.16713149783E+03  0.20550926720E+03  0.00000000000E+00 0. -1.
        -13    1    3    3    0    0  0.23640927854E+02 -0.13293359633E+03 -0.53742342888E+02  0.14532196641E+03  0.00000000000E+00 0.  1.
         13    1    3    3    0    0  0.26120101401E+02  0.57381335657E+01 -0.23194850852E+02  0.35400381072E+02  0.00000000000E+00 0. -1.
         -1    1    1    2    0  502 -0.14876184820E+02 -0.24087257712E+02  0.20681702847E+03  0.20874573080E+03  0.00000000000E+00 0.  1.
<scales pt_clust_5="13000.00000" pt_clust_6="13000.00000" pt_clust_7="13000.00000" pt_clust_8="13000.00000" pt_clust_9="28.31072"></scales>
<clustering>
<clus scale="   28.311">  1  9  2 -1</clus>
<clus scale="   89.924">  7  8 -1 -1</clus>
<clus scale="   93.795">  5  6 -1 -1</clus>
<clus scale="  166.253">  2  7  1 -1</clus>
<clus scale="   28.311">  1  5  2 -1</clus>
</clustering>
</event>
<event>
 9    1  0.1321469E-005  0.2733368E+03  0.7546771E-02  0.1099653E+00
         21   -1    0    0  501  502  0.00000000000E+00  0.00000000000E+00  0.66419992346E+02  0.66419992346E+02  0.00000000000E+00 0. -1.
          1   -1    0    0  502    0 -0.00000000000E+00 -0.00000000000E+00 -0.18978501595E+04  0.18978501595E+04  0.00000000000E+00 0. -1.
         23    2    1    2    0    0 -0.22465510331E+03 -0.36837638415E+01 -0.83933484101E+03  0.87415605925E+03  0.95824605539E+02 0.  0.
         23    2    1    2    0    0  0.31290402963E+03 -0.68376204074E+02 -0.80488664803E+03  0.87096208797E+03  0.90267410891E+02 0.  0.
        -11    1    3    3    0    0 -0.16992527918E+03 -0.35575313919E+02 -0.69815778304E+03  0.71941955317E+03  0.00000000000E+00 0. -1.
         11    1    3    3    0    0 -0.54729824134E+02  0.31891550078E+02 -0.14117705797E+03  0.15473650607E+03  0.00000000000E+00 0.  1.
        -11    1    4    4    0    0  0.24650936155E+03 -0.52366716571E+02 -0.51788777134E+03  0.57594868004E+03  0.00000000000E+00 0. -1.
         11    1    4    4    0    0  0.66394668078E+02 -0.16009487504E+02 -0.28699887669E+03  0.29501340793E+03  0.00000000000E+00 0.  1.
          1    1    1    2  501    0 -0.88248926315E+02  0.72059967916E+02 -0.18720867814E+03  0.21915200465E+03  0.00000000000E+00 0. -1.
<scales pt_clust_5="13000.00000" pt_clust_6="13000.00000" pt_clust_7="13000.00000" pt_clust_8="13000.00000" pt_clust_9="113.93205"></scales>
<clustering>
<clus scale="   90.267">  7  8 -1 -1</clus>
<clus scale="   95.825">  5  6 -1 -1</clus>
<clus scale="  113.932">  1  9  2 -1</clus>
<clus scale="  271.438">  1  7  2 -1</clus>
<clus scale="  113.932">  1  5  2 -1</clus>
</clustering>
</event>
<event>
 9    1  0.1321469E-005  0.1151609E+03  0.7546771E-02  0.1251478E+00
         21   -1    0    0  501  502  0.00000000000E+00  0.00000000000E+00  0.23049148885E+03  0.23049148885E+03  0.00000000000E+00 0. -1.
          1   -1    0    0  502    0 -0.00000000000E+00 -0.00000000000E+00 -0.14474739277E+03  0.14474739277E+03  0.00000000000E+00 0. -1.
         23    2    1    2    0    0  0.79486373133E+02 -0.31305793320E+01 -0.82305562866E+02  0.14617089380E+03  0.90905668004E+02 0.  0.
         23    2    1    2    0    0 -0.41980771642E+02  0.54179544028E+01  0.66300239166E+02  0.12060210999E+03  0.91418859121E+02 0.  0.
        -11    1    3    3    0    0  0.60695622774E+02  0.29282906076E+02 -0.85156863405E+02  0.10859621815E+03  0.00000000000E+00 0. -1.
         11    1    3    3    0    0  0.18790750359E+02 -0.32413485408E+02  0.28513005391E+01  0.37574675649E+02  0.00000000000E+00 0.  1.
        -13    1    4    4    0    0 -0.18814452118E+02 -0.41845471382E+02  0.43556392800E+02  0.63262836148E+02  0.00000000000E+00 0. -1.
         13    1    4    4    0    0 -0.23166319524E+02  0.47263425785E+02  0.22743846366E+02  0.57339273842E+02  0.00000000000E+00 0.  1.
          1    1    1    2  501    0 -0.37505601491E+02 -0.22873750708E+01  0.10174941978E+03  0.10846587783E+03  0.00000000000E+00 0. -1.
<scales pt_clust_5="13000.00000" pt_clust_6="13000.00000" pt_clust_7="13000.00000" pt_clust_8="13000.00000" pt_clust_9="37.57529"></scales>
<clustering>
<clus scale="   37.575">  1  9  2 -1</clus>
<clus scale="   90.906">  5  6 -1 -1</clus>
<clus scale="   91.419">  7  8 -1 -1</clus>
<clus scale="  114.754">  2  5  1 -1</clus>
<clus scale="   37.575">  1  5  2 -1</clus>
</clustering>
</event>
<event>
 9    1  0.1321469E-005  0.1005903E+03  0.7546771E-02  0.1281755E+00
          3   -1    0    0  502    0 -0.00000000000E+00  0.00000000000E+00  0.57855765298E+03  0.57855765298E+03  0.00000000000E+00 0. -1.
         21   -1    0    0  501  502  0.00000000000E+00 -0.00000000000E+00 -0.35999693038E+02  0.35999693038E+02  0.00000000000E+00 0. -1.
         23    2    1    2    0    0 -0.14975521346E+02  0.33655253571E+02  0.35236670495E+03  0.36588927177E+03  0.91409639034E+02 0.  0.
         23    2    1    2    0    0  0.52022095488E+02 -0.28745545167E+02  0.18288106566E+03  0.21058930378E+03  0.85847340687E+02 0.  0.
        -11    1    3    3    0    0 -0.50116788971E+02  0.26932786223E+02  0.15088577342E+03  0.16125626851E+03  0.00000000000E+00 0.  1.
         11    1    3    3    0    0  0.35141267625E+02  0.67224673477E+01  0.20148093152E+03  0.20463300326E+03  0.00000000000E+00 0. -1.
        -13    1    4    4    0    0  0.17932083178E+02 -0.44852692142E+02  0.15848093692E+03  0.16567899978E+03  0.00000000000E+00 0. -1.
         13    1    4    4    0    0  0.34090012310E+02  0.16107146975E+02  0.24400128735E+02  0.44910303999E+02  0.00000000000E+00 0.  1.
          3    1    1    2  501    0 -0.37046574141E+02 -0.49097084037E+01  0.73101893331E+01  0.38078770467E+02  0.00000000000E+00 0. -1.
<scales pt_clust_5="13000.00000" pt_clust_6="13000.00000" pt_clust_7="13000.00000" pt_clust_8="13000.00000" pt_clust_9="37.37049"></scales>
<clustering>
<clus scale="   37.370">  2  9  1 -1</clus>
<clus scale="   85.847">  7  8 -1 -1</clus>
<clus scale="   91.410">  5  6 -1 -1</clus>
<clus scale="   95.564">  2  7  1 -1</clus>
<clus scale="   37.370">  2  5  1 -1</clus>
</clustering>
</event>
<event>
 9    1  0.1321469E-005  0.2207237E+03  0.7546771E-02  0.1139828E+00
         -3   -1    0    0    0  501 -0.00000000000E+00  0.00000000000E+00  0.29647514728E+03  0.29647514728E+03  0.00000000000E+00 0.  1.
         21   -1    0    0  501  502  0.00000000000E+00 -0.00000000000E+00 -0.52966993223E+03  0.52966993223E+03  0.00000000000E+00 0.  1.
         23    2    1    2    0    0 -0.36309000156E+02  0.15970617571E+03 -0.43318816389E+02  0.19350055575E+03  0.93496198689E+02 0.  0.
         23    2    1    2    0    0  0.22675006646E+03 -0.16995477249E+03  0.72580646763E+02  0.30821223745E+03  0.97090760079E+02 0.  0.
        -11    1    4    4    0    0  0.10682660902E+03 -0.10241333033E+03 -0.89200544555E+01  0.14825647371E+03  0.00000000000E+00 0. -1.
         11    1    4    4    0    0  0.11992345744E+03 -0.67541442161E+02  0.81500701219E+02  0.15995576374E+03  0.00000000000E+00 0.  1.
        -13    1    3    3    0    0 -0.60477276506E+02  0.10909078747E+03 -0.36233364217E+01  0.12478553382E+03  0.00000000000E+00 0.  1.
         13    1    3    3    0    0  0.24168276350E+02  0.50615388236E+02 -0.39695479968E+02  0.68715021923E+02  0.00000000000E+00 0. -1.
         -3    1    1    2    0  502 -0.19044106631E+03  0.10248596785E+02 -0.26245661532E+03  0.32443228631E+03  0.00000000000E+00 0.  1.
<scales pt_clust_5="13000.00000" pt_clust_6="13000.00000" pt_clust_7="13000.00000" pt_clust_8="13000.00000" pt_clust_9="198.22297"></scales>
<clustering>
<clus scale="   93.496">  7  8 -1 -1</clus>
<clus scale="   97.091">  5  6 -1 -1</clus>
<clus scale="  188.589">  1  7  2 -1</clus>
<clus scale="  198.223">  2  9  1 -1</clus>
<clus scale="  198.223">  2  5  1 -1</clus>
</clustering>
</event>
<event>
 9    1  0.1321469E-005  0.1559609E+03  0.7546771E-02  0.1205312E+00
         21   -1    0    0  501  502  0.00000000000E+00  0.00000000000E+00  0.94910954193E+02  0.94910954193E+02  0.00000000000E+00 0. -1.
          1   -1    0    0  502    0 -0.00000000000E+00 -0.00000000000E+00 -0.10791050501E+04  0.10791050501E+04  0.00000000000E+00 0. -1.
         23    2    1    2    0    0  0.77109435000E+02  0.52200158961E+01 -0.39265930245E+03  0.41064427333E+03  0.92055841131E+02 0.  0.
         23    2    1    2    0    0  0.85353934288E+02  0.85895574685E+02 -0.76878678391E+01  0.15053110751E+03  0.89090780479E+02 0.  0.
        -13    1    3    3    0    0  0.71929240799E+01 -0.35826865535E+02 -0.85846115283E+02  0.93299828296E+02  0.00000000000E+00 0.  1.
         13    1    3    3    0    0  0.69916510920E+02  0.41046881431E+02 -0.30681318716E+03  0.31734444503E+03  0.00000000000E+00 0. -1.
        -13    1    4    4    0    0 -0.67855221570E+01  0.28426610155E+02  0.23552109927E+02  0.37534215828E+02  0.00000000000E+00 0.  1.
         13    1    4    4    0    0  0.92139456445E+02  0.57468964530E+02 -0.31239977766E+02  0.11299689168E+03  0.00000000000E+00 0. -1.
          1    1    1    2  501    0 -0.16246336929E+03 -0.91115590581E+02 -0.58384692567E+03  0.61284062350E+03  0.00000000000E+00 0. -1.
<scales pt_clust_5="13000.00000" pt_clust_6="13000.00000" pt_clust_7="13000.00000" pt_clust_8="13000.00000" pt_clust_9="128.01039"></scales>
<clustering>
<clus scale="   89.091">  7  8 -1 -1</clus>
<clus scale="   92.056">  5  6 -1 -1</clus>
<clus scale="  120.197">  2  5  1 -1</clus>
<clus scale="  128.010">  1  9  2 -1</clus>
<clus scale="  128.010">  1  5  2 -1</clus>
</clustering>
</event>
<event>
 9    1  0.1321469E-005  0.1327129E+03  0.7546771E-02  0.1223497E+00
          1   -1    0    0  502    0 -0.00000000000E+00  0.00000000000E+00  0.20037073819E+03  0.20037073819E+03  0.00000000000E+00 0. -1.
         21   -1    0    0  501  502  0.00000000000E+00 -0.00000000000E+00 -0.13254470637E+03  0.13254470637E+03  0.00000000000E+00 0. -1.
         23    2    1    2    0    0 -0.98518674982E+02  0.30832303305E+02  0.60581476230E+02  0.15013060207E+03  0.90622967114E+02 0.  0.
         23    2    1    2    0    0  0.77219549747E+02 -0.50407202506E+02  0.43460848906E+02  0.13643347448E+03  0.90672502135E+02 0.  0.
        -13    1    3    3    0    0 -0.11471350048E+03  0.17131097159E+02  0.48492910553E+02  0.12571485217E+03  0.00000000000E+00 0. -1.
         13    1    3    3    0    0  0.16194825502E+02  0.13701206146E+02  0.12088565677E+02  0.24415749897E+02  0.00000000000E+00 0.  1.
        -13    1    4    4    0    0  0.85311764060E+01  0.25416855655E+02  0.12185630279E+02  0.29449738667E+02  0.00000000000E+00 0.  1.
         13    1    4    4    0    0  0.68688373341E+02 -0.75824058161E+02  0.31275218627E+02  0.10698373581E+03  0.00000000000E+00 0. -1.
          1    1    1    2  501    0  0.21299125236E+02  0.19574899200E+02 -0.36216293315E+02  0.46351368006E+02  0.00000000000E+00 0. -1.
<scales pt_clust_5="13000.00000" pt_clust_6="13000.00000" pt_clust_7="13000.00000" pt_clust_8="13000.00000" pt_clust_9="28.92800"></scales>
<clustering>
<clus scale="   28.928">  2  9  1 -1</clus>
<clus scale="   90.623">  5  6 -1 -1</clus>
<clus scale="   90.673">  7  8 -1 -1</clus>
<clus scale="  132.679">  1  5  2 -1</clus>
<clus scale="   28.928">  2  5  1 -1</clus>
</clustering>
</event>
<event>
 9    1  0.1321469E-005  0.1312180E+03  0.7546771E-02  0.1227464E+00
         21   -1    0    0  501  502  0.00000000000E+00  0.00000000000E+00  0.12320345945E+03  0.12320345945E+03  0.00000000000E+00 0. -1.
          3   -1    0    0  502    0 -0.00000000000E+00 -0.00000000000E+00 -0.35878705323E+03  0.35878705323E+03  0.00000000000E+00 0. -1.
         23    2    1    2    0    0 -0.41094471434E+02 -0.79068384065E+02 -0.11313458101E+03  0.17407612721E+03  0.97788034556E+02 0.  0.
         23    2    1    2    0    0  0.12874255334E+03 -0.84528211599E+01 -0.78989717567E+02  0.17664802282E+03  0.91208844192E+02 0.  0.
        -11    1    4    4    0    0  0.33166508835E+02  0.38313729932E+02 -0.16719969105E+02  0.53362126799E+02  0.00000000000E+00 0.  1.
         11    1    4    4    0    0  0.95576044504E+02 -0.46766551092E+02 -0.62269748462E+02  0.12328589602E+03  0.00000000000E+00 0. -1.
        -11    1    3    3    0    0 -0.70936328215E+02 -0.38804500388E+02 -0.57624234845E+02  0.99288994116E+02  0.00000000000E+00 0. -1.
         11    1    3    3    0    0  0.29841856781E+02 -0.40263883677E+02 -0.55510346165E+02  0.74787133093E+02  0.00000000000E+00 0.  1.
          3    1    1    2  501    0 -0.87648081904E+02  0.87521205225E+02 -0.43459295208E+02  0.13126636266E+03  0.00000000000E+00 0. -1.
<scales pt_clust_5="13000.00000" pt_clust_6="13000.00000" pt_clust_7="13000.00000" pt_clust_8="13000.00000" pt_clust_9="123.86342"></scales>
<clustering>
<clus scale="   91.209">  5  6 -1 -1</clus>
<clus scale="   97.788">  7  8 -1 -1</clus>
<clus scale="  123.863">  1  9  2 -1</clus>
<clus scale="  126.391">  1  5  2 -1</clus>
<clus scale="  123.863">  1  5  2 -1</clus>
</clustering>
</event>
<event>
 9    1  0.1321469E-005  0.9577328E+02  0.7546771E-02  0.1293400E+00
          1   -1    0    0  502    0 -0.00000000000E+00  0.00000000000E+00  0.33071354418E+02  0.33071354418E+02  0.00000000000E+00 0. -1.
         21   -1    0    0  501  502  0.00000000000E+00 -0.00000000000E+00 -0.43438552268E+03  0.43438552268E+03  0.00000000000E+00 0.  1.
         23    2    1    2    0    0  0.36051041835E+01  0.20359529995E+02 -0.98150075352E+02  0.13747800181E+03  0.94017319964E+02 0.  0.
         23    2    1    2    0    0 -0.20216659643E+02 -0.73210149409E+01 -0.14554319948E+03  0.17094965566E+03  0.87055449388E+02 0.  0.
        -11    1    4    4    0    0 -0.45088371020E+02 -0.15203723249E+02 -0.13440775884E+03  0.14258176615E+03  0.00000000000E+00 0.  1.
         11    1    4    4    0    0  0.24871711377E+02  0.78827083079E+01 -0.11135440644E+02  0.28367889513E+02  0.00000000000E+00 0. -1.
        -13    1    3    3    0    0  0.43523859348E+01  0.57583913725E+02 -0.70327131308E+02  0.90998658128E+02  0.00000000000E+00 0.  1.
         13    1    3    3    0    0 -0.74728175132E+00 -0.37224383730E+02 -0.27822944045E+02  0.46479343685E+02  0.00000000000E+00 0. -1.
          1    1    1    2  501    0  0.16611555460E+02 -0.13038515054E+02 -0.15762089343E+03  0.15902921963E+03  0.00000000000E+00 0. -1.
<scales pt_clust_5="13000.00000" pt_clust_6="13000.00000" pt_clust_7="13000.00000" pt_clust_8="13000.00000" pt_clust_9="21.11745"></scales>
<clustering>
<clus scale="   21.117">  2  9  1 -1</clus>
<clus scale="   87.055">  5  6 -1 -1</clus>
<clus scale="   88.949">  2  5  1 -1</clus>
<clus scale="   94.017">  7  8 -1 -1</clus>
<clus scale="   21.117">  2  5  1 -1</clus>
</clustering>
</event>
<event>
 9    1  0.1321469E-005  0.9655341E+02  0.7546771E-02  0.1288864E+00
         -3   -1    0    0    0  501 -0.00000000000E+00  0.00000000000E+00  0.29776622151E+03  0.29776622151E+03  0.00000000000E+00 0.  1.
         21   -1    0    0  501  502  0.00000000000E+00 -0.00000000000E+00 -0.95242777881E+02  0.95242777881E+02  0.00000000000E+00 0.  1.
         23    2    1    2    0    0 -0.13246763388E+02 -0.13262823015E+02  0.22331805874E+03  0.24216457592E+03  0.91767898834E+02 0.  0.
         23    2    1    2    0    0  0.21540795465E+02  0.33641571524E+02  0.20483754077E+02  0.10406848818E+03  0.93887724690E+02 0.  0.
        -11    1    3    3    0    0  0.21964392704E+02 -0.37940087852E+02  0.67214496263E+02  0.80247575172E+02  0.00000000000E+00 0. -1.
         11    1    3    3    0    0 -0.35211156092E+02  0.24677264837E+02  0.15610356248E+03  0.16191700075E+03  0.00000000000E+00 0.  1.
        -13    1    4    4    0    0 -0.28711703583E+02 -0.82102006068E+01  0.24385735320E+02  0.38554291639E+02  0.00000000000E+00 0. -1.
         13    1    4    4    0    0  0.50252499048E+02  0.41851772131E+02 -0.39019812435E+01  0.65514196543E+02  0.00000000000E+00 0.  1.
         -3    1    1    2    0  502 -0.82940320771E+01 -0.20378748509E+02 -0.41278369190E+02  0.46775935286E+02  0.00000000000E+00 0.  1.
<scales pt_clust_5="13000.00000" pt_clust_6="13000.00000" pt_clust_7="13000.00000" pt_clust_8="13000.00000" pt_clust_9="22.00192"></scales>
<clustering>
<clus scale="   22.002">  2  9  1 -1</clus>
<clus scale="   91.768">  5  6 -1 -1</clus>
<clus scale="   93.888">  7  8 -1 -1</clus>
<clus scale="   94.493">  1  5  2 -1</clus>
<clus scale="   22.002">  2  5  1 -1</clus>
</clustering>
</event>
<event>
 9    1  0.1321469E-005  0.1161357E+03  0.7546771E-02  0.1249972E+00
         21   -1    0    0  501  502  0.00000000000E+00  0.00000000000E+00  0.21910636526E+03  0.21910636526E+03  0.00000000000E+00 0. -1.
         -3   -1    0    0    0  501 -0.00000000000E+00 -0.00000000000E+00 -0.10268118877E+03  0.10268118877E+03  0.00000000000E+00 0.  1.
         23    2    1    2    0    0 -0.73319576476E+02  0.10487803960E+02 -0.31085039388E+02  0.12080189586E+03  0.90227845168E+02 0.  0.
         23    2    1    2    0    0  0.60468611436E+02 -0.29231736196E+02  0.11644004656E+03  0.16249101284E+03  0.91291278000E+02 0.  0.
        -13    1    4    4    0    0  0.72815671410E+02  0.81389924391E+01  0.66871878649E+02  0.99197849547E+02  0.00000000000E+00 0.  1.
         13    1    4    4    0    0 -0.12347059974E+02 -0.37370728635E+02  0.49568167915E+02  0.63293163289E+02  0.00000000000E+00 0. -1.
        -13    1    3    3    0    0  0.11839913415E+01  0.28346957281E+02 -0.33812943379E+02  0.44139177185E+02  0.00000000000E+00 0.  1.
         13    1    3    3    0    0 -0.74503567817E+02 -0.17859153321E+02  0.27279039914E+01  0.76662718678E+02  0.00000000000E+00 0. -1.
         -3    1    1    2    0  502  0.12850965039E+02  0.18743932236E+02  0.31070169310E+02  0.38494645329E+02  0.00000000000E+00 0.  1.
<scales pt_clust_5="13000.00000" pt_clust_6="13000.00000" pt_clust_7="13000.00000" pt_clust_8="13000.00000" pt_clust_9="22.72625"></scales>
<clustering>
<clus scale="   22.726">  1  9  2 -1</clus>
<clus scale="   90.228">  7  8 -1 -1</clus>
<clus scale="   91.291">  5  6 -1 -1</clus>
<clus scale="  115.302">  2  7  1 -1</clus>
<clus scale="   22.726">  1  5  2 -1</clus>
</clustering>
</event>
<event>
 9    1  0.1321469E-005  0.1005734E+03  0.7546771E-02  0.1281897E+00
          2   -1    0    0  502    0 -0.00000000000E+00  0.00000000000E+00  0.25228447763E+03  0.25228447763E+03  0.00000000000E+00 0. -1.
         21   -1    0    0  501  502  0.00000000000E+00 -0.00000000000E+00 -0.92641624675E+02  0.92641624675E+02  0.00000000000E+00 0.  1.
         23    2    1    2    0    0 -0.23700187837E+02  0.34477141321E+02  0.14356035740E+03  0.17337080859E+03  0.87735334253E+02 0.  0.
         23    2    1    2    0    0 -0.36654340721E+02 -0.40374371186E+02 -0.23862263393E+01  0.10816333740E+03  0.93380848890E+02 0.  0.
        -11    1    4    4    0    0 -0.23202338258E+02  0.22163484134E+02  0.22855814597E+02  0.39394882796E+02  0.00000000000E+00 0. -1.
         11    1    4    4    0    0 -0.13452002462E+02 -0.62537855320E+02 -0.25242040937E+02  0.68768454606E+02  0.00000000000E+00 0.  1.
        -11    1    3    3    0    0  0.16684194626E+02  0.12763944330E+02 -0.16713272174E+01  0.21073062422E+02  0.00000000000E+00 0. -1.
         11    1    3    3    0    0 -0.40384382464E+02  0.21713196991E+02  0.14523168461E+03  0.15229774616E+03  0.00000000000E+00 0.  1.
          2    1    1    2  501    0  0.60354528558E+02  0.58972298647E+01  0.18468721902E+02  0.63391956321E+02  0.00000000000E+00 0. -1.
<scales pt_clust_5="13000.00000" pt_clust_6="13000.00000" pt_clust_7="13000.00000" pt_clust_8="13000.00000" pt_clust_9="60.64195"></scales>
<clustering>
<clus scale="   60.642">  2  9  1 -1</clus>
<clus scale="   87.735">  7  8 -1 -1</clus>
<clus scale="   93.381">  5  6 -1 -1</clus>
<clus scale="   95.355">  1  7  2 -1</clus>
<clus scale="   60.642">  2  5  1 -1</clus>
</clustering>
</event>
<event>
 9    1  0.1321469E-005  0.1008917E+03  0.7546771E-02  0.1279325E+00
         21   -1    0    0  501  502  0.00000000000E+00  0.00000000000E+00  0.13526286746E+03  0.13526286746E+03  0.00000000000E+00 0.  1.
          2   -1    0    0  502    0 -0.00000000000E+00 -0.00000000000E+00 -0.19406041171E+03  0.19406041171E+03  0.00000000000E+00 0. -1.
         23    2    1    2    0    0 -0.34658397675E+02 -0.28402852092E+02 -0.14266098821E+03  0.17461931379E+03  0.90176608130E+02 0.  0.
         23    2    1    2    0    0  0.11792378800E+02  0.13845386882E+02  0.86311754315E+02  0.12748689656E+03  0.92045830566E+02 0.  0.
        -11    1    4    4    0    0  0.22077805452E+01  0.48823281745E+02  0.74958881395E+02  0.89484194332E+02  0.00000000000E+00 0.  1.
         11    1    4    4    0    0  0.95845982552E+01 -0.34977894862E+02  0.11352872920E+02  0.38002702223E+02  0.00000000000E+00 0. -1.
        -11    1    3    3    0    0 -0.73171950283E+01 -0.59076396048E+02 -0.87764168078E+02  0.10604768320E+03  0.00000000000E+00 0. -1.
         11    1    3    3    0    0 -0.27341202646E+02  0.30673543956E+02 -0.54896820133E+02  0.68571630589E+02  0.00000000000E+00 0.  1.
          2    1    1    2  501    0  0.22866018874E+02  0.14557465210E+02 -0.24483103544E+01  0.27217068837E+02  0.00000000000E+00 0. -1.
<scales pt_clust_5="13000.00000" pt_clust_6="13000.00000" pt_clust_7="13000.00000" pt_clust_8="13000.00000" pt_clust_9="27.10673"></scales>
<clustering>
<clus scale="   27.107">  1  9  2 -1</clus>
<clus scale="   90.177">  7  8 -1 -1</clus>
<clus scale="   92.046">  5  6 -1 -1</clus>
<clus scale="   99.189">  2  7  1 -1</clus>
<clus scale="   27.107">  1  5  2 -1</clus>
</clustering>
</event>
<event>
 9    1  0.1321469E-005  0.1235711E+03  0.7546771E-02  0.1237657E+00
         21   -1    0    0  501  502  0.00000000000E+00  0.00000000000E+00  0.90028875269E+02  0.90028875269E+02  0.00000000000E+00 0.  1.
          1   -1    0    0  502    0 -0.00000000000E+00 -0.00000000000E+00 -0.22177947012E+03  0.22177947012E+03  0.00000000000E+00 0. -1.
         23    2    1    2    0    0  0.20248188398E+02  0.77139508863E+02 -0.79519372281E+02  0.14614178680E+03  0.93132155131E+02 0.  0.
         23    2    1    2    0    0 -0.46128479518E+02 -0.68893231875E+02 -0.26584530478E+02  0.12830958645E+03  0.94247008931E+02 0.  0.
        -11    1    3    3    0    0 -0.19884218538E+00  0.95161000047E+02 -0.58296447366E+02  0.11159807903E+03  0.00000000000E+00 0. -1.
         11    1    3    3    0    0  0.20447030584E+02 -0.18021491184E+02 -0.21222924915E+02  0.34543707765E+02  0.00000000000E+00 0.  1.
        -11    1    4    4    0    0 -0.20869231267E+01 -0.53588204945E+02  0.24661222208E+02  0.59027339751E+02  0.00000000000E+00 0.  1.
         11    1    4    4    0    0 -0.44041556392E+02 -0.15305026930E+02 -0.51245752686E+02  0.69282246695E+02  0.00000000000E+00 0. -1.
          1    1    1    2  501    0  0.25880291120E+02 -0.82462769879E+01 -0.25646692088E+02  0.37356972143E+02  0.00000000000E+00 0. -1.
<scales pt_clust_5="13000.00000" pt_clust_6="13000.00000" pt_clust_7="13000.00000" pt_clust_8="13000.00000" pt_clust_9="27.16231"></scales>
<clustering>
<clus scale="   27.162">  1  9  2 -1</clus>
<clus scale="   93.132">  5  6 -1 -1</clus>
<clus scale="   94.247">  7  8 -1 -1</clus>
<clus scale="  122.723">  2  5  1 -1</clus>
<clus scale="   27.162">  1  5  2 -1</clus>
</clustering>
</event>
<event>
 9    1  0.1321469E-005  0.1071485E+03  0.7546771E-02  0.1267548E+00
          3   -1    0    0  502    0 -0.00000000000E+00  0.00000000000E+00  0.24854736006E+03  0.24854736006E+03  0.00000000000E+00 0. -1.
         21   -1    0    0  501  502  0.00000000000E+00 -0.00000000000E+00 -0.12720700919E+03  0.12720700919E+03  0.00000000000E+00 0. -1.
         23    2    1    2    0    0 -0.67209585295E+02 -0.48707497653E+01  0.10380403041E+03  0.15413676615E+03  0.91880429862E+02 0.  0.
         23    2    1    2    0    0 -0.28818858100E+01 -0.69650149545E+02  0.15300071209E+02  0.11928882138E+03  0.95583901003E+02 0.  0.
        -11    1    3    3    0    0 -0.56065411990E+02 -0.45081479113E+02  0.60484010182E+02  0.93989284859E+02  0.00000000000E+00 0. -1.
         11    1    3    3    0    0 -0.11144173305E+02  0.40210729348E+02  0.43320020229E+02  0.60147481293E+02  0.00000000000E+00 0.  1.
        -13    1    4    4    0    0 -0.33011165127E+02 -0.67900738476E+02 -0.14495375560E+02  0.76878886707E+02  0.00000000000E+00 0. -1.
         13    1    4    4    0    0  0.30129279317E+02 -0.17494110694E+01  0.29795446769E+02  0.42409934678E+02  0.00000000000E+00 0.  1.
          3    1    1    2  501    0  0.70091471105E+02  0.74520899311E+02  0.22362492542E+01  0.10232878171E+03  0.00000000000E+00 0. -1.
<scales pt_clust_5="13000.00000" pt_clust_6="13000.00000" pt_clust_7="13000.00000" pt_clust_8="13000.00000" pt_clust_9="102.30434"></scales>
<clustering>
<clus scale="   91.880">  5  6 -1 -1</clus>
<clus scale="   95.584">  7  8 -1 -1</clus>
<clus scale="  102.304">  2  9  1 -1</clus>
<clus scale="  103.858">  1  5  2 -1</clus>
<clus scale="  102.304">  2  5  1 -1</clus>
</clustering>
</event>
<event>
 9    1  0.1321469E-005  0.1013887E+03  0.7546771E-02  0.1278664E+00
         21   -1    0    0  501  502  0.00000000000E+00  0.00000000000E+00  0.93731806231E+02  0.93731806231E+02  0.00000000000E+00 0. -1.
         -1   -1    0    0    0  501 -0.00000000000E+00 -0.00000000000E+00 -0.55013958260E+03  0.55013958260E+03  0.00000000000E+00 0.  1.
         23    2    1    2    0    0 -0.24056245576E+02  0.31870474063E+02 -0.47348828320E+03  0.48425881811E+03  0.93386393656E+02 0.  0.
         23    2    1    2    0    0  0.56635840012E+02  0.18671368005E+01 -0.63451300316E+01  0.10718722550E+03  0.90761974752E+02 0.  0.
        -11    1    4    4    0    0  0.10328395973E+02 -0.40063697547E+02  0.10099539803E+02  0.42588452998E+02  0.00000000000E+00 0.  1.
         11    1    4    4    0    0  0.46307444039E+02  0.41930834347E+02 -0.16444669835E+02  0.64598772499E+02  0.00000000000E+00 0. -1.
        -11    1    3    3    0    0 -0.47701226097E+02 -0.13944484406E+02 -0.21350445621E+03  0.21921224518E+03  0.00000000000E+00 0.  1.
         11    1    3    3    0    0  0.23644980522E+02  0.45814958469E+02 -0.25998382699E+03  0.26504657292E+03  0.00000000000E+00 0. -1.
         -1    1    1    2    0  502 -0.32579594436E+02 -0.33737610863E+02  0.23425636857E+02  0.52425345230E+02  0.00000000000E+00 0.  1.
<scales pt_clust_5="13000.00000" pt_clust_6="13000.00000" pt_clust_7="13000.00000" pt_clust_8="13000.00000" pt_clust_9="46.90049"></scales>
<clustering>
<clus scale="   46.900">  1  9  2 -1</clus>
<clus scale="   90.762">  5  6 -1 -1</clus>
<clus scale="   93.386">  7  8 -1 -1</clus>
<clus scale="   98.977">  1  5  2 -1</clus>
<clus scale="   46.900">  1  5  2 -1</clus>
</clustering>
</event>
<event>
 9    1  0.1321469E-005  0.1351319E+03  0.7546771E-02  0.1226297E+00
         -1   -1    0    0    0  501 -0.00000000000E+00  0.00000000000E+00  0.22307565293E+03  0.22307565293E+03  0.00000000000E+00 0.  1.
         21   -1    0    0  501  502  0.00000000000E+00 -0.00000000000E+00 -0.30155655370E+03  0.30155655370E+03  0.00000000000E+00 0.  1.
         23    2    1    2    0    0  0.49516781904E+02 -0.66926334556E+02  0.69997266020E+02  0.14118116272E+03  0.90008096908E+02 0.  0.
         23    2    1    2    0    0  0.69154293790E+01  0.81199764510E+02  0.72055373182E+02  0.15536472795E+03  0.11092789085E+03 0.  0.
        -11    1    4    4    0    0  0.55406532279E+02  0.20201846956E+02  0.23090475690E+02  0.63333786459E+02  0.00000000000E+00 0.  1.
         11    1    4    4    0    0 -0.48491102900E+02  0.60997917553E+02  0.48964897492E+02  0.92030941496E+02  0.00000000000E+00 0. -1.
        -13    1    3    3    0    0  0.73295628316E+02 -0.53639822783E+02  0.36203143636E+02  0.97776005888E+02  0.00000000000E+00 0.  1.
         13    1    3    3    0    0 -0.23778846411E+02 -0.13286511773E+02  0.33794122384E+02  0.43405156830E+02  0.00000000000E+00 0. -1.
         -1    1    1    2    0  502 -0.56432211283E+02 -0.14273429953E+02 -0.22053353997E+03  0.22808631595E+03  0.00000000000E+00 0.  1.
<scales pt_clust_5="13000.00000" pt_clust_6="13000.00000" pt_clust_7="13000.00000" pt_clust_8="13000.00000" pt_clust_9="58.20932"></scales>
<clustering>
<clus scale="   58.209">  2  9  1 -1</clus>
<clus scale="   90.008">  7  8 -1 -1</clus>
<clus scale="  110.928">  5  6 -1 -1</clus>
<clus scale="  118.563">  1  7  2 -1</clus>
<clus scale="   58.209">  2  5  1 -1</clus>
</clustering>
</event>
<event>
 9    1  0.1321469E-005  0.1377400E+03  0.7546771E-02  0.1219679E+00
          2   -1    0    0  502    0 -0.00000000000E+00  0.00000000000E+00  0.36289850548E+03  0.36289850548E+03  0.00000000000E+00 0. -1.
         21   -1    0    0  501  502  0.00000000000E+00 -0.00000000000E+00 -0.30438410443E+03  0.30438410443E+03  0.00000000000E+00 0.  1.
         23    2    1    2    0    0 -0.95723836457E+02 -0.40500790548E+02  0.32836960790E+03  0.35625960770E+03  0.91054608832E+02 0.  0.
         23    2    1    2    0    0  0.75845254106E+02  0.56913330993E+02 -0.25129295720E+03  0.27925687824E+03  0.76450139910E+02 0.  0.
        -11    1    4    4    0    0  0.24442240639E+02  0.59128138682E+02 -0.93560682159E+02  0.11334531820E+03  0.00000000000E+00 0. -1.
         11    1    4    4    0    0  0.51403013467E+02 -0.22148076887E+01 -0.15773227504E+03  0.16591156005E+03  0.00000000000E+00 0.  1.
        -11    1    3    3    0    0 -0.57998705841E+02 -0.68262816491E+02  0.18730146642E+03  0.20761864396E+03  0.00000000000E+00 0. -1.
         11    1    3    3    0    0 -0.37725130616E+02  0.27762025943E+02  0.14106814148E+03  0.14864096375E+03  0.00000000000E+00 0.  1.
          2    1    1    2  501    0  0.19878582351E+02 -0.16412540445E+02 -0.18562249646E+02  0.31766123970E+02  0.00000000000E+00 0. -1.
<scales pt_clust_5="13000.00000" pt_clust_6="13000.00000" pt_clust_7="13000.00000" pt_clust_8="13000.00000" pt_clust_9="25.77847"></scales>
<clustering>
<clus scale="   25.778">  2  9  1 -1</clus>
<clus scale="   76.450">  5  6 -1 -1</clus>
<clus scale="   91.055">  7  8 -1 -1</clus>
<clus scale="  128.553">  2  5  1 -1</clus>
<clus scale="   25.778">  2  5  1 -1</clus>
</clustering>
</event>
<event>
 9    1  0.1321469E-005  0.1077875E+03  0.7546771E-02  0.1269287E+00
         21   -1    0    0  501  502  0.00000000000E+00  0.00000000000E+00  0.66716334848E+02  0.66716334848E+02  0.00000000000E+00 0. -1.
          2   -1    0    0  502    0 -0.00000000000E+00 -0.00000000000E+00 -0.27809066053E+03  0.27809066053E+03  0.00000000000E+00 0. -1.
         23    2    1    2    0    0  0.23660435730E+02  0.39983421308E+02 -0.12381804815E+03  0.16068745547E+03  0.91274635577E+02 0.  0.
         23    2    1    2    0    0 -0.10601077780E+02 -0.73597261963E+02 -0.97670133554E+02  0.14666654007E+03  0.80266301580E+02 0.  0.
        -11    1    4    4    0    0 -0.20100187414E+02  0.73615874368E+01 -0.44396862399E+02  0.49287847332E+02  0.00000000000E+00 0.  1.
         11    1    4    4    0    0  0.94991096342E+01 -0.80958849400E+02 -0.53273271154E+02  0.97378692739E+02  0.00000000000E+00 0. -1.
        -13    1    3    3    0    0  0.38440675767E+02 -0.16609146112E+02 -0.67858104782E+02  0.79738771452E+02  0.00000000000E+00 0. -1.
         13    1    3    3    0    0 -0.14780240037E+02  0.56592567420E+02 -0.55959943364E+02  0.80948684017E+02  0.00000000000E+00 0.  1.
          2    1    1    2  501    0 -0.13059357950E+02  0.33613840656E+02  0.10113856014E+02  0.37452999842E+02  0.00000000000E+00 0. -1.
<scales pt_clust_5="13000.00000" pt_clust_6="13000.00000" pt_clust_7="13000.00000" pt_clust_8="13000.00000" pt_clust_9="36.06157"></scales>
<clustering>
<clus scale="   36.062">  1  9  2 -1</clus>
<clus scale="   80.266">  5  6 -1 -1</clus>
<clus scale="   91.275">  7  8 -1 -1</clus>
<clus scale="   98.640">  1  5  2 -1</clus>
<clus scale="   36.062">  1  5  2 -1</clus>
</clustering>
</event>
<event>
 9    1  0.1321469E-005  0.3312215E+03  0.7546771E-02  0.1070639E+00
         21   -1    0    0  501  502  0.00000000000E+00  0.00000000000E+00  0.64878614983E+03  0.64878614983E+03  0.00000000000E+00 0.  1.
          1   -1    0    0  502    0 -0.00000000000E+00 -0.00000000000E+00 -0.44450298553E+03  0.44450298553E+03  0.00000000000E+00 0. -1.
         23    2    1    2    0    0  0.27890406778E+03 -0.53204979630E+02 -0.16874075845E+03  0.34284648756E+03  0.91934876891E+02 0.  0.
         23    2    1    2    0    0 -0.44129312971E+03  0.50471130673E+02  0.15605996449E+03  0.47942412344E+03  0.90585960576E+02 0.  0.
        -11    1    4    4    0    0 -0.32565364480E+02  0.69935459027E+01 -0.11939369690E+02  0.35383063697E+02  0.00000000000E+00 0. -1.
         11    1    4    4    0    0 -0.40872776523E+03  0.43477584770E+02  0.16799933418E+03  0.44404105974E+03  0.00000000000E+00 0.  1.
        -13    1    3    3    0    0  0.16514065859E+03 -0.76248562161E+02 -0.11241759510E+03  0.21382936197E+03  0.00000000000E+00 0.  1.
         13    1    3    3    0    0  0.11376340920E+03  0.23043582532E+02 -0.56323163345E+02  0.12901712560E+03  0.00000000000E+00 0. -1.
          1    1    1    2  501    0  0.16238906193E+03  0.27338489569E+01  0.21696395825E+03  0.27101852436E+03  0.00000000000E+00 0. -1.
<scales pt_clust_5="13000.00000" pt_clust_6="13000.00000" pt_clust_7="13000.00000" pt_clust_8="13000.00000" pt_clust_9="162.41207"></scales>
<clustering>
<clus scale="   90.586">  5  6 -1 -1</clus>
<clus scale="   91.935">  7  8 -1 -1</clus>
<clus scale="  162.412">  1  9  2 -1</clus>
<clus scale="  330.850">  1  5  2 -1</clus>
<clus scale="  162.412">  1  5  2 -1</clus>
</clustering>
</event>
<event>
 9    1  0.1321469E-005  0.1237604E+03  0.7546771E-02  0.1237040E+00
         21   -1    0    0  501  502  0.00000000000E+00  0.00000000000E+00  0.88224969669E+02  0.88224969669E+02  0.00000000000E+00 0.  1.
         -2   -1    0    0    0  501 -0.00000000000E+00 -0.00000000000E+00 -0.33300356916E+03  0.33300356916E+03  0.00000000000E+00 0.  1.
         23    2    1    2    0    0 -0.45678544120E+02 -0.93310140699E+02 -0.19606216109E+03  0.23987179155E+03  0.91130640410E+02 0.  0.
         23    2    1    2    0    0  0.50085779079E+02  0.27784302186E+02 -0.40979516779E+02  0.11522869583E+03  0.91201857617E+02 0.  0.
        -13    1    3    3    0    0 -0.62963227567E+02 -0.47291220340E+02 -0.73090128137E+02  0.10743832825E+03  0.00000000000E+00 0. -1.
         13    1    3    3    0    0  0.17284683447E+02 -0.46018920359E+02 -0.12297203295E+03  0.13243346330E+03  0.00000000000E+00 0.  1.
        -13    1    4    4    0    0 -0.18542404754E+02  0.33662285346E+02 -0.19384620349E+02  0.43043393626E+02  0.00000000000E+00 0. -1.
         13    1    4    4    0    0  0.68628183832E+02 -0.58779831594E+01 -0.21594896429E+02  0.72185302202E+02  0.00000000000E+00 0.  1.
         -2    1    1    2    0  502 -0.44072349586E+01  0.65525838513E+02 -0.77369216294E+01  0.66128051454E+02  0.00000000000E+00 0.  1.
<scales pt_clust_5="13000.00000" pt_clust_6="13000.00000" pt_clust_7="13000.00000" pt_clust_8="13000.00000" pt_clust_9="65.67389"></scales>
<clustering>
<clus scale="   65.674">  1  9  2 -1</clus>
<clus scale="   91.131">  5  6 -1 -1</clus>
<clus scale="   91.202">  7  8 -1 -1</clus>
<clus scale="  123.708">  2  5  1 -1</clus>
<clus scale="   65.674">  1  5  2 -1</clus>
</clustering>
</event>
<event>
 9    1  0.1321469E-005  0.1117115E+03  0.7546771E-02  0.1258322E+00
         -4   -1    0    0    0  501 -0.00000000000E+00  0.00000000000E+00  0.36499895242E+03  0.36499895242E+03  0.00000000000E+00 0. -1.
         21   -1    0    0  501  502  0.00000000000E+00 -0.00000000000E+00 -0.50191154145E+02  0.50191154145E+02  0.00000000000E+00 0.  1.
         23    2    1    2    0    0  0.54836230531E+02  0.19573471282E+02  0.17542613172E+03  0.20665617618E+03  0.92424642314E+02 0.  0.
         23    2    1    2    0    0 -0.71720044505E+02  0.43142286228E+01  0.13725773227E+03  0.17920482406E+03  0.90068343752E+02 0.  0.
        -11    1    4    4    0    0  0.79241039821E+01 -0.20837431406E+02  0.51032531034E+01  0.22869918315E+02  0.00000000000E+00 0.  1.
         11    1    4    4    0    0 -0.79644148488E+02  0.25151660029E+02  0.13215447917E+03  0.15633490575E+03  0.00000000000E+00 0. -1.
        -13    1    3    3    0    0 -0.14435104871E+02  0.21727775052E+02  0.10364774042E+03  0.10687994459E+03  0.00000000000E+00 0. -1.
         13    1    3    3    0    0  0.69271335403E+02 -0.21543037703E+01  0.71778391302E+02  0.99776231594E+02  0.00000000000E+00 0.  1.
         -4    1    1    2    0  502  0.16883813974E+02 -0.23887699904E+02  0.21239342888E+01  0.29329106326E+02  0.00000000000E+00 0. -1.
<scales pt_clust_5="13000.00000" pt_clust_6="13000.00000" pt_clust_7="13000.00000" pt_clust_8="13000.00000" pt_clust_9="29.25210"></scales>
<clustering>
<clus scale="   29.252">  2  9  1 -1</clus>
<clus scale="   90.068">  5  6 -1 -1</clus>
<clus scale="   92.425">  7  8 -1 -1</clus>
<clus scale="  109.770">  2  5  1 -1</clus>
<clus scale="   29.252">  2  5  1 -1</clus>
</clustering>
</event>
<event>
 9    1  0.1321469E-005  0.1732372E+03  0.7546771E-02  0.1176287E+00
          2   -1    0    0  502    0 -0.00000000000E+00  0.00000000000E+00  0.15890952672E+04  0.15890952672E+04  0.00000000000E+00 0. -1.
         21   -1    0    0  501  502  0.00000000000E+00 -0.00000000000E+00 -0.35762996283E+02  0.35762996283E+02  0.00000000000E+00 0. -1.
         23    2    1    2    0    0  0.23511270777E+02  0.10425325175E+03  0.57358608558E+03  0.59267284854E+03  0.10410853700E+03 0.  0.
         23    2    1    2    0    0 -0.26900417668E+02 -0.17022304234E+03  0.92773615707E+03  0.94811078957E+03  0.92304797083E+02 0.  0.
        -11    1    4    4    0    0  0.25979389654E+02 -0.20722360543E+02  0.10172309901E+03  0.10701370840E+03  0.00000000000E+00 0.  1.
         11    1    4    4    0    0 -0.52879807322E+02 -0.14950068180E+03  0.82601305806E+03  0.84109708118E+03  0.00000000000E+00 0. -1.
        -13    1    3    3    0    0  0.69061639452E+01 -0.21148682688E+02  0.10353720162E+03  0.10590049102E+03  0.00000000000E+00 0. -1.
         13    1    3    3    0    0  0.16605106832E+02  0.12540193444E+03  0.47004888396E+03  0.48677235752E+03  0.00000000000E+00 0.  1.
          2    1    1    2  501    0  0.33891468909E+01  0.65969790590E+02  0.52010028234E+02  0.84074625328E+02  0.00000000000E+00 0. -1.
<scales pt_clust_5="13000.00000" pt_clust_6="13000.00000" pt_clust_7="13000.00000" pt_clust_8="13000.00000" pt_clust_9="66.05679"></scales>
<clustering>
<clus scale="   66.057">  2  9  1 -1</clus>
<clus scale="   92.305">  5  6 -1 -1</clus>
<clus scale="  104.109">  7  8 -1 -1</clus>
<clus scale="  166.411">  2  5  1 -1</clus>
<clus scale="   66.057">  2  5  1 -1</clus>
</clustering>
</event>
<event>
 9    1  0.1321469E-005  0.1012215E+03  0.7546771E-02  0.1278046E+00
          3   -1    0    0  502    0 -0.00000000000E+00  0.00000000000E+00  0.39923739414E+03  0.39923739414E+03  0.00000000000E+00 0. -1.
         21   -1    0    0  501  502  0.00000000000E+00 -0.00000000000E+00 -0.65522971257E+02  0.65522971257E+02  0.00000000000E+00 0.  1.
         23    2    1    2    0    0  0.50619176460E+02 -0.47950533197E+02  0.20688070574E+03  0.23682642043E+03  0.91790916480E+02 0.  0.
         23    2    1    2    0    0  0.10177623957E+02  0.22709365019E+02  0.13069411411E+03  0.16199253024E+03  0.92419311303E+02 0.  0.
        -13    1    4    4    0    0  0.47092748597E+02 -0.68397133816E+01  0.54848534321E+02  0.72614532752E+02  0.00000000000E+00 0.  1.
         13    1    4    4    0    0 -0.36915124641E+02  0.29549078401E+02  0.75845579785E+02  0.89377997485E+02  0.00000000000E+00 0. -1.
        -13    1    3    3    0    0  0.74276650872E+02 -0.46130603319E+02  0.13246869958E+03  0.15872306006E+03  0.00000000000E+00 0.  1.
         13    1    3    3    0    0 -0.23657474413E+02 -0.18199298786E+01  0.74412006156E+02  0.78103360367E+02  0.00000000000E+00 0. -1.
          3    1    1    2  501    0 -0.60796800416E+02  0.25241168178E+02 -0.38603969598E+01  0.65941414730E+02  0.00000000000E+00 0. -1.
<scales pt_clust_5="13000.00000" pt_clust_6="13000.00000" pt_clust_7="13000.00000" pt_clust_8="13000.00000" pt_clust_9="65.82832"></scales>
<clustering>
<clus scale="   65.828">  2  9  1 -1</clus>
<clus scale="   91.791">  7  8 -1 -1</clus>
<clus scale="   92.419">  5  6 -1 -1</clus>
<clus scale="  100.648">  1  7  2 -1</clus>
<clus scale="   65.828">  2  5  1 -1</clus>
</clustering>
</event>
<event>
 9    1  0.1321469E-005  0.9517047E+02  0.7546771E-02  0.1298829E+00
          2   -1    0    0  502    0 -0.00000000000E+00  0.00000000000E+00  0.41139214438E+03  0.41139214438E+03  0.00000000000E+00 0. -1.
         21   -1    0    0  501  502  0.00000000000E+00 -0.00000000000E+00 -0.24792737659E+02  0.24792737659E+02  0.00000000000E+00 0.  1.
         23    2    1    2    0    0 -0.43884067115E+01  0.10288532862E+02  0.18156047135E+03  0.20400876038E+03  0.92359393307E+02 0.  0.
         23    2    1    2    0    0  0.18090315232E+02 -0.28302449855E+02  0.17236016471E+03  0.19242507697E+03  0.78683516019E+02 0.  0.
        -11    1    4    4    0    0 -0.24347501005E+01 -0.47459897792E+02  0.59625318889E+02  0.76246629821E+02  0.00000000000E+00 0.  1.
         11    1    4    4    0    0  0.20525065332E+02  0.19157447937E+02  0.11273484582E+03  0.11617844715E+03  0.00000000000E+00 0. -1.
        -11    1    3    3    0    0 -0.36981489475E+02  0.35647388274E+02  0.91494939105E+02  0.10492707342E+03  0.00000000000E+00 0.  1.
         11    1    3    3    0    0  0.32593082764E+02 -0.25358855413E+02  0.90065532246E+02  0.99081686959E+02  0.00000000000E+00 0. -1.
          2    1    1    2  501    0 -0.13701908520E+02  0.18013916994E+02  0.32678770657E+02  0.39751044693E+02  0.00000000000E+00 0. -1.
<scales pt_clust_5="13000.00000" pt_clust_6="13000.00000" pt_clust_7="13000.00000" pt_clust_8="13000.00000" pt_clust_9="22.63280"></scales>
<clustering>
<clus scale="   22.633">  2  9  1 -1</clus>
<clus scale="   78.684">  5  6 -1 -1</clus>
<clus scale="   81.965">  2  5  1 -1</clus>
<clus scale="   92.359">  7  8 -1 -1</clus>
<clus scale="   22.633">  2  5  1 -1</clus>
</clustering>
</event>
<event>
 9    1  0.1321469E-005  0.1180465E+03  0.7546771E-02  0.1247101E+00
         -3   -1    0    0    0  501 -0.00000000000E+00  0.00000000000E+00  0.14168285371E+03  0.14168285371E+03  0.00000000000E+00 0.  1.
         21   -1    0    0  501  502  0.00000000000E+00 -0.00000000000E+00 -0.12473424897E+03  0.12473424897E+03  0.00000000000E+00 0.  1.
         23    2    1    2    0    0 -0.55841087552E+02 -0.38541526691E+02 -0.31871364730E+01  0.11320785629E+03  0.90565912726E+02 0.  0.
         23    2    1    2    0    0  0.78752795783E+02  0.31673872479E+02  0.81337279300E+00  0.12246083229E+03  0.88265263996E+02 0.  0.
        -11    1    3    3    0    0  0.11774531172E+02 -0.36961598724E+02  0.17392172419E+02  0.42512198555E+02  0.00000000000E+00 0.  1.
         11    1    3    3    0    0 -0.67615618725E+02 -0.15799279670E+01 -0.20579308892E+02  0.70695657733E+02  0.00000000000E+00 0. -1.
        -13    1    4    4    0    0  0.57196984165E+02  0.19815447426E+02  0.42565193721E+02  0.73999612639E+02  0.00000000000E+00 0.  1.
         13    1    4    4    0    0  0.21555811619E+02  0.11858425053E+02 -0.41751820928E+02  0.48461219651E+02  0.00000000000E+00 0. -1.
         -3    1    1    2    0  502 -0.22911708231E+02  0.68676542117E+01  0.19322368424E+02  0.30748414105E+02  0.00000000000E+00 0.  1.
<scales pt_clust_5="13000.00000" pt_clust_6="13000.00000" pt_clust_7="13000.00000" pt_clust_8="13000.00000" pt_clust_9="23.91885"></scales>
<clustering>
<clus scale="   23.919">  2  9  1 -1</clus>
<clus scale="   88.265">  7  8 -1 -1</clus>
<clus scale="   90.566">  5  6 -1 -1</clus>
<clus scale="  116.291">  2  7  1 -1</clus>
<clus scale="   23.919">  2  5  1 -1</clus>
</clustering>
</event>
<event>
 9    1  0.1321469E-005  0.1270666E+03  0.7546771E-02  0.1232905E+00
         21   -1    0    0  501  502  0.00000000000E+00  0.00000000000E+00  0.35480882807E+03  0.35480882807E+03  0.00000000000E+00 0. -1.
          2   -1    0    0  502    0 -0.00000000000E+00 -0.00000000000E+00 -0.31080830715E+03  0.31080830715E+03  0.00000000000E+00 0. -1.
         23    2    1    2    0    0  0.53053311838E+02  0.67091530048E+02 -0.25565934991E+03  0.28492361563E+03  0.92216247207E+02 0.  0.
         23    2    1    2    0    0 -0.63222465288E+02 -0.11289388941E+03  0.29432830199E+03  0.33347388987E+03  0.88507488308E+02 0.  0.
        -11    1    4    4    0    0 -0.14657033172E+02 -0.81222199285E+02  0.24084146157E+03  0.25459081659E+03  0.00000000000E+00 0.  1.
         11    1    4    4    0    0 -0.48565432116E+02 -0.31671690128E+02  0.53486840417E+02  0.78883073279E+02  0.00000000000E+00 0. -1.
        -13    1    3    3    0    0 -0.84275768029E+00  0.27997785031E+02 -0.89770968732E+01  0.29413848362E+02  0.00000000000E+00 0.  1.
         13    1    3    3    0    0  0.53896069518E+02  0.39093745017E+02 -0.24668225303E+03  0.25550976727E+03  0.00000000000E+00 0. -1.
          2    1    1    2  501    0  0.10169153450E+02  0.45802359365E+02  0.53315688292E+01  0.47219629726E+02  0.00000000000E+00 0. -1.
<scales pt_clust_5="13000.00000" pt_clust_6="13000.00000" pt_clust_7="13000.00000" pt_clust_8="13000.00000" pt_clust_9="46.91767"></scales>
<clustering>
<clus scale="   46.918">  1  9  2 -1</clus>
<clus scale="   88.507">  5  6 -1 -1</clus>
<clus scale="   92.216">  7  8 -1 -1</clus>
<clus scale="  124.401">  1  5  2 -1</clus>
<clus scale="   46.918">  1  5  2 -1</clus>
</clustering>
</event>
<event>
 9    1  0.1321469E-005  0.1079361E+03  0.7546771E-02  0.1265952E+00
         21   -1    0    0  501  502  0.00000000000E+00  0.00000000000E+00  0.87545050231E+02  0.87545050231E+02  0.00000000000E+00 0.  1.
         -1   -1    0    0    0  501 -0.00000000000E+00 -0.00000000000E+00 -0.45365970035E+03  0.45365970035E+03  0.00000000000E+00 0.  1.
         23    2    1    2    0    0  0.72348648599E+02  0.52608584049E+02 -0.29001904666E+03  0.31575059298E+03  0.87094198839E+02 0.  0.
         23    2    1    2    0    0 -0.23538803261E+02  0.17612105699E+02 -0.98365298696E+02  0.13708399524E+03  0.90840675011E+02 0.  0.
        -11    1    4    4    0    0 -0.53157470407E+02  0.10927776069E+02 -0.29378701293E+02  0.61710947485E+02  0.00000000000E+00 0.  1.
         11    1    4    4    0    0  0.29618667146E+02  0.66843296301E+01 -0.68986597403E+02  0.75373047751E+02  0.00000000000E+00 0. -1.
        -11    1    3    3    0    0  0.30366352656E+02 -0.22507464038E+02 -0.71026174381E+02  0.80457558740E+02  0.00000000000E+00 0. -1.
         11    1    3    3    0    0  0.41982295942E+02  0.75116048087E+02 -0.21899287227E+03  0.23529303424E+03  0.00000000000E+00 0.  1.
         -1    1    1    2    0  502 -0.48809845337E+02 -0.70220689748E+02  0.22269695237E+02  0.88370162365E+02  0.00000000000E+00 0.  1.
<scales pt_clust_5="13000.00000" pt_clust_6="13000.00000" pt_clust_7="13000.00000" pt_clust_8="13000.00000" pt_clust_9="85.51810"></scales>
<clustering>
<clus scale="   85.518">  1  9  2 -1</clus>
<clus scale="   87.094">  7  8 -1 -1</clus>
<clus scale="   90.841">  5  6 -1 -1</clus>
<clus scale="  104.803">  2  7  1 -1</clus>
<clus scale="   85.518">  1  5  2 -1</clus>
</clustering>
</event>
<event>
 9    1  0.1321469E-005  0.1490879E+03  0.7546771E-02  0.1202014E+00
         21   -1    0    0  501  502  0.00000000000E+00  0.00000000000E+00  0.23816668025E+03  0.23816668025E+03  0.00000000000E+00 0. -1.
          1   -1    0    0  502    0 -0.00000000000E+00 -0.00000000000E+00 -0.50370112998E+03  0.50370112998E+03  0.00000000000E+00 0. -1.
         23    2    1    2    0    0 -0.43128404045E+02 -0.11302739275E+03 -0.37672138585E+03  0.40610526933E+03  0.91472599568E+02 0.  0.
         23    2    1    2    0    0  0.63352428899E+02  0.90290422633E+02 -0.65630537552E+02  0.15634570784E+03  0.89278901385E+02 0.  0.
        -13    1    3    3    0    0 -0.66623250637E+02 -0.10448242319E+03 -0.33815551865E+03  0.36014495565E+03  0.00000000000E+00 0. -1.
         13    1    3    3    0    0  0.23494846592E+02 -0.85449695585E+01 -0.38565867195E+02  0.45960313681E+02  0.00000000000E+00 0.  1.
        -13    1    4    4    0    0  0.83548303398E+02  0.66131142635E+02 -0.34331367772E+02  0.11194771029E+03  0.00000000000E+00 0.  1.
         13    1    4    4    0    0 -0.20195874499E+02  0.24159279999E+02 -0.31299169779E+02  0.44397997542E+02  0.00000000000E+00 0. -1.
          1    1    1    2  501    0 -0.20224024853E+02  0.22736970113E+02  0.17681747367E+03  0.17941683307E+03  0.00000000000E+00 0. -1.
<scales pt_clust_5="13000.00000" pt_clust_6="13000.00000" pt_clust_7="13000.00000" pt_clust_8="13000.00000" pt_clust_9="30.42994"></scales>
<clustering>
<clus scale="   30.430">  1  9  2 -1</clus>
<clus scale="   89.279">  7  8 -1 -1</clus>
<clus scale="   91.473">  5  6 -1 -1</clus>
<clus scale="  147.752">  1  7  2 -1</clus>
<clus scale="   30.430">  1  5  2 -1</clus>
</clustering>
</event>
<event>
 9    1  0.1321469E-005  0.1046903E+03  0.7546771E-02  0.1273093E+00
          2   -1    0    0  502    0 -0.00000000000E+00  0.00000000000E+00  0.18868056028E+03  0.18868056028E+03  0.00000000000E+00 0. -1.
         21   -1    0    0  501  502  0.00000000000E+00 -0.00000000000E+00 -0.14029982405E+03  0.14029982405E+03  0.00000000000E+00 0. -1.
         23    2    1    2    0    0 -0.32891312613E+02  0.53705073921E+02  0.99282178250E+02  0.15131394495E+03  0.95251696088E+02 0.  0.
         23    2    1    2    0    0 -0.61794359675E+01  0.10747537375E+02 -0.46543089284E+02  0.10217036176E+03  0.90104543023E+02 0.  0.
        -13    1    4    4    0    0  0.14242916745E+02 -0.35289654721E+02 -0.83450764895E+01  0.38959731895E+02  0.00000000000E+00 0.  1.
         13    1    4    4    0    0 -0.20422352713E+02  0.46037192096E+02 -0.38198012795E+02  0.63210629864E+02  0.00000000000E+00 0. -1.
        -13    1    3    3    0    0  0.20747054028E+02  0.42474362631E+02  0.12872910797E+02  0.48992076544E+02  0.00000000000E+00 0. -1.
         13    1    3    3    0    0 -0.53638366641E+02  0.11230711290E+02  0.86409267454E+02  0.10232186840E+03  0.00000000000E+00 0.  1.
          2    1    1    2  501    0  0.39070748581E+02 -0.64452611296E+02 -0.43583527292E+01  0.75496077620E+02  0.00000000000E+00 0. -1.
<scales pt_clust_5="13000.00000" pt_clust_6="13000.00000" pt_clust_7="13000.00000" pt_clust_8="13000.00000" pt_clust_9="75.37017"></scales>
<clustering>
<clus scale="   75.370">  2  9  1 -1</clus>
<clus scale="   90.105">  5  6 -1 -1</clus>
<clus scale="   95.252">  7  8 -1 -1</clus>
<clus scale="  100.030">  2  5  1 -1</clus>
<clus scale="   75.370">  2  5  1 -1</clus>
</clustering>
</event>
<event>
 9    1  0.2263572E-005  0.1759471E+03  0.7546771E-02  0.1171866E+00
          4   -1    0    0  502    0 -0.00000000000E+00  0.00000000000E+00  0.33656243556E+03  0.33656243556E+03  0.00000000000E+00 0. -1.
         21   -1    0    0  501  502  0.00000000000E+00 -0.00000000000E+00 -0.30900257509E+03  0.30900257509E+03  0.00000000000E+00 0.  1.
         23    2    1    2    0    0  0.21837332212E+02  0.14709543034E+03  0.26070797935E+03  0.31387851921E+03  0.91853903664E+02 0.  0.
         23    2    1    2    0    0 -0.96260541000E+01 -0.16448336112E+03 -0.24367638917E+03  0.30797362730E+03  0.91225739088E+02 0.  0.
        -11    1    4    4    0    0 -0.37738983020E+02 -0.14996538548E+03 -0.21771181335E+03  0.26704359449E+03  0.00000000000E+00 0.  1.
         11    1    4    4    0    0  0.28112928920E+02 -0.14517975641E+02 -0.25964575814E+02  0.40930032817E+02  0.00000000000E+00 0. -1.
        -11    1    3    3    0    0  0.32142846467E+01  0.48000574356E+02  0.17516321534E+03  0.18164949428E+03  0.00000000000E+00 0. -1.
         11    1    3    3    0    0  0.18623047566E+02  0.99094855985E+02  0.85544764004E+02  0.13222902492E+03  0.00000000000E+00 0.  1.
          4    1    1    2  501    0 -0.12211278112E+02  0.17387930783E+02  0.10528270293E+02  0.23712864134E+02  0.00000000000E+00 0. -1.
<scales pt_clust_5="13000.00000" pt_clust_6="13000.00000" pt_clust_7="13000.00000" pt_clust_8="13000.00000" pt_clust_9="21.24749"></scales>
<clustering>
<clus scale="   21.247">  2  9  1 -1</clus>
<clus scale="   91.226">  5  6 -1 -1</clus>
<clus scale="   91.854">  7  8 -1 -1</clus>
<clus scale="  175.620">  2  5  1 -1</clus>
<clus scale="   21.247">  2  5  1 -1</clus>
</clustering>
</event>
<event>
 9    1  0.1321469E-005  0.1131604E+03  0.7546771E-02  0.1255372E+00
         -3   -1    0    0    0  501 -0.00000000000E+00  0.00000000000E+00  0.10960805082E+03  0.10960805082E+03  0.00000000000E+00 0.  1.
         21   -1    0    0  501  502  0.00000000000E+00 -0.00000000000E+00 -0.18199305464E+03  0.18199305464E+03  0.00000000000E+00 0.  1.
         23    2    1    2    0    0  0.46789454238E+02  0.54253849422E+02  0.14082438646E+02  0.11530167004E+03  0.89238034665E+02 0.  0.
         23    2    1    2    0    0 -0.16747555765E+02 -0.63382459694E+02 -0.37391967075E+02  0.11803924768E+03  0.90759506231E+02 0.  0.
        -11    1    3    3    0    0  0.15780514174E+02 -0.21142250913E+02 -0.12981435450E+02  0.29403011200E+02  0.00000000000E+00 0.  1.
         11    1    3    3    0    0  0.31008940064E+02  0.75396100334E+02  0.27063874096E+02  0.85898658840E+02  0.00000000000E+00 0. -1.
        -13    1    4    4    0    0  0.24002080868E+02 -0.48237136208E+02  0.88164331233E+01  0.54595335777E+02  0.00000000000E+00 0.  1.
         13    1    4    4    0    0 -0.40749636633E+02 -0.15145323485E+02 -0.46208400198E+02  0.63443911907E+02  0.00000000000E+00 0. -1.
         -3    1    1    2    0  502 -0.30041898472E+02  0.91286102720E+01 -0.49075475395E+02  0.58260187732E+02  0.00000000000E+00 0.  1.
<scales pt_clust_5="13000.00000" pt_clust_6="13000.00000" pt_clust_7="13000.00000" pt_clust_8="13000.00000" pt_clust_9="31.39820"></scales>
<clustering>
<clus scale="   31.398">  2  9  1 -1</clus>
<clus scale="   89.238">  5  6 -1 -1</clus>
<clus scale="   90.760">  7  8 -1 -1</clus>
<clus scale="  111.944">  1  5  2 -1</clus>
<clus scale="   31.398">  2  5  1 -1</clus>
</clustering>
</event>
<event>
 9    1  0.1321469E-005  0.1887918E+03  0.7546771E-02  0.1159712E+00
         -3   -1    0    0    0  501 -0.00000000000E+00  0.00000000000E+00  0.73840977704E+02  0.73840977704E+02  0.00000000000E+00 0.  1.
         21   -1    0    0  501  502  0.00000000000E+00 -0.00000000000E+00 -0.82516900677E+03  0.82516900677E+03  0.00000000000E+00 0. -1.
         23    2    1    2    0    0  0.12931597294E+03 -0.99599155626E+02 -0.27255676076E+03  0.33088653788E+03  0.92499191659E+02 0.  0.
         23    2    1    2    0    0 -0.76253695003E+02  0.16082689744E+03 -0.42829016115E+03  0.47266254419E+03  0.91090623003E+02 0.  0.
        -11    1    4    4    0    0 -0.21121799099E+02  0.45148808060E+02 -0.23855976921E+03  0.24371152773E+03  0.00000000000E+00 0. -1.
         11    1    4    4    0    0 -0.55131895905E+02  0.11567808938E+03 -0.18973039194E+03  0.22895101645E+03  0.00000000000E+00 0.  1.
        -13    1    3    3    0    0  0.42114176246E+02 -0.26151549246E+02 -0.19387378415E+02  0.53229482533E+02  0.00000000000E+00 0.  1.
         13    1    3    3    0    0  0.87201796698E+02 -0.73447606379E+02 -0.25316938234E+03  0.27765705535E+03  0.00000000000E+00 0. -1.
         -3    1    1    2    0  502 -0.53062277942E+02 -0.61227741813E+02 -0.50481107165E+02  0.95460902408E+02  0.00000000000E+00 0.  1.
<scales pt_clust_5="13000.00000" pt_clust_6="13000.00000" pt_clust_7="13000.00000" pt_clust_8="13000.00000" pt_clust_9="81.02128"></scales>
<clustering>
<clus scale="   81.021">  2  9  1 -1</clus>
<clus scale="   91.091">  5  6 -1 -1</clus>
<clus scale="   92.499">  7  8 -1 -1</clus>
<clus scale="  188.106">  2  5  1 -1</clus>
<clus scale="   81.021">  2  5  1 -1</clus>
</clustering>
</event>
<event>
 9    1  0.1321469E-005  0.1280421E+03  0.7546771E-02  0.1230410E+00
          3   -1    0    0  502    0 -0.00000000000E+00  0.00000000000E+00  0.17456879276E+03  0.17456879276E+03  0.00000000000E+00 0. -1.
         21   -1    0    0  501  502  0.00000000000E+00 -0.00000000000E+00 -0.24842279534E+03  0.24842279534E+03  0.00000000000E+00 0.  1.
         23    2    1    2    0    0  0.30406176530E+02 -0.91936466474E+02  0.11582640841E+03  0.17592127649E+03  0.90308854483E+02 0.  0.
         23    2    1    2    0    0  0.41695169146E+01  0.60372885187E+02 -0.15270837414E+03  0.18741572461E+03  0.90236002571E+02 0.  0.
        -11    1    4    4    0    0 -0.24986510182E+02  0.38640382833E+02 -0.14235319200E+03  0.14960560200E+03  0.00000000000E+00 0.  1.
         11    1    4    4    0    0  0.29156027097E+02  0.21732502353E+02 -0.10355182142E+02  0.37810122610E+02  0.00000000000E+00 0. -1.
        -11    1    3    3    0    0 -0.16226542095E+02 -0.82255390353E+02  0.63560663434E+02  0.10521030295E+03  0.00000000000E+00 0. -1.
         11    1    3    3    0    0  0.46632718625E+02 -0.96810761207E+01  0.52265744978E+02  0.70710973543E+02  0.00000000000E+00 0.  1.
          3    1    1    2  501    0 -0.34575693445E+02  0.31563581287E+02 -0.36972036857E+02  0.59654587000E+02  0.00000000000E+00 0. -1.
<scales pt_clust_5="13000.00000" pt_clust_6="13000.00000" pt_clust_7="13000.00000" pt_clust_8="13000.00000" pt_clust_9="46.81600"></scales>
<clustering>
<clus scale="   46.816">  2  9  1 -1</clus>
<clus scale="   90.236">  5  6 -1 -1</clus>
<clus scale="   90.309">  7  8 -1 -1</clus>
<clus scale="  127.991">  2  5  1 -1</clus>
<clus scale="   46.816">  2  5  1 -1</clus>
</clustering>
</event>
<event>
 9    1  0.1321469E-005  0.1024696E+03  0.7546771E-02  0.1276528E+00
         -1   -1    0    0    0  501 -0.00000000000E+00  0.00000000000E+00  0.53112593159E+03  0.53112593159E+03  0.00000000000E+00 0.  1.
         21   -1    0    0  501  502  0.00000000000E+00 -0.00000000000E+00 -0.43670851281E+02  0.43670851281E+02  0.00000000000E+00 0.  1.
         23    2    1    2    0    0 -0.54133491681E+02 -0.10911136281E+02  0.25012643859E+03  0.27141463844E+03  0.89739527860E+02 0.  0.
         23    2    1    2    0    0  0.24882124969E+02 -0.47710490916E+02  0.20273686505E+03  0.22929619001E+03  0.92623405335E+02 0.  0.
        -11    1    3    3    0    0 -0.34968512838E+02 -0.50398159131E+02  0.13895907535E+03  0.15189600376E+03  0.00000000000E+00 0.  1.
         11    1    3    3    0    0 -0.19164978843E+02  0.39487022849E+02  0.11116736323E+03  0.11951863468E+03  0.00000000000E+00 0. -1.
        -13    1    4    4    0    0  0.55180651612E+02 -0.21893221024E+02  0.16111296869E+03  0.17170208537E+03  0.00000000000E+00 0.  1.
         13    1    4    4    0    0 -0.30298526643E+02 -0.25817269891E+02  0.41623896359E+02  0.57594104642E+02  0.00000000000E+00 0. -1.
         -1    1    1    2    0  502  0.29251366712E+02  0.58621627197E+02  0.34591776669E+02  0.74085954424E+02  0.00000000000E+00 0.  1.
<scales pt_clust_5="13000.00000" pt_clust_6="13000.00000" pt_clust_7="13000.00000" pt_clust_8="13000.00000" pt_clust_9="65.51441"></scales>
<clustering>
<clus scale="   65.514">  2  9  1 -1</clus>
<clus scale="   89.740">  5  6 -1 -1</clus>
<clus scale="   92.623">  7  8 -1 -1</clus>
<clus scale="   99.870">  1  5  2 -1</clus>
<clus scale="   65.514">  2  5  1 -1</clus>
</clustering>
</event>
<event>
 9    1  0.1321469E-005  0.1163807E+03  0.7546771E-02  0.1249768E+00
         -1   -1    0    0    0  501 -0.00000000000E+00  0.00000000000E+00  0.12763154374E+03  0.12763154374E+03  0.00000000000E+00 0.  1.
         21   -1    0    0  501  502  0.00000000000E+00 -0.00000000000E+00 -0.41670203878E+03  0.41670203878E+03  0.00000000000E+00 0.  1.
         23    2    1    2    0    0 -0.46246547585E+02 -0.44837491463E+02  0.46866865314E+02  0.12040354486E+03  0.90284919814E+02 0.  0.
         23    2    1    2    0    0  0.24336672598E+02  0.10229124347E+03 -0.80584821179E+02  0.16127837575E+03  0.91983851608E+02 0.  0.
        -13    1    3    3    0    0 -0.45027486191E+02 -0.65896745392E+01  0.63956107867E+02  0.78493834514E+02  0.00000000000E+00 0.  1.
         13    1    3    3    0    0 -0.12190613945E+01 -0.38247816924E+02 -0.17089242553E+02  0.41909710344E+02  0.00000000000E+00 0. -1.
        -13    1    4    4    0    0  0.34684436825E+02  0.70812056307E+02 -0.96417417648E+02  0.12455390761E+03  0.00000000000E+00 0.  1.
         13    1    4    4    0    0 -0.10347764227E+02  0.31479187162E+02  0.15832596469E+02  0.36724468135E+02  0.00000000000E+00 0. -1.
         -1    1    1    2    0  502  0.21909874988E+02 -0.57453752006E+02 -0.25535253918E+03  0.26265166191E+03  0.00000000000E+00 0.  1.
<scales pt_clust_5="13000.00000" pt_clust_6="13000.00000" pt_clust_7="13000.00000" pt_clust_8="13000.00000" pt_clust_9="61.48964"></scales>
<clustering>
<clus scale="   61.490">  2  9  1 -1</clus>
<clus scale="   90.285">  5  6 -1 -1</clus>
<clus scale="   91.984">  7  8 -1 -1</clus>
<clus scale="  115.043">  1  5  2 -1</clus>
<clus scale="   61.490">  2  5  1 -1</clus>
</clustering>
</event>
<event>
 9    1  0.1321469E-005  0.1058752E+03  0.7546771E-02  0.1268627E+00
         -2   -1    0    0    0  501 -0.00000000000E+00  0.00000000000E+00  0.24583601732E+03  0.24583601732E+03  0.00000000000E+00 0.  1.
         21   -1    0    0  501  502  0.00000000000E+00 -0.00000000000E+00 -0.94207582014E+02  0.94207582014E+02  0.00000000000E+00 0.  1.
         23    2    1    2    0    0  0.50445709146E+02  0.40624688484E+02  0.12321548432E+03  0.16631672499E+03  0.91016825640E+02 0.  0.
         23    2    1    2    0    0 -0.41670539488E+02  0.17316500595E+02 -0.13031572195E+02  0.10195060043E+03  0.90486507287E+02 0.  0.
        -11    1    3    3    0    0 -0.24801553616E+02  0.22008506227E+02  0.47741218662E+02  0.58126718190E+02  0.00000000000E+00 0. -1.
         11    1    3    3    0    0  0.75247262762E+02  0.18616182257E+02  0.75474265659E+02  0.10819000680E+03  0.00000000000E+00 0.  1.
        -13    1    4    4    0    0 -0.34351814053E+02 -0.21003278104E+02  0.25060281016E+02  0.47425757816E+02  0.00000000000E+00 0. -1.
         13    1    4    4    0    0 -0.73187254354E+01  0.38319778700E+02 -0.38091853211E+02  0.54524842619E+02  0.00000000000E+00 0.  1.
         -2    1    1    2    0  502 -0.87751696578E+01 -0.57941189080E+02  0.41444523178E+02  0.71776273907E+02  0.00000000000E+00 0.  1.
<scales pt_clust_5="13000.00000" pt_clust_6="13000.00000" pt_clust_7="13000.00000" pt_clust_8="13000.00000" pt_clust_9="58.60195"></scales>
<clustering>
<clus scale="   58.602">  2  9  1 -1</clus>
<clus scale="   90.487">  7  8 -1 -1</clus>
<clus scale="   91.017">  5  6 -1 -1</clus>
<clus scale="  105.420">  2  7  1 -1</clus>
<clus scale="   58.602">  2  5  1 -1</clus>
</clustering>
</event>
<event>
 9    1  0.1321469E-005  0.1519878E+03  0.7546771E-02  0.1198471E+00
         21   -1    0    0  501  502  0.00000000000E+00  0.00000000000E+00  0.29656947128E+03  0.29656947128E+03  0.00000000000E+00 0. -1.
          1   -1    0    0  502    0 -0.00000000000E+00 -0.00000000000E+00 -0.44418447726E+03  0.44418447726E+03  0.00000000000E+00 0. -1.
         23    2    1    2    0    0 -0.88432263088E+02 -0.87648517261E+02 -0.37696315888E+03  0.40733869725E+03  0.91219862918E+02 0.  0.
         23    2    1    2    0    0  0.92457298802E+02  0.52568250049E+02  0.45034856432E+02  0.14575007786E+03  0.88899796892E+02 0.  0.
        -11    1    4    4    0    0  0.72045201336E+02  0.53717187119E+02  0.69689252445E+02  0.11372176192E+03  0.00000000000E+00 0.  1.
         11    1    4    4    0    0  0.20412097466E+02 -0.11489370694E+01 -0.24654396013E+02  0.32028315942E+02  0.00000000000E+00 0. -1.
        -11    1    3    3    0    0 -0.55407070586E+02  0.49932782574E+01 -0.14988976190E+03  0.15988063367E+03  0.00000000000E+00 0.  1.
         11    1    3    3    0    0 -0.33025192502E+02 -0.92641795519E+02 -0.22707339698E+03  0.24745806358E+03  0.00000000000E+00 0. -1.
          1    1    1    2  501    0 -0.40250357143E+01  0.35080267212E+02  0.18431329648E+03  0.18766517343E+03  0.00000000000E+00 0. -1.
<scales pt_clust_5="13000.00000" pt_clust_6="13000.00000" pt_clust_7="13000.00000" pt_clust_8="13000.00000" pt_clust_9="35.31042"></scales>
<clustering>
<clus scale="   35.310">  1  9  2 -1</clus>
<clus scale="   88.900">  5  6 -1 -1</clus>
<clus scale="   91.220">  7  8 -1 -1</clus>
<clus scale="  150.607">  1  5  2 -1</clus>
<clus scale="   35.310">  1  5  2 -1</clus>
</clustering>
</event>
<event>
 9    1  0.1321469E-005  0.9726040E+02  0.7546771E-02  0.1287442E+00
         21   -1    0    0  501  502  0.00000000000E+00  0.00000000000E+00  0.16436316591E+03  0.16436316591E+03  0.00000000000E+00 0. -1.
          1   -1    0    0  502    0 -0.00000000000E+00 -0.00000000000E+00 -0.13102703257E+03  0.13102703257E+03  0.00000000000E+00 0. -1.
         23    2    1    2    0    0  0.30512533347E+02 -0.19821340489E+02 -0.77919572190E+02  0.12649618653E+03  0.92768126241E+02 0.  0.
         23    2    1    2    0    0 -0.13989211422E+01 -0.24960953560E+01  0.79021854425E+02  0.12006070860E+03  0.90343415926E+02 0.  0.
        -13    1    3    3    0    0 -0.17844142325E+02  0.22656817925E+02 -0.50634968427E+01  0.29281117022E+02  0.00000000000E+00 0.  1.
         13    1    3    3    0    0  0.48356675672E+02 -0.42478158414E+02 -0.72856075347E+02  0.97215069507E+02  0.00000000000E+00 0. -1.
        -13    1    4    4    0    0 -0.39709360473E+02  0.11690034304E+02  0.64624925847E+02  0.76745496623E+02  0.00000000000E+00 0.  1.
         13    1    4    4    0    0  0.38310439331E+02 -0.14186129660E+02  0.14396928578E+02  0.43315211980E+02  0.00000000000E+00 0. -1.
          1    1    1    2  501    0 -0.29113612205E+02  0.22317435845E+02  0.32233851109E+02  0.48833303345E+02  0.00000000000E+00 0. -1.
<scales pt_clust_5="13000.00000" pt_clust_6="13000.00000" pt_clust_7="13000.00000" pt_clust_8="13000.00000" pt_clust_9="36.68338"></scales>
<clustering>
<clus scale="   36.683">  1  9  2 -1</clus>
<clus scale="   90.343">  7  8 -1 -1</clus>
<clus scale="   92.768">  5  6 -1 -1</clus>
<clus scale="   94.950">  1  7  2 -1</clus>
<clus scale="   36.683">  1  5  2 -1</clus>
</clustering>
</event>
<event>
 9    1  0.1321469E-005  0.1076197E+03  0.7546771E-02  0.1265715E+00
         21   -1    0    0  501  502  0.00000000000E+00  0.00000000000E+00  0.14793217288E+03  0.14793217288E+03  0.00000000000E+00 0.  1.
         -1   -1    0    0    0  501 -0.00000000000E+00 -0.00000000000E+00 -0.45308307008E+03  0.45308307008E+03  0.00000000000E+00 0.  1.
         23    2    1    2    0    0 -0.21538949972E+02  0.54513467586E+02 -0.35504577659E+03  0.37129442455E+03  0.91468036565E+02 0.  0.
         23    2    1    2    0    0  0.47553565337E+02 -0.31957110365E+02 -0.54592557739E+02  0.11970639216E+03  0.89814667428E+02 0.  0.
        -13    1    4    4    0    0  0.64419418068E+02 -0.76829347566E+01 -0.61454697549E+02  0.89362009610E+02  0.00000000000E+00 0.  1.
         13    1    4    4    0    0 -0.16865852731E+02 -0.24274175609E+02  0.68621398102E+01  0.30344382554E+02  0.00000000000E+00 0. -1.
        -13    1    3    3    0    0 -0.12563590823E+02  0.80292380105E+02 -0.25983059829E+03  0.27224373257E+03  0.00000000000E+00 0.  1.
         13    1    3    3    0    0 -0.89753591489E+01 -0.25778912518E+02 -0.95215178298E+02  0.99050691976E+02  0.00000000000E+00 0. -1.
         -1    1    1    2    0  502 -0.26014615366E+02 -0.22556357221E+02  0.10448743713E+03  0.11001442624E+03  0.00000000000E+00 0.  1.
<scales pt_clust_5="13000.00000" pt_clust_6="13000.00000" pt_clust_7="13000.00000" pt_clust_8="13000.00000" pt_clust_9="34.43181"></scales>
<clustering>
<clus scale="   34.432">  1  9  2 -1</clus>
<clus scale="   89.815">  5  6 -1 -1</clus>
<clus scale="   91.468">  7  8 -1 -1</clus>
<clus scale="  106.218">  1  5  2 -1</clus>
<clus scale="   34.432">  1  5  2 -1</clus>
</clustering>
</event>
<event>
 9    1  0.1321469E-005  0.9994658E+02  0.7546771E-02  0.1282280E+00
          2   -1    0    0  502    0 -0.00000000000E+00  0.00000000000E+00  0.31578511179E+03  0.31578511179E+03  0.00000000000E+00 0. -1.
         21   -1    0    0  501  502  0.00000000000E+00 -0.00000000000E+00 -0.62677352809E+02  0.62677352809E+02  0.00000000000E+00 0. -1.
         23    2    1    2    0    0 -0.23146680411E+02  0.72212568905E+01  0.14586343479E+03  0.17746527626E+03  0.98131887294E+02 0.  0.
         23    2    1    2    0    0 -0.12638818228E+02 -0.29950258604E+02  0.12048727602E+03  0.15658339314E+03  0.94574931179E+02 0.  0.
        -11    1    3    3    0    0  0.30130072602E+02 -0.44911516264E+01  0.11693279471E+02  0.32630116499E+02  0.00000000000E+00 0.  1.
         11    1    3    3    0    0 -0.53276753013E+02  0.11712408517E+02  0.13417015532E+03  0.14483515976E+03  0.00000000000E+00 0. -1.
        -13    1    4    4    0    0 -0.45258917684E+02  0.12016900142E+02  0.58184593363E+02  0.74687498443E+02  0.00000000000E+00 0.  1.
         13    1    4    4    0    0  0.32620099456E+02 -0.41967158746E+02  0.62302682656E+02  0.81895894695E+02  0.00000000000E+00 0. -1.
          2    1    1    2  501    0  0.35785498639E+02  0.22729001714E+02 -0.13242951821E+02  0.44413795207E+02  0.00000000000E+00 0. -1.
<scales pt_clust_5="13000.00000" pt_clust_6="13000.00000" pt_clust_7="13000.00000" pt_clust_8="13000.00000" pt_clust_9="42.39351"></scales>
<clustering>
<clus scale="   42.394">  2  9  1 -1</clus>
<clus scale="   94.575">  7  8 -1 -1</clus>
<clus scale="   96.457">  2  7  1 -1</clus>
<clus scale="   98.132">  5  6 -1 -1</clus>
<clus scale="   42.394">  2  5  1 -1</clus>
</clustering>
</event>
<event>
 9    1  0.1321469E-005  0.1084739E+03  0.7546771E-02  0.1264061E+00
         -1   -1    0    0    0  501 -0.00000000000E+00  0.00000000000E+00  0.35415382398E+03  0.35415382398E+03  0.00000000000E+00 0.  1.
         21   -1    0    0  501  502  0.00000000000E+00 -0.00000000000E+00 -0.93622725792E+02  0.93622725792E+02  0.00000000000E+00 0. -1.
         23    2    1    2    0    0 -0.45689302563E+02  0.97528419071E+01  0.23742966565E+03  0.25941684238E+03  0.93496639987E+02 0.  0.
         23    2    1    2    0    0  0.86454674218E+02 -0.39439774521E+02  0.34528958405E+02  0.13665170180E+03  0.91932214860E+02 0.  0.
        -13    1    4    4    0    0  0.89539479246E+02 -0.47065495197E+01  0.31133347661E+01  0.89717126600E+02  0.00000000000E+00 0. -1.
         13    1    4    4    0    0 -0.30848050273E+01 -0.34733225001E+02  0.31415623639E+02  0.46934575205E+02  0.00000000000E+00 0.  1.
        -13    1    3    3    0    0 -0.23111194318E+02  0.44054136286E+02  0.19127306241E+03  0.19763673402E+03  0.00000000000E+00 0.  1.
         13    1    3    3    0    0 -0.22578108245E+02 -0.34301294379E+02  0.46156603232E+02  0.61780108367E+02  0.00000000000E+00 0. -1.
         -1    1    1    2    0  502 -0.40765371656E+02  0.29686932614E+02 -0.11427525862E+02  0.51708005585E+02  0.00000000000E+00 0.  1.
<scales pt_clust_5="13000.00000" pt_clust_6="13000.00000" pt_clust_7="13000.00000" pt_clust_8="13000.00000" pt_clust_9="50.42945"></scales>
<clustering>
<clus scale="   50.429">  2  9  1 -1</clus>
<clus scale="   91.932">  5  6 -1 -1</clus>
<clus scale="   93.497">  7  8 -1 -1</clus>
<clus scale="  107.128">  2  5  1 -1</clus>
<clus scale="   50.429">  2  5  1 -1</clus>
</clustering>
</event>
<event>
 9    1  0.1321469E-005  0.1068581E+03  0.7546771E-02  0.1266534E+00
          1   -1    0    0  502    0 -0.00000000000E+00  0.00000000000E+00  0.37134372172E+03  0.37134372172E+03  0.00000000000E+00 0. -1.
         21   -1    0    0  501  502  0.00000000000E+00 -0.00000000000E+00 -0.44964356948E+02  0.44964356948E+02  0.00000000000E+00 0.  1.
         23    2    1    2    0    0  0.62963024445E+02  0.52516587670E+01  0.21828290312E+03  0.24511752481E+03  0.91887174320E+02 0.  0.
         23    2    1    2    0    0 -0.41421885210E+02 -0.70759971808E+01  0.11021076735E+03  0.14946915477E+03  0.91808347537E+02 0.  0.
        -11    1    3    3    0    0 -0.12768137282E+02  0.24378965319E+02  0.27231860644E+02  0.38716062737E+02  0.00000000000E+00 0. -1.
         11    1    3    3    0    0  0.75731161727E+02 -0.19127306552E+02  0.19105104248E+03  0.20640146207E+03  0.00000000000E+00 0.  1.
        -11    1    4    4    0    0  0.13032936863E+02  0.20514228992E+02  0.96354979969E+00  0.24323228869E+02  0.00000000000E+00 0. -1.
         11    1    4    4    0    0 -0.54454822073E+02 -0.27590226173E+02  0.10924721755E+03  0.12514592590E+03  0.00000000000E+00 0.  1.
          1    1    1    2  501    0 -0.21541139235E+02  0.18243384138E+01 -0.21143056942E+01  0.21721399097E+02  0.00000000000E+00 0. -1.
<scales pt_clust_5="13000.00000" pt_clust_6="13000.00000" pt_clust_7="13000.00000" pt_clust_8="13000.00000" pt_clust_9="21.61825"></scales>
<clustering>
<clus scale="   21.618">  2  9  1 -1</clus>
<clus scale="   91.808">  7  8 -1 -1</clus>
<clus scale="   91.887">  5  6 -1 -1</clus>
<clus scale="  106.790">  2  7  1 -1</clus>
<clus scale="   21.618">  2  5  1 -1</clus>
</clustering>
</event>
<event>
 9    1  0.1321469E-005  0.1061897E+03  0.7546771E-02  0.1268740E+00
         21   -1    0    0  501  502  0.00000000000E+00  0.00000000000E+00  0.41939823112E+02  0.41939823112E+02  0.00000000000E+00 0. -1.
          1   -1    0    0  502    0 -0.00000000000E+00 -0.00000000000E+00 -0.94275885752E+03  0.94275885752E+03  0.00000000000E+00 0. -1.
         23    2    1    2    0    0 -0.24522233247E+02 -0.45877819967E+02 -0.44998875454E+03  0.46232140315E+03  0.92439635996E+02 0.  0.
         23    2    1    2    0    0 -0.69635496595E+02  0.48570262167E+02 -0.39012695018E+03  0.41031559104E+03  0.94613287866E+02 0.  0.
        -11    1    4    4    0    0 -0.52553104562E+02  0.76296935294E+02 -0.31709108353E+03  0.33034800799E+03  0.00000000000E+00 0. -1.
         11    1    4    4    0    0 -0.17082392033E+02 -0.27726673127E+02 -0.73035866658E+02  0.79967583049E+02  0.00000000000E+00 0.  1.
        -11    1    3    3    0    0  0.34297198889E+02 -0.78618677691E+01 -0.17924655821E+03  0.18266755445E+03  0.00000000000E+00 0.  1.
         11    1    3    3    0    0 -0.58819432136E+02 -0.38015952198E+02 -0.27074219633E+03  0.27965384870E+03  0.00000000000E+00 0. -1.
          1    1    1    2  501    0  0.94157729842E+02 -0.26924422002E+01 -0.60703329680E+02  0.11206168644E+03  0.00000000000E+00 0. -1.
<scales pt_clust_5="13000.00000" pt_clust_6="13000.00000" pt_clust_7="13000.00000" pt_clust_8="13000.00000" pt_clust_9="94.19622"></scales>
<clustering>
<clus scale="   92.440">  7  8 -1 -1</clus>
<clus scale="   94.196">  1  9  2 -1</clus>
<clus scale="   94.613">  5  6 -1 -1</clus>
<clus scale="  104.258">  2  7  1 -1</clus>
<clus scale="   94.196">  1  5  2 -1</clus>
</clustering>
</event>
<event>
 9    1  0.1321469E-005  0.1325258E+03  0.7546771E-02  0.1227011E+00
          2   -1    0    0  502    0 -0.00000000000E+00  0.00000000000E+00  0.36338645796E+03  0.36338645796E+03  0.00000000000E+00 0. -1.
         21   -1    0    0  501  502  0.00000000000E+00 -0.00000000000E+00 -0.78344741883E+02  0.78344741883E+02  0.00000000000E+00 0. -1.
         23    2    1    2    0    0  0.57602173383E+02 -0.68010296464E+02  0.22496531050E+03  0.25859932849E+03  0.91218479303E+02 0.  0.
         23    2    1    2    0    0 -0.79956097744E+02  0.81225781365E+02  0.70558429217E+02  0.15512794672E+03  0.78074213372E+02 0.  0.
        -13    1    3    3    0    0 -0.20973155213E+02 -0.97931602249E+01  0.16778797033E+02  0.28588586126E+02  0.00000000000E+00 0.  1.
         13    1    3    3    0    0  0.78575328597E+02 -0.58217136239E+02  0.20818651346E+03  0.23001074237E+03  0.00000000000E+00 0. -1.
        -13    1    4    4    0    0  0.87802197518E+01  0.19345235912E+02 -0.66035053567E+01  0.22247172728E+02  0.00000000000E+00 0.  1.
         13    1    4    4    0    0 -0.88736317496E+02  0.61880545454E+02  0.77161934574E+02  0.13288077399E+03  0.00000000000E+00 0. -1.
          2    1    1    2  501    0  0.22353924361E+02 -0.13215484902E+02 -0.10482023636E+02  0.28003924636E+02  0.00000000000E+00 0. -1.
<scales pt_clust_5="13000.00000" pt_clust_6="13000.00000" pt_clust_7="13000.00000" pt_clust_8="13000.00000" pt_clust_9="25.96819"></scales>
<clustering>
<clus scale="   25.968">  2  9  1 -1</clus>
<clus scale="   78.074">  7  8 -1 -1</clus>
<clus scale="   91.218">  5  6 -1 -1</clus>
<clus scale="  123.846">  2  7  1 -1</clus>
<clus scale="   25.968">  2  5  1 -1</clus>
</clustering>
</event>
<event>
 9    1  0.1321469E-005  0.9620400E+02  0.7546771E-02  0.1289712E+00
         21   -1    0    0  501  502  0.00000000000E+00  0.00000000000E+00  0.51256086751E+02  0.51256086751E+02  0.00000000000E+00 0.  1.
          3   -1    0    0  502    0 -0.00000000000E+00 -0.00000000000E+00 -0.33044978406E+03  0.33044978406E+03  0.00000000000E+00 0. -1.
         23    2    1    2    0    0 -0.21365332438E+02  0.37558427829E+01 -0.14940522642E+03  0.17627264763E+03  0.90991982268E+02 0.  0.
         23    2    1    2    0    0  0.23943734874E+02  0.19018657056E+02 -0.14701684243E+03  0.17676019076E+03  0.93248063380E+02 0.  0.
        -11    1    4    4    0    0  0.27869563612E+02 -0.17150561657E+02 -0.13428554841E+03  0.13821527720E+03  0.00000000000E+00 0. -1.
         11    1    4    4    0    0 -0.39258287380E+01  0.36169218714E+02 -0.12731294018E+02  0.38544913556E+02  0.00000000000E+00 0.  1.
        -11    1    3    3    0    0  0.34418804497E+00  0.44208320204E+02 -0.49775224661E+02  0.66573771343E+02  0.00000000000E+00 0.  1.
         11    1    3    3    0    0 -0.21709520483E+02 -0.40452477421E+02 -0.99630001759E+02  0.10969887629E+03  0.00000000000E+00 0. -1.
          3    1    1    2  501    0 -0.25784024368E+01 -0.22774499839E+02  0.17228371539E+02  0.28673032416E+02  0.00000000000E+00 0. -1.
<scales pt_clust_5="13000.00000" pt_clust_6="13000.00000" pt_clust_7="13000.00000" pt_clust_8="13000.00000" pt_clust_9="22.91999"></scales>
<clustering>
<clus scale="   22.920">  1  9  2 -1</clus>
<clus scale="   90.992">  7  8 -1 -1</clus>
<clus scale="   93.248">  5  6 -1 -1</clus>
<clus scale="   94.019">  2  7  1 -1</clus>
<clus scale="   22.920">  1  5  2 -1</clus>
</clustering>
</event>
<event>
 9    1  0.1321469E-005  0.9984743E+02  0.7546771E-02  0.1281353E+00
         21   -1    0    0  501  502  0.00000000000E+00  0.00000000000E+00  0.11205675996E+03  0.11205675996E+03  0.00000000000E+00 0. -1.
          2   -1    0    0  502    0 -0.00000000000E+00 -0.00000000000E+00 -0.35893505925E+03  0.35893505925E+03  0.00000000000E+00 0. -1.
         23    2    1    2    0    0 -0.39614693878E+01 -0.46101958105E+02 -0.26307281133E+03  0.28193555049E+03  0.90217885063E+02 0.  0.
         23    2    1    2    0    0 -0.57893349271E+01  0.20679034273E+02 -0.57583788533E+02  0.11041378098E+03  0.91728793038E+02 0.  0.
        -11    1    4    4    0    0 -0.17117512191E+02 -0.33293821734E+02 -0.33495054463E+02  0.50233519314E+02  0.00000000000E+00 0. -1.
         11    1    4    4    0    0  0.11328177264E+02  0.53972856007E+02 -0.24088734070E+02  0.60180261671E+02  0.00000000000E+00 0.  1.
        -13    1    3    3    0    0 -0.25440250435E+02  0.12380061486E+02 -0.15175027096E+03  0.15436520658E+03  0.00000000000E+00 0. -1.
         13    1    3    3    0    0  0.21478781047E+02 -0.58482019592E+02 -0.11132254037E+03  0.12757034391E+03  0.00000000000E+00 0.  1.
          2    1    1    2  501    0  0.97508043149E+01  0.25422923832E+02  0.73778300580E+02  0.78642487737E+02  0.00000000000E+00 0. -1.
<scales pt_clust_5="13000.00000" pt_clust_6="13000.00000" pt_clust_7="13000.00000" pt_clust_8="13000.00000" pt_clust_9="27.22872"></scales>
<clustering>
<clus scale="   27.229">  1  9  2 -1</clus>
<clus scale="   90.218">  7  8 -1 -1</clus>
<clus scale="   91.729">  5  6 -1 -1</clus>
<clus scale="   98.461">  2  7  1 -1</clus>
<clus scale="   27.229">  1  5  2 -1</clus>
</clustering>
</event>
<event>
 9    1  0.1321469E-005  0.1000083E+03  0.7546771E-02  0.1280855E+00
         21   -1    0    0  501  502  0.00000000000E+00  0.00000000000E+00  0.11387546161E+03  0.11387546161E+03  0.00000000000E+00 0. -1.
         -1   -1    0    0    0  501 -0.00000000000E+00 -0.00000000000E+00 -0.21098160440E+03  0.21098160440E+03  0.00000000000E+00 0.  1.
         23    2    1    2    0    0 -0.41439463673E+02 -0.17983068976E+02 -0.13949226507E+03  0.17309441845E+03  0.91994378972E+02 0.  0.
         23    2    1    2    0    0  0.36309461232E+01  0.35467072680E+02  0.82447915084E+01  0.97903527148E+02  0.90807637491E+02 0.  0.
        -11    1    3    3    0    0 -0.39036054722E+02  0.33166863757E+02 -0.66870148782E+02  0.84234620067E+02  0.00000000000E+00 0. -1.
         11    1    3    3    0    0 -0.24034089502E+01 -0.51149932733E+02 -0.72622116292E+02  0.88859798379E+02  0.00000000000E+00 0.  1.
        -13    1    4    4    0    0 -0.39880643720E+02  0.21235792799E+02 -0.13592166632E+02  0.47182323312E+02  0.00000000000E+00 0. -1.
         13    1    4    4    0    0  0.43511589843E+02  0.14231279881E+02  0.21836958140E+02  0.50721203836E+02  0.00000000000E+00 0.  1.
         -1    1    1    2    0  502  0.37808517549E+02 -0.17484003704E+02  0.34141330770E+02  0.53859120412E+02  0.00000000000E+00 0.  1.
<scales pt_clust_5="13000.00000" pt_clust_6="13000.00000" pt_clust_7="13000.00000" pt_clust_8="13000.00000" pt_clust_9="41.65542"></scales>
<clustering>
<clus scale="   41.655">  1  9  2 -1</clus>
<clus scale="   90.808">  7  8 -1 -1</clus>
<clus scale="   91.994">  5  6 -1 -1</clus>
<clus scale="   98.918">  1  7  2 -1</clus>
<clus scale="   41.655">  1  5  2 -1</clus>
</clustering>
</event>
<event>
 9    1  0.1321469E-005  0.2406974E+03  0.7546771E-02  0.1119395E+00
         21   -1    0    0  501  502  0.00000000000E+00  0.00000000000E+00  0.14039010587E+03  0.14039010587E+03  0.00000000000E+00 0. -1.
          1   -1    0    0  502    0 -0.00000000000E+00 -0.00000000000E+00 -0.57323226856E+03  0.57323226856E+03  0.00000000000E+00 0. -1.
         23    2    1    2    0    0  0.20883618159E+03 -0.20713288708E+02 -0.28514415748E+03  0.36595794451E+03  0.92609046723E+02 0.  0.
         23    2    1    2    0    0 -0.23984715309E+03  0.41152805693E+02 -0.16299450241E+03  0.30749681816E+03  0.93631592419E+02 0.  0.
        -13    1    4    4    0    0 -0.39373128712E+02  0.45399931773E+02 -0.41709662182E+02  0.73151165328E+02  0.00000000000E+00 0.  1.
         13    1    4    4    0    0 -0.20047402438E+03 -0.42471260804E+01 -0.12128484023E+03  0.23434565283E+03  0.00000000000E+00 0. -1.
        -13    1    3    3    0    0  0.12535681622E+03  0.23345347983E+02 -0.11662073652E+03  0.17279968990E+03  0.00000000000E+00 0.  1.
         13    1    3    3    0    0  0.83479365372E+02 -0.44058636691E+02 -0.16852342096E+03  0.19315825461E+03  0.00000000000E+00 0. -1.
          1    1    1    2  501    0  0.31010971505E+02 -0.20439516985E+02  0.15296497191E+02  0.40167611761E+02  0.00000000000E+00 0. -1.
<scales pt_clust_5="13000.00000" pt_clust_6="13000.00000" pt_clust_7="13000.00000" pt_clust_8="13000.00000" pt_clust_9="37.14100"></scales>
<clustering>
<clus scale="   37.141">  1  9  2 -1</clus>
<clus scale="   92.609">  7  8 -1 -1</clus>
<clus scale="   93.632">  5  6 -1 -1</clus>
<clus scale="  240.301">  2  7  1 -1</clus>
<clus scale="   37.141">  1  5  2 -1</clus>
</clustering>
</event>
<event>
 9    1  0.1321469E-005  0.1044513E+03  0.7546771E-02  0.1272248E+00
          1   -1    0    0  502    0 -0.00000000000E+00  0.00000000000E+00  0.21137417239E+03  0.21137417239E+03  0.00000000000E+00 0. -1.
         21   -1    0    0  501  502  0.00000000000E+00 -0.00000000000E+00 -0.12504337514E+03  0.12504337514E+03  0.00000000000E+00 0. -1.
         23    2    1    2    0    0  0.90087581579E+01 -0.68904327611E+02  0.12450336154E+03  0.16999368854E+03  0.92562427704E+02 0.  0.
         23    2    1    2    0    0  0.53601090175E+01  0.95707779682E+01  0.59994307902E+01  0.91070693121E+02  0.90208355579E+02 0.  0.
        -13    1    4    4    0    0 -0.33104996397E+02  0.22463403234E+02  0.24037747649E+02  0.46672889168E+02  0.00000000000E+00 0. -1.
         13    1    4    4    0    0  0.38465105414E+02 -0.12892625266E+02 -0.18038316858E+02  0.44397803953E+02  0.00000000000E+00 0.  1.
        -13    1    3    3    0    0 -0.21889461768E+01  0.21585895933E+02  0.10769407779E+02  0.24222356047E+02  0.00000000000E+00 0.  1.
         13    1    3    3    0    0  0.11197704335E+02 -0.90490223544E+02  0.11373395376E+03  0.14577133249E+03  0.00000000000E+00 0. -1.
          1    1    1    2  501    0 -0.14368867175E+02  0.59333549643E+02 -0.44171995077E+02  0.75353165867E+02  0.00000000000E+00 0. -1.
<scales pt_clust_5="13000.00000" pt_clust_6="13000.00000" pt_clust_7="13000.00000" pt_clust_8="13000.00000" pt_clust_9="61.04862"></scales>
<clustering>
<clus scale="   61.049">  2  9  1 -1</clus>
<clus scale="   90.208">  5  6 -1 -1</clus>
<clus scale="   92.562">  7  8 -1 -1</clus>
<clus scale="  102.371">  2  5  1 -1</clus>
<clus scale="   61.049">  2  5  1 -1</clus>
</clustering>
</event>
<event>
 9    1  0.1321469E-005  0.1064961E+03  0.7546771E-02  0.1267205E+00
          1   -1    0    0  502    0 -0.00000000000E+00  0.00000000000E+00  0.12046250918E+03  0.12046250918E+03  0.00000000000E+00 0. -1.
         21   -1    0    0  501  502  0.00000000000E+00 -0.00000000000E+00 -0.32705816568E+03  0.32705816568E+03  0.00000000000E+00 0. -1.
         23    2    1    2    0    0 -0.58462562729E+01  0.49971541198E+02  0.44711949689E+02  0.11158703578E+03  0.89000980144E+02 0.  0.
         23    2    1    2    0    0  0.73173347694E+02 -0.83612251600E+02 -0.12781311542E+03  0.19131163561E+03  0.88986527161E+02 0.  0.
        -13    1    3    3    0    0  0.31989753732E+02 -0.51000406121E+01  0.23619655703E+01  0.32479741986E+02  0.00000000000E+00 0.  1.
         13    1    3    3    0    0 -0.37836010005E+02  0.55071581810E+02  0.42349984119E+02  0.79107293792E+02  0.00000000000E+00 0. -1.
        -13    1    4    4    0    0  0.67106405550E+02 -0.96069559066E+01 -0.67287344232E+02  0.95515181837E+02  0.00000000000E+00 0. -1.
         13    1    4    4    0    0  0.60669421438E+01 -0.74005295693E+02 -0.60525771189E+02  0.95796453773E+02  0.00000000000E+00 0.  1.
          1    1    1    2  501    0 -0.67327091421E+02  0.33640710401E+02 -0.12349449077E+03  0.14462200347E+03  0.00000000000E+00 0. -1.
<scales pt_clust_5="13000.00000" pt_clust_6="13000.00000" pt_clust_7="13000.00000" pt_clust_8="13000.00000" pt_clust_9="75.26377"></scales>
<clustering>
<clus scale="   75.264">  2  9  1 -1</clus>
<clus scale="   88.987">  7  8 -1 -1</clus>
<clus scale="   89.001">  5  6 -1 -1</clus>
<clus scale="  106.484">  2  7  1 -1</clus>
<clus scale="   75.264">  2  5  1 -1</clus>
</clustering>
</event>
<event>
 9    1  0.1321469E-005  0.1484945E+03  0.7546771E-02  0.1202813E+00
         -2   -1    0    0    0  501 -0.00000000000E+00  0.00000000000E+00  0.34368321536E+03  0.34368321536E+03  0.00000000000E+00 0.  1.
         21   -1    0    0  501  502  0.00000000000E+00 -0.00000000000E+00 -0.12394618664E+03  0.12394618664E+03  0.00000000000E+00 0.  1.
         23    2    1    2    0    0 -0.82203071369E+02  0.10174292531E+03  0.22379057408E+03  0.27400475756E+03  0.88811138520E+02 0.  0.
         23    2    1    2    0    0  0.28847921868E+02 -0.87453968242E+02  0.23660749747E+02  0.13182635622E+03  0.91312419521E+02 0.  0.
        -11    1    3    3    0    0 -0.35294597025E+02 -0.97610531233E+01  0.43057513137E+02  0.56523766459E+02  0.00000000000E+00 0. -1.
         11    1    3    3    0    0 -0.46908474344E+02  0.11150397844E+03  0.18073306095E+03  0.21748099111E+03  0.00000000000E+00 0.  1.
        -11    1    4    4    0    0  0.26535393499E+01 -0.99286057051E+02  0.94716522270E+01  0.99772113297E+02  0.00000000000E+00 0.  1.
         11    1    4    4    0    0  0.26194382518E+02  0.11832088809E+02  0.14189097520E+02  0.32054242926E+02  0.00000000000E+00 0. -1.
         -2    1    1    2    0  502  0.53355149501E+02 -0.14288957073E+02 -0.27714295109E+02  0.61798288212E+02  0.00000000000E+00 0.  1.
<scales pt_clust_5="13000.00000" pt_clust_6="13000.00000" pt_clust_7="13000.00000" pt_clust_8="13000.00000" pt_clust_9="55.23537"></scales>
<clustering>
<clus scale="   55.235">  2  9  1 -1</clus>
<clus scale="   88.811">  5  6 -1 -1</clus>
<clus scale="   91.312">  7  8 -1 -1</clus>
<clus scale="  146.970">  1  5  2 -1</clus>
<clus scale="   55.235">  2  5  1 -1</clus>
</clustering>
</event>
<event>
 9    1  0.1321469E-005  0.1583614E+03  0.7546771E-02  0.1209757E+00
         21   -1    0    0  501  502  0.00000000000E+00  0.00000000000E+00  0.12342630213E+03  0.12342630213E+03  0.00000000000E+00 0. -1.
          1   -1    0    0  502    0 -0.00000000000E+00 -0.00000000000E+00 -0.55814949129E+03  0.55814949129E+03  0.00000000000E+00 0. -1.
         23    2    1    2    0    0  0.14535176227E+00  0.50946780319E+02 -0.29219604792E+02  0.10838841104E+03  0.91097018560E+02 0.  0.
         23    2    1    2    0    0 -0.24180962477E+02 -0.17156382620E+03 -0.40533494593E+03  0.45019872121E+03  0.91452746120E+02 0.  0.
        -11    1    3    3    0    0  0.39699232713E+02  0.20867756951E+02  0.89440969489E+01  0.45732802543E+02  0.00000000000E+00 0. -1.
         11    1    3    3    0    0 -0.39553880951E+02  0.30079023368E+02 -0.38163701741E+02  0.62655608493E+02  0.00000000000E+00 0.  1.
        -11    1    4    4    0    0 -0.45730095239E+02 -0.83321484226E+02 -0.27789546312E+03  0.29369984638E+03  0.00000000000E+00 0.  1.
         11    1    4    4    0    0  0.21549132762E+02 -0.88242341977E+02 -0.12743948282E+03  0.15649887482E+03  0.00000000000E+00 0. -1.
          1    1    1    2  501    0  0.24035610715E+02  0.12061704588E+03 -0.16863842768E+00  0.12298866118E+03  0.00000000000E+00 0. -1.
<scales pt_clust_5="13000.00000" pt_clust_6="13000.00000" pt_clust_7="13000.00000" pt_clust_8="13000.00000" pt_clust_9="129.28548"></scales>
<clustering>
<clus scale="   91.097">  5  6 -1 -1</clus>
<clus scale="   91.453">  7  8 -1 -1</clus>
<clus scale="  104.376">  2  5  1 -1</clus>
<clus scale="  129.285">  1  9  2 -1</clus>
<clus scale="  129.285">  1  5  2 -1</clus>
</clustering>
</event>
<event>
 9    1  0.1321469E-005  0.1164230E+03  0.7546771E-02  0.1249901E+00
         -3   -1    0    0    0  501 -0.00000000000E+00  0.00000000000E+00  0.60087853190E+02  0.60087853190E+02  0.00000000000E+00 0.  1.
         21   -1    0    0  501  502  0.00000000000E+00 -0.00000000000E+00 -0.61274533828E+03  0.61274533828E+03  0.00000000000E+00 0. -1.
         23    2    1    2    0    0 -0.32101587573E+02 -0.63593136689E+02 -0.62326563437E+02  0.13269744250E+03  0.93002213837E+02 0.  0.
         23    2    1    2    0    0  0.73797111858E+02  0.30592510201E+02 -0.13650486617E+03  0.18233631404E+03  0.90725065613E+02 0.  0.
        -13    1    4    4    0    0  0.22584917125E+02  0.34385210973E+02 -0.53487185277E+01  0.41485298662E+02  0.00000000000E+00 0.  1.
         13    1    4    4    0    0  0.51212194733E+02 -0.37927007718E+01 -0.13115614764E+03  0.14085101538E+03  0.00000000000E+00 0. -1.
        -13    1    3    3    0    0 -0.54305359849E+02 -0.74064952577E+02 -0.42772403138E+02  0.10131222917E+03  0.00000000000E+00 0.  1.
         13    1    3    3    0    0  0.22203772276E+02  0.10471815888E+02 -0.19554160298E+02  0.31385213337E+02  0.00000000000E+00 0. -1.
         -3    1    1    2    0  502 -0.41695524285E+02  0.33000626488E+02 -0.35382605549E+03  0.35779943493E+03  0.00000000000E+00 0.  1.
<scales pt_clust_5="13000.00000" pt_clust_6="13000.00000" pt_clust_7="13000.00000" pt_clust_8="13000.00000" pt_clust_9="53.17479"></scales>
<clustering>
<clus scale="   53.175">  2  9  1 -1</clus>
<clus scale="   90.725">  5  6 -1 -1</clus>
<clus scale="   93.002">  7  8 -1 -1</clus>
<clus scale="  114.612">  2  5  1 -1</clus>
<clus scale="   53.175">  2  5  1 -1</clus>
</clustering>
</event>
<event>
 9    1  0.1321469E-005  0.1190221E+03  0.7546771E-02  0.1245949E+00
         21   -1    0    0  501  502  0.00000000000E+00  0.00000000000E+00  0.54529310409E+02  0.54529310409E+02  0.00000000000E+00 0.  1.
         -3   -1    0    0    0  501 -0.00000000000E+00 -0.00000000000E+00 -0.64826796088E+03  0.64826796088E+03  0.00000000000E+00 0.  1.
         23    2    1    2    0    0  0.41973648907E+01 -0.50762815370E+02 -0.26829521187E+03  0.28847754760E+03  0.92965012026E+02 0.  0.
         23    2    1    2    0    0  0.34808871577E+02  0.11123271560E+03 -0.30662138144E+03  0.33993985308E+03  0.89207945779E+02 0.  0.
        -11    1    4    4    0    0  0.33107014471E+02  0.46259124610E+02 -0.24083144288E+03  0.24745861249E+03  0.00000000000E+00 0.  1.
         11    1    4    4    0    0  0.17018571062E+01  0.64973590991E+02 -0.65789938568E+02  0.92481240587E+02  0.00000000000E+00 0. -1.
        -13    1    3    3    0    0  0.23530326313E+02  0.18683161605E+02 -0.47427358362E+02  0.56143486756E+02  0.00000000000E+00 0.  1.
         13    1    3    3    0    0 -0.19332961422E+02 -0.69445976974E+02 -0.22086785350E+03  0.23233406084E+03  0.00000000000E+00 0. -1.
         -3    1    1    2    0  502 -0.39006236468E+02 -0.60469900231E+02 -0.18822057163E+02  0.74379870619E+02  0.00000000000E+00 0.  1.
<scales pt_clust_5="13000.00000" pt_clust_6="13000.00000" pt_clust_7="13000.00000" pt_clust_8="13000.00000" pt_clust_9="71.95898"></scales>
<clustering>
<clus scale="   71.959">  1  9  2 -1</clus>
<clus scale="   89.208">  5  6 -1 -1</clus>
<clus scale="   92.965">  7  8 -1 -1</clus>
<clus scale="  116.111">  1  5  2 -1</clus>
<clus scale="   71.959">  1  5  2 -1</clus>
</clustering>
</event>
<event>
 9    1  0.1321469E-005  0.1078793E+03  0.7546771E-02  0.1264898E+00
          1   -1    0    0  502    0 -0.00000000000E+00  0.00000000000E+00  0.44481071484E+03  0.44481071484E+03  0.00000000000E+00 0. -1.
         21   -1    0    0  501  502  0.00000000000E+00 -0.00000000000E+00 -0.68275235944E+02  0.68275235944E+02  0.00000000000E+00 0.  1.
         23    2    1    2    0    0 -0.44612142059E+02  0.41172187425E+02  0.36926609056E+03  0.38501972392E+03  0.90539217662E+02 0.  0.
         23    2    1    2    0    0  0.37521483057E+02 -0.14469402133E+02  0.96988098979E+01  0.10033144227E+03  0.91406269508E+02 0.  0.
        -11    1    3    3    0    0 -0.69372874871E+02  0.46673135278E+02  0.28717329511E+03  0.29909777456E+03  0.00000000000E+00 0. -1.
         11    1    3    3    0    0  0.24760732812E+02 -0.55009478534E+01  0.82092795454E+02  0.85921949362E+02  0.00000000000E+00 0.  1.
        -13    1    4    4    0    0  0.64587752067E+02  0.35796181733E+01  0.17222852372E+02  0.66940406536E+02  0.00000000000E+00 0.  1.
         13    1    4    4    0    0 -0.27066269010E+02 -0.18049020306E+02 -0.75240424745E+01  0.33391035733E+02  0.00000000000E+00 0. -1.
          1    1    1    2  501    0  0.70906590016E+01 -0.26702785292E+02 -0.24294215615E+01  0.27734784595E+02  0.00000000000E+00 0. -1.
<scales pt_clust_5="13000.00000" pt_clust_6="13000.00000" pt_clust_7="13000.00000" pt_clust_8="13000.00000" pt_clust_9="27.62818"></scales>
<clustering>
<clus scale="   27.628">  2  9  1 -1</clus>
<clus scale="   90.539">  5  6 -1 -1</clus>
<clus scale="   91.406">  7  8 -1 -1</clus>
<clus scale="  107.146">  1  5  2 -1</clus>
<clus scale="   27.628">  2  5  1 -1</clus>
</clustering>
</event>
<event>
 9    1  0.1321469E-005  0.1702826E+03  0.7546771E-02  0.1202047E+00
         -1   -1    0    0    0  501 -0.00000000000E+00  0.00000000000E+00  0.10897985453E+03  0.10897985453E+03  0.00000000000E+00 0.  1.
         21   -1    0    0  501  502  0.00000000000E+00 -0.00000000000E+00 -0.72133121695E+03  0.72133121695E+03  0.00000000000E+00 0.  1.
         23    2    1    2    0    0 -0.40749993993E+02 -0.53470505521E+00  0.32827049673E+02  0.10438722613E+03  0.90322919958E+02 0.  0.
         23    2    1    2    0    0  0.11669312967E+03 -0.11316294006E+03 -0.28296519366E+03  0.33876376222E+03  0.90931008208E+02 0.  0.
        -11    1    4    4    0    0  0.16429758404E+02 -0.43919597203E+02 -0.15554348849E+03  0.16245813243E+03  0.00000000000E+00 0. -1.
         11    1    4    4    0    0  0.10026337127E+03 -0.69243342856E+02 -0.12742170517E+03  0.17630562979E+03  0.00000000000E+00 0.  1.
        -11    1    3    3    0    0 -0.49191947230E+02 -0.20820293313E+02 -0.11746081388E+02  0.54692803127E+02  0.00000000000E+00 0.  1.
         11    1    3    3    0    0  0.84419532370E+01  0.20285588257E+02  0.44573131061E+02  0.49694423007E+02  0.00000000000E+00 0. -1.
         -1    1    1    2    0  502 -0.75943135681E+02  0.11369764511E+03 -0.36221321843E+03  0.38716008312E+03  0.00000000000E+00 0.  1.
<scales pt_clust_5="13000.00000" pt_clust_6="13000.00000" pt_clust_7="13000.00000" pt_clust_8="13000.00000" pt_clust_9="143.97129"></scales>
<clustering>
<clus scale="   90.323">  7  8 -1 -1</clus>
<clus scale="   90.931">  5  6 -1 -1</clus>
<clus scale="   99.091">  1  7  2 -1</clus>
<clus scale="  143.971">  2  9  1 -1</clus>
<clus scale="  143.971">  2  5  1 -1</clus>
</clustering>
</event>
<event>
 9    1  0.1321469E-005  0.1025125E+03  0.7546771E-02  0.1275578E+00
         21   -1    0    0  501  502  0.00000000000E+00  0.00000000000E+00  0.47112906130E+03  0.47112906130E+03  0.00000000000E+00 0.  1.
         -1   -1    0    0    0  501 -0.00000000000E+00 -0.00000000000E+00 -0.85216815065E+02  0.85216815065E+02  0.00000000000E+00 0.  1.
         23    2    1    2    0    0 -0.43130596191E+02  0.10285361325E+01  0.24410626771E+02  0.10464195595E+03  0.92156139413E+02 0.  0.
         23    2    1    2    0    0  0.37125514658E+02  0.41460281754E+02  0.21379212818E+02  0.10888529176E+03  0.91113540263E+02 0.  0.
        -11    1    3    3    0    0 -0.10484215128E+02 -0.36515442494E+02 -0.15328665528E+02  0.40966624150E+02  0.00000000000E+00 0. -1.
         11    1    3    3    0    0 -0.32646381063E+02  0.37543978626E+02  0.39739292299E+02  0.63675331802E+02  0.00000000000E+00 0.  1.
        -13    1    4    4    0    0  0.19969678266E+02  0.65699142091E+02 -0.54255051377E+01  0.68881067265E+02  0.00000000000E+00 0.  1.
         13    1    4    4    0    0  0.17155836392E+02 -0.24238860337E+02  0.26804717956E+02  0.40004224495E+02  0.00000000000E+00 0. -1.
         -1    1    1    2    0  502  0.60050815331E+01 -0.42488817886E+02  0.34012240664E+03  0.34281862865E+03  0.00000000000E+00 0.  1.
<scales pt_clust_5="13000.00000" pt_clust_6="13000.00000" pt_clust_7="13000.00000" pt_clust_8="13000.00000" pt_clust_9="42.91108"></scales>
<clustering>
<clus scale="   42.911">  1  9  2 -1</clus>
<clus scale="   91.114">  7  8 -1 -1</clus>
<clus scale="   92.156">  5  6 -1 -1</clus>
<clus scale="  101.576">  1  7  2 -1</clus>
<clus scale="   42.911">  1  5  2 -1</clus>
</clustering>
</event>
<event>
 9    1  0.1321469E-005  0.1236700E+03  0.7546771E-02  0.1241631E+00
         21   -1    0    0  501  502  0.00000000000E+00  0.00000000000E+00  0.43994663504E+02  0.43994663504E+02  0.00000000000E+00 0. -1.
          2   -1    0    0  502    0 -0.00000000000E+00 -0.00000000000E+00 -0.65219173975E+03  0.65219173975E+03  0.00000000000E+00 0. -1.
         23    2    1    2    0    0  0.38422347411E+01  0.60701443282E+02 -0.22495890116E+03  0.25561480122E+03  0.10503804744E+03 0.  0.
         23    2    1    2    0    0 -0.86280763838E+02 -0.36862005525E+02 -0.23230836198E+03  0.26695064029E+03  0.92153630662E+02 0.  0.
        -11    1    4    4    0    0 -0.34577860008E+01 -0.44952525900E+02 -0.55247419334E+02  0.71308927996E+02  0.00000000000E+00 0. -1.
         11    1    4    4    0    0 -0.82822977837E+02  0.80905203745E+01 -0.17706094265E+03  0.19564171229E+03  0.00000000000E+00 0.  1.
        -13    1    3    3    0    0  0.51695848381E+02  0.23912881011E+02 -0.76672879321E+02  0.95514486030E+02  0.00000000000E+00 0.  1.
         13    1    3    3    0    0 -0.47853613640E+02  0.36788562271E+02 -0.14828602183E+03  0.16010031519E+03  0.00000000000E+00 0. -1.
          2    1    1    2  501    0  0.82438529097E+02 -0.23839437757E+02 -0.15092981310E+03  0.17362096174E+03  0.00000000000E+00 0. -1.
<scales pt_clust_5="13000.00000" pt_clust_6="13000.00000" pt_clust_7="13000.00000" pt_clust_8="13000.00000" pt_clust_9="85.81626"></scales>
<clustering>
<clus scale="   85.816">  1  9  2 -1</clus>
<clus scale="   92.154">  5  6 -1 -1</clus>
<clus scale="  105.038">  7  8 -1 -1</clus>
<clus scale="  112.932">  1  5  2 -1</clus>
<clus scale="   85.816">  1  5  2 -1</clus>
</clustering>
</event>
<event>
 9    1  0.1321469E-005  0.1171562E+03  0.7546771E-02  0.1248565E+00
         21   -1    0    0  501  502  0.00000000000E+00  0.00000000000E+00  0.44168433296E+03  0.44168433296E+03  0.00000000000E+00 0.  1.
          1   -1    0    0  502    0 -0.00000000000E+00 -0.00000000000E+00 -0.64405790383E+02  0.64405790383E+02  0.00000000000E+00 0. -1.
         23    2    1    2    0    0  0.71245214636E+01  0.81013643247E+02  0.49556860152E+02  0.13156135981E+03  0.90766402421E+02 0.  0.
         23    2    1    2    0    0 -0.25344495653E+02 -0.60219703900E+02  0.11209783230E+03  0.15713971110E+03  0.88646537450E+02 0.  0.
        -11    1    3    3    0    0 -0.16126582044E+02  0.72470006467E+02  0.68000673454E+02  0.10067800195E+03  0.00000000000E+00 0.  1.
         11    1    3    3    0    0  0.23251103508E+02  0.85436367804E+01 -0.18443813302E+02  0.30883357863E+02  0.00000000000E+00 0. -1.
        -11    1    4    4    0    0 -0.47341836306E+01 -0.69657132780E+02  0.37660714848E+02  0.79327536736E+02  0.00000000000E+00 0. -1.
         11    1    4    4    0    0 -0.20610312023E+02  0.94374288799E+01  0.74437117448E+02  0.77812174366E+02  0.00000000000E+00 0.  1.
          1    1    1    2  501    0  0.18219974190E+02 -0.20793939347E+02  0.21562385012E+03  0.21738905243E+03  0.00000000000E+00 0. -1.
<scales pt_clust_5="13000.00000" pt_clust_6="13000.00000" pt_clust_7="13000.00000" pt_clust_8="13000.00000" pt_clust_9="27.64698"></scales>
<clustering>
<clus scale="   27.647">  1  9  2 -1</clus>
<clus scale="   88.647">  7  8 -1 -1</clus>
<clus scale="   90.766">  5  6 -1 -1</clus>
<clus scale="  115.522">  1  7  2 -1</clus>
<clus scale="   27.647">  1  5  2 -1</clus>
</clustering>
</event>
<event>
 9    1  0.1321469E-005  0.1106759E+03  0.7546771E-02  0.1261217E+00
         21   -1    0    0  501  502  0.00000000000E+00  0.00000000000E+00  0.72387090015E+02  0.72387090015E+02  0.00000000000E+00 0. -1.
          1   -1    0    0  502    0 -0.00000000000E+00 -0.00000000000E+00 -0.34789118926E+03  0.34789118926E+03  0.00000000000E+00 0. -1.
         23    2    1    2    0    0  0.12531030754E+02 -0.42117868066E+02 -0.20623426009E+03  0.23199025995E+03  0.96726258757E+02 0.  0.
         23    2    1    2    0    0 -0.34126295818E+02  0.70149405499E+02 -0.86941382687E+02  0.14873544654E+03  0.92075435784E+02 0.  0.
        -13    1    3    3    0    0 -0.34537766947E+02 -0.40757086238E+02 -0.14644202909E+03  0.15588221614E+03  0.00000000000E+00 0.  1.
         13    1    3    3    0    0  0.47068797701E+02 -0.13607818277E+01 -0.59792230996E+02  0.76108043804E+02  0.00000000000E+00 0. -1.
        -13    1    4    4    0    0 -0.22519959059E+02  0.86678808718E+02 -0.91496262480E+02  0.12803097471E+03  0.00000000000E+00 0. -1.
         13    1    4    4    0    0 -0.11606336759E+02 -0.16529403220E+02  0.45548797929E+01  0.20704471828E+02  0.00000000000E+00 0.  1.
          1    1    1    2  501    0  0.21595265064E+02 -0.28031537433E+02  0.17671543528E+02  0.39552572795E+02  0.00000000000E+00 0. -1.
<scales pt_clust_5="13000.00000" pt_clust_6="13000.00000" pt_clust_7="13000.00000" pt_clust_8="13000.00000" pt_clust_9="35.38534"></scales>
<clustering>
<clus scale="   35.385">  1  9  2 -1</clus>
<clus scale="   92.075">  7  8 -1 -1</clus>
<clus scale="   96.726">  5  6 -1 -1</clus>
<clus scale="  106.635">  1  7  2 -1</clus>
<clus scale="   35.385">  1  5  2 -1</clus>
</clustering>
</event>
<event>
 9    1  0.1321469E-005  0.1104165E+03  0.7546771E-02  0.1262324E+00
         -4   -1    0    0    0  501 -0.00000000000E+00  0.00000000000E+00  0.18581370954E+03  0.18581370954E+03  0.00000000000E+00 0.  1.
         21   -1    0    0  501  502  0.00000000000E+00 -0.00000000000E+00 -0.10659305507E+03  0.10659305507E+03  0.00000000000E+00 0. -1.
         23    2    1    2    0    0 -0.66236089860E+01  0.54325566788E+02  0.97865792317E+02  0.14777077162E+03  0.96246289471E+02 0.  0.
         23    2    1    2    0    0 -0.25979215960E+02 -0.53274287533E+02 -0.16209325719E+01  0.10784098045E+03  0.90077634671E+02 0.  0.
        -11    1    4    4    0    0  0.43511886007E+01 -0.70296777894E+02  0.10070914261E+02  0.71147685405E+02  0.00000000000E+00 0. -1.
         11    1    4    4    0    0 -0.30330404560E+02  0.17022490360E+02 -0.11691846833E+02  0.36693295045E+02  0.00000000000E+00 0.  1.
        -13    1    3    3    0    0  0.10015135469E+02  0.69415067976E+02  0.10311319975E+03  0.12470399578E+03  0.00000000000E+00 0.  1.
         13    1    3    3    0    0 -0.16638744455E+02 -0.15089501188E+02 -0.52474074301E+01  0.23066775845E+02  0.00000000000E+00 0. -1.
         -4    1    1    2    0  502  0.32602824946E+02 -0.10512792545E+01 -0.17024205271E+02  0.36795012537E+02  0.00000000000E+00 0.  1.
<scales pt_clust_5="13000.00000" pt_clust_6="13000.00000" pt_clust_7="13000.00000" pt_clust_8="13000.00000" pt_clust_9="32.61977"></scales>
<clustering>
<clus scale="   32.620">  2  9  1 -1</clus>
<clus scale="   90.078">  5  6 -1 -1</clus>
<clus scale="   96.246">  7  8 -1 -1</clus>
<clus scale="  105.083">  2  5  1 -1</clus>
<clus scale="   32.620">  2  5  1 -1</clus>
</clustering>
</event>
<event>
 9    1  0.1321469E-005  0.1220615E+03  0.7546771E-02  0.1240302E+00
         -1   -1    0    0    0  501 -0.00000000000E+00  0.00000000000E+00  0.43198804403E+03  0.43198804403E+03  0.00000000000E+00 0.  1.
         21   -1    0    0  501  502  0.00000000000E+00 -0.00000000000E+00 -0.14210865189E+03  0.14210865189E+03  0.00000000000E+00 0. -1.
         23    2    1    2    0    0 -0.73004448197E+02 -0.15557473471E+01  0.28500359494E+03  0.30804364656E+03  0.91278525692E+02 0.  0.
         23    2    1    2    0    0  0.12714387481E+03 -0.69025909434E+02  0.32011992830E+02  0.17305186172E+03  0.89398199562E+02 0.  0.
        -13    1    4    4    0    0  0.73094922406E+02 -0.54627695915E+02 -0.23517945198E+02  0.94234529706E+02  0.00000000000E+00 0.  1.
         13    1    4    4    0    0  0.54048952408E+02 -0.14398213518E+02  0.55529938028E+02  0.78817332017E+02  0.00000000000E+00 0. -1.
        -13    1    3    3    0    0 -0.80161691376E+02  0.26565940729E+02  0.24068237315E+03  0.25506793353E+03  0.00000000000E+00 0.  1.
         13    1    3    3    0    0  0.71572431793E+01 -0.28121688076E+02  0.44321221791E+02  0.52975713032E+02  0.00000000000E+00 0. -1.
         -1    1    1    2    0  502 -0.54139426617E+02  0.70581656781E+02 -0.27136195627E+02  0.93001187635E+02  0.00000000000E+00 0.  1.
<scales pt_clust_5="13000.00000" pt_clust_6="13000.00000" pt_clust_7="13000.00000" pt_clust_8="13000.00000" pt_clust_9="88.95419"></scales>
<clustering>
<clus scale="   88.954">  2  9  1 -1</clus>
<clus scale="   89.398">  5  6 -1 -1</clus>
<clus scale="   91.279">  7  8 -1 -1</clus>
<clus scale="  120.662">  2  5  1 -1</clus>
<clus scale="   88.954">  2  5  1 -1</clus>
</clustering>
</event>
<event>
 9    1  0.1321469E-005  0.9958052E+02  0.7546771E-02  0.1286870E+00
          3   -1    0    0  502    0 -0.00000000000E+00  0.00000000000E+00  0.25156724867E+03  0.25156724867E+03  0.00000000000E+00 0. -1.
         21   -1    0    0  501  502  0.00000000000E+00 -0.00000000000E+00 -0.33551495413E+03  0.33551495413E+03  0.00000000000E+00 0. -1.
         23    2    1    2    0    0  0.35372177820E+02  0.22344386434E+02  0.17626919438E+03  0.20529471567E+03  0.96564117689E+02 0.  0.
         23    2    1    2    0    0  0.22046754666E+02 -0.10757697662E+01  0.23211984130E+02  0.91819868017E+02  0.86051585015E+02 0.  0.
        -11    1    3    3    0    0  0.62388879704E+01 -0.27393111271E+02  0.12510604417E+03  0.12822179439E+03  0.00000000000E+00 0. -1.
         11    1    3    3    0    0  0.29133289850E+02  0.49737497705E+02  0.51163150214E+02  0.77072921284E+02  0.00000000000E+00 0.  1.
        -13    1    4    4    0    0  0.39261868119E+02 -0.20697878773E+02  0.40846072567E+02  0.60318306657E+02  0.00000000000E+00 0. -1.
         13    1    4    4    0    0 -0.17215113453E+02  0.19622109007E+02 -0.17634088437E+02  0.31501561360E+02  0.00000000000E+00 0.  1.
          3    1    1    2  501    0 -0.57418932486E+02 -0.21268616668E+02 -0.28342888397E+03  0.28996761911E+03  0.00000000000E+00 0. -1.
<scales pt_clust_5="13000.00000" pt_clust_6="13000.00000" pt_clust_7="13000.00000" pt_clust_8="13000.00000" pt_clust_9="61.23143"></scales>
<clustering>
<clus scale="   61.231">  2  9  1 -1</clus>
<clus scale="   86.052">  7  8 -1 -1</clus>
<clus scale="   89.423">  2  7  1 -1</clus>
<clus scale="   96.564">  5  6 -1 -1</clus>
<clus scale="   61.231">  2  5  1 -1</clus>
</clustering>
</event>
<event>
 9    1  0.1321469E-005  0.9446867E+02  0.7546771E-02  0.1293540E+00
         21   -1    0    0  501  502  0.00000000000E+00  0.00000000000E+00  0.39312266772E+02  0.39312266772E+02  0.00000000000E+00 0.  1.
          1   -1    0    0  502    0 -0.00000000000E+00 -0.00000000000E+00 -0.43332687138E+03  0.43332687138E+03  0.00000000000E+00 0. -1.
         23    2    1    2    0    0  0.19452410110E+02 -0.41159949302E+01 -0.26730622908E+03  0.28227935764E+03  0.88508067259E+02 0.  0.
         23    2    1    2    0    0 -0.43566050382E+02  0.29490068575E+02 -0.79201482284E+02  0.13134947492E+03  0.90620885426E+02 0.  0.
        -11    1    4    4    0    0 -0.43689427412E+02 -0.53309059491E+01 -0.85311748799E+02  0.95996245286E+02  0.00000000000E+00 0.  1.
         11    1    4    4    0    0  0.12337703083E+00  0.34820974524E+02  0.61102665146E+01  0.35353229634E+02  0.00000000000E+00 0. -1.
        -13    1    3    3    0    0  0.48594740211E+02 -0.23712691692E+02 -0.18630124698E+03  0.19398942020E+03  0.00000000000E+00 0. -1.
         13    1    3    3    0    0 -0.29142330101E+02  0.19596696762E+02 -0.81004982108E+02  0.88289937445E+02  0.00000000000E+00 0.  1.
          1    1    1    2  501    0  0.24113640272E+02 -0.25374073645E+02 -0.47506893237E+02  0.59010305588E+02  0.00000000000E+00 0. -1.
<scales pt_clust_5="13000.00000" pt_clust_6="13000.00000" pt_clust_7="13000.00000" pt_clust_8="13000.00000" pt_clust_9="35.00445"></scales>
<clustering>
<clus scale="   35.004">  1  9  2 -1</clus>
<clus scale="   88.508">  7  8 -1 -1</clus>
<clus scale="   90.621">  5  6 -1 -1</clus>
<clus scale="   92.444">  2  7  1 -1</clus>
<clus scale="   35.004">  1  5  2 -1</clus>
</clustering>
</event>
<event>
 9    1  0.1321469E-005  0.1142711E+03  0.7546771E-02  0.1252939E+00
         21   -1    0    0  501  502  0.00000000000E+00  0.00000000000E+00  0.12236489998E+03  0.12236489998E+03  0.00000000000E+00 0. -1.
         -4   -1    0    0    0  501 -0.00000000000E+00 -0.00000000000E+00 -0.17647802770E+03  0.17647802770E+03  0.00000000000E+00 0.  1.
         23    2    1    2    0    0  0.63987714161E+01  0.55325025792E+02 -0.45460438662E+02  0.11743047044E+03  0.92851823617E+02 0.  0.
         23    2    1    2    0    0 -0.47929606550E+02 -0.78807465032E+02  0.77823121334E+01  0.13095114053E+03  0.92627064600E+02 0.  0.
        -13    1    3    3    0    0 -0.27827943553E+02  0.52711019781E+02 -0.55730078399E+02  0.81600782392E+02  0.00000000000E+00 0. -1.
         13    1    3    3    0    0  0.34226714969E+02  0.26140060113E+01  0.10269639736E+02  0.35829688044E+02  0.00000000000E+00 0.  1.
        -13    1    4    4    0    0 -0.25474364358E+02 -0.75108796442E+02 -0.31673977555E+02  0.85402080750E+02  0.00000000000E+00 0.  1.
         13    1    4    4    0    0 -0.22455242192E+02 -0.36986685905E+01  0.39456289688E+02  0.45549059784E+02  0.00000000000E+00 0. -1.
         -4    1    1    2    0  502  0.41530835134E+02  0.23482439240E+02 -0.16435001200E+02  0.50461316709E+02  0.00000000000E+00 0.  1.
<scales pt_clust_5="13000.00000" pt_clust_6="13000.00000" pt_clust_7="13000.00000" pt_clust_8="13000.00000" pt_clust_9="47.70993"></scales>
<clustering>
<clus scale="   47.710">  1  9  2 -1</clus>
<clus scale="   92.627">  7  8 -1 -1</clus>
<clus scale="   92.852">  5  6 -1 -1</clus>
<clus scale="  114.089">  1  7  2 -1</clus>
<clus scale="   47.710">  1  5  2 -1</clus>
</clustering>
</event>
<event>
 9    1  0.1321469E-005  0.2415434E+03  0.7546771E-02  0.1118998E+00
         21   -1    0    0  501  502  0.00000000000E+00  0.00000000000E+00  0.20915841436E+03  0.20915841436E+03  0.00000000000E+00 0.  1.
          1   -1    0    0  502    0 -0.00000000000E+00 -0.00000000000E+00 -0.56172133515E+03  0.56172133515E+03  0.00000000000E+00 0. -1.
         23    2    1    2    0    0 -0.85974951568E+02  0.18551034205E+03 -0.25506728275E+03  0.33825673595E+03  0.86905243677E+02 0.  0.
         23    2    1    2    0    0  0.84038874625E+02 -0.24510476860E+03 -0.18187955016E+03  0.32929882136E+03  0.90656841682E+02 0.  0.
        -11    1    3    3    0    0  0.13239258619E+02  0.26233073525E+02 -0.13415816050E+02  0.32302263630E+02  0.00000000000E+00 0.  1.
         11    1    3    3    0    0 -0.99214210187E+02  0.15927726853E+03 -0.24165146670E+03  0.30595447232E+03  0.00000000000E+00 0. -1.
        -11    1    4    4    0    0  0.47322236928E+02 -0.21263828634E+03 -0.17576516682E+03  0.27990682162E+03  0.00000000000E+00 0. -1.
         11    1    4    4    0    0  0.36716637697E+02 -0.32466482265E+02 -0.61143833401E+01  0.49391999738E+02  0.00000000000E+00 0.  1.
          1    1    1    2  501    0  0.19360769428E+01  0.59594426550E+02  0.84383912115E+02  0.10332419220E+03  0.00000000000E+00 0. -1.
<scales pt_clust_5="13000.00000" pt_clust_6="13000.00000" pt_clust_7="13000.00000" pt_clust_8="13000.00000" pt_clust_9="59.62587"></scales>
<clustering>
<clus scale="   59.626">  1  9  2 -1</clus>
<clus scale="   86.905">  5  6 -1 -1</clus>
<clus scale="   90.657">  7  8 -1 -1</clus>
<clus scale="  240.160">  2  5  1 -1</clus>
<clus scale="   59.626">  1  5  2 -1</clus>
</clustering>
</event>
<event>
 9    1  0.1321469E-005  0.1108899E+03  0.7546771E-02  0.1259601E+00
         21   -1    0    0  501  502  0.00000000000E+00  0.00000000000E+00  0.24891845956E+02  0.24891845956E+02  0.00000000000E+00 0.  1.
          2   -1    0    0  502    0 -0.00000000000E+00 -0.00000000000E+00 -0.65472374848E+03  0.65472374848E+03  0.00000000000E+00 0. -1.
         23    2    1    2    0    0  0.51839451885E+02 -0.50929095306E+02 -0.40216788555E+03  0.41804693661E+03  0.87995065335E+02 0.  0.
         23    2    1    2    0    0 -0.34375232343E+02  0.37093663610E+02 -0.15987918298E+03  0.19021599947E+03  0.89795193777E+02 0.  0.
        -13    1    3    3    0    0 -0.56024271200E+01  0.20546931413E+02 -0.10135558631E+03  0.10356890680E+03  0.00000000000E+00 0.  1.
         13    1    3    3    0    0  0.57441879004E+02 -0.71476026719E+02 -0.30081229924E+03  0.31447802981E+03  0.00000000000E+00 0. -1.
        -13    1    4    4    0    0  0.27899134742E+02  0.27560815661E+02 -0.49847091509E+02  0.63424701900E+02  0.00000000000E+00 0. -1.
         13    1    4    4    0    0 -0.62274367085E+02  0.95328479484E+01 -0.11003209147E+03  0.12679129757E+03  0.00000000000E+00 0.  1.
          2    1    1    2  501    0 -0.17464219541E+02  0.13835431696E+02 -0.67784833989E+02  0.71352658348E+02  0.00000000000E+00 0. -1.
<scales pt_clust_5="13000.00000" pt_clust_6="13000.00000" pt_clust_7="13000.00000" pt_clust_8="13000.00000" pt_clust_9="22.28045"></scales>
<clustering>
<clus scale="   22.280">  1  9  2 -1</clus>
<clus scale="   87.995">  5  6 -1 -1</clus>
<clus scale="   89.795">  7  8 -1 -1</clus>
<clus scale="  109.437">  2  5  1 -1</clus>
<clus scale="   22.280">  1  5  2 -1</clus>
</clustering>
</event>
<event>
 9    1  0.1582077E-005  0.1948152E+03  0.7546771E-02  0.1154508E+00
         21   -1    0    0  501  502  0.00000000000E+00  0.00000000000E+00  0.15049059089E+03  0.15049059089E+03  0.00000000000E+00 0.  1.
          1   -1    0    0  502    0 -0.00000000000E+00 -0.00000000000E+00 -0.83491135219E+03  0.83491135219E+03  0.00000000000E+00 0. -1.
         23    2    1    2    0    0  0.76741556253E+02  0.11532270472E+03 -0.21362225010E+03  0.26978325700E+03  0.89218536972E+02 0.  0.
         23    2    1    2    0    0 -0.11792195307E+03 -0.27256194840E+03 -0.12814333943E+03  0.33636603734E+03  0.92335220294E+02 0.  0.
        -11    1    4    4    0    0 -0.49415864257E+02 -0.29276049618E+02 -0.14462456857E+02  0.59229868983E+02  0.00000000000E+00 0. -1.
         11    1    4    4    0    0 -0.68506088810E+02 -0.24328589878E+03 -0.11368088258E+03  0.27713616836E+03  0.00000000000E+00 0.  1.
        -13    1    3    3    0    0  0.89440703644E+02  0.69510263153E+02 -0.12147112233E+03  0.16609199171E+03  0.00000000000E+00 0.  1.
         13    1    3    3    0    0 -0.12699147391E+02  0.45812441568E+02 -0.92151127775E+02  0.10369126529E+03  0.00000000000E+00 0. -1.
          1    1    1    2  501    0  0.41180396813E+02  0.15723924368E+03 -0.34265517177E+03  0.37925264874E+03  0.00000000000E+00 0. -1.
<scales pt_clust_5="13000.00000" pt_clust_6="13000.00000" pt_clust_7="13000.00000" pt_clust_8="13000.00000" pt_clust_9="162.54240"></scales>
<clustering>
<clus scale="   89.219">  7  8 -1 -1</clus>
<clus scale="   92.335">  5  6 -1 -1</clus>
<clus scale="  162.542">  1  9  2 -1</clus>
<clus scale="  193.358">  2  7  1 -1</clus>
<clus scale="  162.542">  1  5  2 -1</clus>
</clustering>
</event>
<event>
 9    1  0.1321469E-005  0.1514197E+03  0.7546771E-02  0.1199266E+00
          2   -1    0    0  502    0 -0.00000000000E+00  0.00000000000E+00  0.75462751801E+02  0.75462751801E+02  0.00000000000E+00 0. -1.
         21   -1    0    0  501  502  0.00000000000E+00 -0.00000000000E+00 -0.37804862567E+03  0.37804862567E+03  0.00000000000E+00 0.  1.
         23    2    1    2    0    0  0.46357005132E+02 -0.10924167203E+03 -0.14778155985E+03  0.21097841487E+03  0.92681105291E+02 0.  0.
         23    2    1    2    0    0 -0.20784274250E+02  0.12067430851E+03 -0.15117579303E+03  0.21428697340E+03  0.89836027176E+02 0.  0.
        -13    1    4    4    0    0  0.17516719336E+02  0.10963226348E+03 -0.12155060370E+03  0.16462265310E+03  0.00000000000E+00 0. -1.
         13    1    4    4    0    0 -0.38300993586E+02  0.11042045028E+02 -0.29625189326E+02  0.49664320298E+02  0.00000000000E+00 0.  1.
        -13    1    3    3    0    0  0.45546118574E+02 -0.17683916856E+02 -0.90866704679E+02  0.10316941335E+03  0.00000000000E+00 0. -1.
         13    1    3    3    0    0  0.81088655807E+00 -0.91557755172E+02 -0.56914855168E+02  0.10780900152E+03  0.00000000000E+00 0.  1.
          2    1    1    2  501    0 -0.25572730882E+02 -0.11432636481E+02 -0.36285209934E+01  0.28245989206E+02  0.00000000000E+00 0. -1.
<scales pt_clust_5="13000.00000" pt_clust_6="13000.00000" pt_clust_7="13000.00000" pt_clust_8="13000.00000" pt_clust_9="28.01197"></scales>
<clustering>
<clus scale="   28.012">  2  9  1 -1</clus>
<clus scale="   89.836">  5  6 -1 -1</clus>
<clus scale="   92.681">  7  8 -1 -1</clus>
<clus scale="  149.695">  2  5  1 -1</clus>
<clus scale="   28.012">  2  5  1 -1</clus>
</clustering>
</event>
<event>
 9    1  0.1321469E-005  0.1176835E+03  0.7546771E-02  0.1247116E+00
         21   -1    0    0  501  502  0.00000000000E+00  0.00000000000E+00  0.33182785078E+02  0.33182785078E+02  0.00000000000E+00 0. -1.
         -1   -1    0    0    0  501 -0.00000000000E+00 -0.00000000000E+00 -0.53956139559E+03  0.53956139559E+03  0.00000000000E+00 0.  1.
         23    2    1    2    0    0  0.57451529742E+02 -0.29880116723E+02 -0.25462160059E+03  0.27828101081E+03  0.91731465968E+02 0.  0.
         23    2    1    2    0    0 -0.70558263303E+02  0.45940562975E+02 -0.24025830934E+03  0.27075780098E+03  0.92177696532E+02 0.  0.
        -11    1    4    4    0    0 -0.35855863993E+02  0.60408944791E+02 -0.21309151718E+03  0.22437218698E+03  0.00000000000E+00 0.  1.
         11    1    4    4    0    0 -0.34702399311E+02 -0.14468381817E+02 -0.27166792155E+02  0.46385614002E+02  0.00000000000E+00 0. -1.
        -13    1    3    3    0    0  0.71426858489E+02 -0.44580211080E+02 -0.15283117558E+03  0.17448942536E+03  0.00000000000E+00 0.  1.
         13    1    3    3    0    0 -0.13975328747E+02  0.14700094357E+02 -0.10179042500E+03  0.10379158545E+03  0.00000000000E+00 0. -1.
         -1    1    1    2    0  502  0.13106733561E+02 -0.16060446251E+02 -0.11498700588E+02  0.23705368878E+02  0.00000000000E+00 0.  1.
<scales pt_clust_5="13000.00000" pt_clust_6="13000.00000" pt_clust_7="13000.00000" pt_clust_8="13000.00000" pt_clust_9="20.72979"></scales>
<clustering>
<clus scale="   20.730">  1  9  2 -1</clus>
<clus scale="   91.731">  7  8 -1 -1</clus>
<clus scale="   92.178">  5  6 -1 -1</clus>
<clus scale="  117.334">  2  7  1 -1</clus>
<clus scale="   20.730">  1  5  2 -1</clus>
</clustering>
</event>
<event>
 9    1  0.1321469E-005  0.1256214E+03  0.7546771E-02  0.1237560E+00
         -1   -1    0    0    0  501 -0.00000000000E+00  0.00000000000E+00  0.54243309804E+03  0.54243309804E+03  0.00000000000E+00 0.  1.
         21   -1    0    0  501  502  0.00000000000E+00 -0.00000000000E+00 -0.50948464806E+02  0.50948464806E+02  0.00000000000E+00 0. -1.
         23    2    1    2    0    0 -0.46647550917E+02  0.46861120972E+02  0.36557554520E+03  0.38310590660E+03  0.93555853675E+02 0.  0.
         23    2    1    2    0    0  0.68087537943E+02 -0.50154117496E+02  0.13155443063E+03  0.18786167037E+03  0.10408693795E+03 0.  0.
        -11    1    4    4    0    0  0.28795101455E+02 -0.78802238466E+02  0.96760172295E+02  0.12806826928E+03  0.00000000000E+00 0. -1.
         11    1    4    4    0    0  0.39292436489E+02  0.28648120970E+02  0.34794258331E+02  0.59793401083E+02  0.00000000000E+00 0.  1.
        -13    1    3    3    0    0 -0.71384522793E+02  0.42268067489E+02  0.21513967292E+03  0.23058061169E+03  0.00000000000E+00 0.  1.
         13    1    3    3    0    0  0.24736971876E+02  0.45930534830E+01  0.15043587228E+03  0.15252529491E+03  0.00000000000E+00 0. -1.
         -1    1    1    2    0  502 -0.21439987026E+02  0.32929965243E+01 -0.56453425963E+01  0.22413985875E+02  0.00000000000E+00 0.  1.
<scales pt_clust_5="13000.00000" pt_clust_6="13000.00000" pt_clust_7="13000.00000" pt_clust_8="13000.00000" pt_clust_9="21.69140"></scales>
<clustering>
<clus scale="   21.691">  2  9  1 -1</clus>
<clus scale="   93.556">  7  8 -1 -1</clus>
<clus scale="  104.087">  5  6 -1 -1</clus>
<clus scale="  117.044">  1  7  2 -1</clus>
<clus scale="   21.691">  2  5  1 -1</clus>
</clustering>
</event>
<event>
 9    1  0.1321469E-005  0.1023506E+03  0.7546771E-02  0.1275866E+00
         -4   -1    0    0    0  501 -0.00000000000E+00  0.00000000000E+00  0.65297067873E+02  0.65297067873E+02  0.00000000000E+00 0.  1.
         21   -1    0    0  501  502  0.00000000000E+00 -0.00000000000E+00 -0.29429311944E+03  0.29429311944E+03  0.00000000000E+00 0.  1.
         23    2    1    2    0    0  0.26507107255E+02 -0.46046375071E+02 -0.12077171906E+02  0.10644267228E+03  0.91440084253E+02 0.  0.
         23    2    1    2    0    0  0.43303140592E+01  0.29648471122E+02 -0.16559040137E+03  0.19106329408E+03  0.90483246299E+02 0.  0.
        -11    1    3    3    0    0  0.41617728626E+02 -0.60735998664E+02 -0.29283556633E+02  0.79236503953E+02  0.00000000000E+00 0.  1.
         11    1    3    3    0    0 -0.15110621371E+02  0.14689623593E+02  0.17206384727E+02  0.27206168325E+02  0.00000000000E+00 0. -1.
        -13    1    4    4    0    0  0.31274242441E+02  0.10592930744E+02 -0.15170989984E+03  0.15526165699E+03  0.00000000000E+00 0.  1.
         13    1    4    4    0    0 -0.26943928382E+02  0.19055540378E+02 -0.13880501527E+02  0.35801637091E+02  0.00000000000E+00 0. -1.
         -4    1    1    2    0  502 -0.30837421314E+02  0.16397903949E+02 -0.51328478287E+02  0.62084220946E+02  0.00000000000E+00 0.  1.
<scales pt_clust_5="13000.00000" pt_clust_6="13000.00000" pt_clust_7="13000.00000" pt_clust_8="13000.00000" pt_clust_9="34.92618"></scales>
<clustering>
<clus scale="   34.926">  2  9  1 -1</clus>
<clus scale="   90.483">  7  8 -1 -1</clus>
<clus scale="   91.440">  5  6 -1 -1</clus>
<clus scale="  101.497">  2  7  1 -1</clus>
<clus scale="   34.926">  2  5  1 -1</clus>
</clustering>
</event>
<event>
 9    1  0.1321469E-005  0.1904589E+03  0.7546771E-02  0.1159725E+00
         21   -1    0    0  501  502  0.00000000000E+00  0.00000000000E+00  0.19879147129E+03  0.19879147129E+03  0.00000000000E+00 0.  1.
          1   -1    0    0  502    0 -0.00000000000E+00 -0.00000000000E+00 -0.31614103342E+03  0.31614103342E+03  0.00000000000E+00 0. -1.
         23    2    1    2    0    0 -0.77929835318E+02 -0.14779482888E+03 -0.21216573031E+03  0.28476883812E+03  0.90347237764E+02 0.  0.
         23    2    1    2    0    0  0.68748136355E+02  0.10942387401E+03  0.93658480910E+02  0.19069248706E+03  0.10436389759E+03 0.  0.
        -13    1    3    3    0    0 -0.10995571907E+02 -0.31107380167E+02  0.65206789723E+00  0.32999952954E+02  0.00000000000E+00 0.  1.
         13    1    3    3    0    0 -0.66934263411E+02 -0.11668744871E+03 -0.21281779821E+03  0.25176888517E+03  0.00000000000E+00 0. -1.
        -13    1    4    4    0    0  0.37337630225E+02 -0.10363855328E+02  0.40119789447E+02  0.55777285998E+02  0.00000000000E+00 0. -1.
         13    1    4    4    0    0  0.31410506130E+02  0.11978772934E+03  0.53538691463E+02  0.13491520106E+03  0.00000000000E+00 0.  1.
          1    1    1    2  501    0  0.91816989635E+01  0.38370954867E+02  0.11576872757E+01  0.39471179525E+02  0.00000000000E+00 0. -1.
<scales pt_clust_5="13000.00000" pt_clust_6="13000.00000" pt_clust_7="13000.00000" pt_clust_8="13000.00000" pt_clust_9="39.45420"></scales>
<clustering>
<clus scale="   39.454">  1  9  2 -1</clus>
<clus scale="   90.347">  5  6 -1 -1</clus>
<clus scale="  104.364">  7  8 -1 -1</clus>
<clus scale="  183.154">  2  5  1 -1</clus>
<clus scale="   39.454">  1  5  2 -1</clus>
</clustering>
</event>
<event>
 9    1  0.1321469E-005  0.1261919E+03  0.7546771E-02  0.1234791E+00
         -1   -1    0    0    0  501 -0.00000000000E+00  0.00000000000E+00  0.55474202990E+03  0.55474202990E+03  0.00000000000E+00 0.  1.
         21   -1    0    0  501  502  0.00000000000E+00 -0.00000000000E+00 -0.13340063747E+03  0.13340063747E+03  0.00000000000E+00 0.  1.
         23    2    1    2    0    0 -0.92259790869E+02  0.67358200947E+01  0.47007510670E+03  0.48675474122E+03  0.86036805330E+02 0.  0.
         23    2    1    2    0    0  0.58915843059E+02  0.90138568633E+01  0.30927580904E+02  0.11360527906E+03  0.91636881173E+02 0.  0.
        -11    1    3    3    0    0 -0.81682393646E+01 -0.31765945371E+02  0.15244481551E+03  0.15593337422E+03  0.00000000000E+00 0. -1.
         11    1    3    3    0    0 -0.84091551504E+02  0.38501765466E+02  0.31763029120E+03  0.33082136700E+03  0.00000000000E+00 0.  1.
        -13    1    4    4    0    0  0.35263305385E+02  0.46193671236E+02  0.37337828404E+02  0.69075823548E+02  0.00000000000E+00 0.  1.
         13    1    4    4    0    0  0.23652537674E+02 -0.37179814373E+02 -0.64102474995E+01  0.44529455513E+02  0.00000000000E+00 0. -1.
         -1    1    1    2    0  502  0.33343947809E+02 -0.15749676958E+02 -0.79661295179E+02  0.87782647086E+02  0.00000000000E+00 0.  1.
<scales pt_clust_5="13000.00000" pt_clust_6="13000.00000" pt_clust_7="13000.00000" pt_clust_8="13000.00000" pt_clust_9="36.87643"></scales>
<clustering>
<clus scale="   36.876">  2  9  1 -1</clus>
<clus scale="   86.037">  5  6 -1 -1</clus>
<clus scale="   91.637">  7  8 -1 -1</clus>
<clus scale="  122.186">  1  5  2 -1</clus>
<clus scale="   36.876">  2  5  1 -1</clus>
</clustering>
</event>
<event>
 9    1  0.1321469E-005  0.9841574E+02  0.7546771E-02  0.1284097E+00
          1   -1    0    0  502    0 -0.00000000000E+00  0.00000000000E+00  0.46040220515E+03  0.46040220515E+03  0.00000000000E+00 0. -1.
         21   -1    0    0  501  502  0.00000000000E+00 -0.00000000000E+00 -0.10019293929E+03  0.10019293929E+03  0.00000000000E+00 0. -1.
         23    2    1    2    0    0 -0.12959480666E+02  0.22987080972E+02  0.30557047475E+03  0.31993515532E+03  0.91043036756E+02 0.  0.
         23    2    1    2    0    0  0.95023064730E+01 -0.86063072840E+02  0.10229320385E+03  0.16153050120E+03  0.90172373433E+02 0.  0.
        -11    1    3    3    0    0 -0.50105434112E+02 -0.17923688275E+01  0.16201663160E+03  0.16959704015E+03  0.00000000000E+00 0. -1.
         11    1    3    3    0    0  0.37145953446E+02  0.24779449800E+02  0.14355384315E+03  0.15033811517E+03  0.00000000000E+00 0.  1.
        -11    1    4    4    0    0  0.33949916231E+02 -0.82661352980E+01  0.60576683273E+02  0.69931826526E+02  0.00000000000E+00 0.  1.
         11    1    4    4    0    0 -0.24447609758E+02 -0.77796937542E+02  0.41716520577E+02  0.91598674678E+02  0.00000000000E+00 0. -1.
          1    1    1    2  501    0  0.34571741929E+01  0.63075991867E+02 -0.47654412746E+02  0.79129487915E+02  0.00000000000E+00 0. -1.
<scales pt_clust_5="13000.00000" pt_clust_6="13000.00000" pt_clust_7="13000.00000" pt_clust_8="13000.00000" pt_clust_9="63.17066"></scales>
<clustering>
<clus scale="   63.171">  2  9  1 -1</clus>
<clus scale="   90.172">  7  8 -1 -1</clus>
<clus scale="   91.043">  5  6 -1 -1</clus>
<clus scale="   97.611">  2  7  1 -1</clus>
<clus scale="   63.171">  2  5  1 -1</clus>
</clustering>
</event>
<event>
 9    1  0.1321469E-005  0.1566417E+03  0.7546771E-02  0.1192559E+00
         21   -1    0    0  501  502  0.00000000000E+00  0.00000000000E+00  0.83263525436E+02  0.83263525436E+02  0.00000000000E+00 0.  1.
          2   -1    0    0  502    0 -0.00000000000E+00 -0.00000000000E+00 -0.43908940438E+03  0.43908940438E+03  0.00000000000E+00 0. -1.
         23    2    1    2    0    0 -0.75300757062E+02 -0.12184767578E+03 -0.16482461624E+03  0.23691109792E+03  0.91883916402E+02 0.  0.
         23    2    1    2    0    0  0.95481174993E+02  0.65063096904E+02 -0.10794814587E+03  0.18282819790E+03  0.91779553249E+02 0.  0.
        -11    1    4    4    0    0  0.64572161807E+02  0.64432118401E+02 -0.25413955432E+02  0.94693880968E+02  0.00000000000E+00 0.  1.
         11    1    4    4    0    0  0.30909013186E+02  0.63097850326E+00 -0.82534190441E+02  0.88134316936E+02  0.00000000000E+00 0. -1.
        -13    1    3    3    0    0 -0.32173426510E+02 -0.99372656866E+02 -0.15560722974E+03  0.18741308453E+03  0.00000000000E+00 0. -1.
         13    1    3    3    0    0 -0.43127330552E+02 -0.22475018910E+02 -0.92173864966E+01  0.49498013388E+02  0.00000000000E+00 0.  1.
          2    1    1    2  501    0 -0.20180417931E+02  0.56784578872E+02 -0.83053116832E+02  0.10261363399E+03  0.00000000000E+00 0. -1.
<scales pt_clust_5="13000.00000" pt_clust_6="13000.00000" pt_clust_7="13000.00000" pt_clust_8="13000.00000" pt_clust_9="60.26393"></scales>
<clustering>
<clus scale="   60.264">  1  9  2 -1</clus>
<clus scale="   91.780">  5  6 -1 -1</clus>
<clus scale="   91.884">  7  8 -1 -1</clus>
<clus scale="  156.581">  1  5  2 -1</clus>
<clus scale="   60.264">  1  5  2 -1</clus>
</clustering>
</event>
<event>
 9    1  0.1321469E-005  0.1187264E+03  0.7546771E-02  0.1246862E+00
          2   -1    0    0  502    0 -0.00000000000E+00  0.00000000000E+00  0.34586793463E+03  0.34586793463E+03  0.00000000000E+00 0. -1.
         21   -1    0    0  501  502  0.00000000000E+00 -0.00000000000E+00 -0.15377547896E+03  0.15377547896E+03  0.00000000000E+00 0. -1.
         23    2    1    2    0    0 -0.98026544618E+01 -0.88774500223E+02  0.18590490144E+03  0.22582880718E+03  0.91983769491E+02 0.  0.
         23    2    1    2    0    0  0.29281468585E+02  0.55460390271E+02  0.11568721363E+03  0.15771366097E+03  0.86929903762E+02 0.  0.
        -13    1    4    4    0    0  0.55263886226E+02  0.17463573504E+02  0.83102333078E+02  0.10131668808E+03  0.00000000000E+00 0. -1.
         13    1    4    4    0    0 -0.25982417641E+02  0.37996816767E+02  0.32584880555E+02  0.56396972895E+02  0.00000000000E+00 0.  1.
        -13    1    3    3    0    0 -0.36259565231E+02 -0.16281536146E+02  0.11253128296E+03  0.11934460245E+03  0.00000000000E+00 0.  1.
         13    1    3    3    0    0  0.26456910770E+02 -0.72492964077E+02  0.73373618479E+02  0.10648420473E+03  0.00000000000E+00 0. -1.
          2    1    1    2  501    0 -0.19478814123E+02  0.33314109952E+02 -0.10949965940E+03  0.11610094543E+03  0.00000000000E+00 0. -1.
<scales pt_clust_5="13000.00000" pt_clust_6="13000.00000" pt_clust_7="13000.00000" pt_clust_8="13000.00000" pt_clust_9="38.59086"></scales>
<clustering>
<clus scale="   38.591">  2  9  1 -1</clus>
<clus scale="   86.930">  5  6 -1 -1</clus>
<clus scale="   91.984">  7  8 -1 -1</clus>
<clus scale="  114.855">  2  5  1 -1</clus>
<clus scale="   38.591">  2  5  1 -1</clus>
</clustering>
</event>
<event>
 9    1  0.1321469E-005  0.2531160E+03  0.7546771E-02  0.1111426E+00
         -1   -1    0    0    0  501 -0.00000000000E+00  0.00000000000E+00  0.30021365954E+03  0.30021365954E+03  0.00000000000E+00 0.  1.
         21   -1    0    0  501  502  0.00000000000E+00 -0.00000000000E+00 -0.35124143126E+03  0.35124143126E+03  0.00000000000E+00 0.  1.
         23    2    1    2    0    0  0.51425545708E+02  0.21678941139E+03  0.11481156207E+03  0.26693510449E+03  0.91817316366E+02 0.  0.
         23    2    1    2    0    0 -0.46005113475E+02 -0.26734571284E+03 -0.10361389775E+03  0.30416250008E+03  0.90491911276E+02 0.  0.
        -13    1    4    4    0    0 -0.67792866250E+02 -0.21638597708E+03 -0.62673620566E+02  0.23525889251E+03  0.00000000000E+00 0.  1.
         13    1    4    4    0    0  0.21787752775E+02 -0.50959735761E+02 -0.40940277180E+02  0.68903607564E+02  0.00000000000E+00 0. -1.
        -13    1    3    3    0    0  0.62154100677E+02  0.69457801763E+02  0.47177395951E+02  0.10446638285E+03  0.00000000000E+00 0. -1.
         13    1    3    3    0    0 -0.10728554969E+02  0.14733160962E+03  0.67634166117E+02  0.16246872164E+03  0.00000000000E+00 0.  1.
         -1    1    1    2    0  502 -0.54204322328E+01  0.50556301455E+02 -0.62225436049E+02  0.80357486235E+02  0.00000000000E+00 0.  1.
<scales pt_clust_5="13000.00000" pt_clust_6="13000.00000" pt_clust_7="13000.00000" pt_clust_8="13000.00000" pt_clust_9="50.84605"></scales>
<clustering>
<clus scale="   50.846">  2  9  1 -1</clus>
<clus scale="   90.492">  5  6 -1 -1</clus>
<clus scale="   91.817">  7  8 -1 -1</clus>
<clus scale="  252.638">  2  5  1 -1</clus>
<clus scale="   50.846">  2  5  1 -1</clus>
</clustering>
</event>
<event>
 9    1  0.1321469E-005  0.1265229E+03  0.7546771E-02  0.1233849E+00
         21   -1    0    0  501  502  0.00000000000E+00  0.00000000000E+00  0.98876394489E+02  0.98876394489E+02  0.00000000000E+00 0. -1.
          2   -1    0    0  502    0 -0.00000000000E+00 -0.00000000000E+00 -0.36222853772E+03  0.36222853772E+03  0.00000000000E+00 0. -1.
         23    2    1    2    0    0  0.67067670735E+02 -0.43685515757E+02 -0.17113260612E+03  0.20973301227E+03  0.91077279350E+02 0.  0.
         23    2    1    2    0    0 -0.75759564384E+02  0.62792856189E+02 -0.14436675151E+03  0.19515829666E+03  0.86962908346E+02 0.  0.
        -11    1    4    4    0    0 -0.62349136733E+02 -0.37496205243E+01 -0.57349818434E+02  0.84796675524E+02  0.00000000000E+00 0.  1.
         11    1    4    4    0    0 -0.13410427651E+02  0.66542476713E+02 -0.87016933077E+02  0.11036162113E+03  0.00000000000E+00 0. -1.
        -11    1    3    3    0    0  0.54184477510E+01 -0.25606120560E+02  0.80402415270E+00  0.26185481492E+02  0.00000000000E+00 0.  1.
         11    1    3    3    0    0  0.61649222984E+02 -0.18079395198E+02 -0.17193663027E+03  0.18354753078E+03  0.00000000000E+00 0. -1.
          2    1    1    2  501    0  0.86918936492E+01 -0.19107340431E+02  0.52147214396E+02  0.56213623285E+02  0.00000000000E+00 0. -1.
<scales pt_clust_5="13000.00000" pt_clust_6="13000.00000" pt_clust_7="13000.00000" pt_clust_8="13000.00000" pt_clust_9="20.99141"></scales>
<clustering>
<clus scale="   20.991">  1  9  2 -1</clus>
<clus scale="   86.963">  5  6 -1 -1</clus>
<clus scale="   91.077">  7  8 -1 -1</clus>
<clus scale="  123.594">  1  5  2 -1</clus>
<clus scale="   20.991">  1  5  2 -1</clus>
</clustering>
</event>
<event>
 9    1  0.1321469E-005  0.9228088E+02  0.7546771E-02  0.1297630E+00
         21   -1    0    0  501  502  0.00000000000E+00  0.00000000000E+00  0.20207507255E+03  0.20207507255E+03  0.00000000000E+00 0.  1.
          1   -1    0    0  502    0 -0.00000000000E+00 -0.00000000000E+00 -0.56255419651E+02  0.56255419651E+02  0.00000000000E+00 0. -1.
         23    2    1    2    0    0  0.76901210906E+00  0.25195007718E+02  0.38208574470E+02  0.10139178819E+03  0.90471099003E+02 0.  0.
         23    2    1    2    0    0  0.48414345752E+01 -0.33298846181E+01  0.79237748404E+02  0.12068120028E+03  0.90833934791E+02 0.  0.
        -11    1    3    3    0    0 -0.17504110129E+02  0.10403731010E+02 -0.25994185540E+02  0.33020132831E+02  0.00000000000E+00 0. -1.
         11    1    3    3    0    0  0.18273122238E+02  0.14791276708E+02  0.64202760009E+02  0.68371655354E+02  0.00000000000E+00 0.  1.
        -13    1    4    4    0    0  0.41294160729E+02 -0.10026680719E+02  0.70951515967E+02  0.82703444031E+02  0.00000000000E+00 0.  1.
         13    1    4    4    0    0 -0.36452726154E+02  0.66967961008E+01  0.82862324368E+01  0.37977756254E+02  0.00000000000E+00 0. -1.
          1    1    1    2  501    0 -0.56104466843E+01 -0.21865123100E+02  0.28373330030E+02  0.36257503736E+02  0.00000000000E+00 0. -1.
<scales pt_clust_5="13000.00000" pt_clust_6="13000.00000" pt_clust_7="13000.00000" pt_clust_8="13000.00000" pt_clust_9="22.57345"></scales>
<clustering>
<clus scale="   22.573">  1  9  2 -1</clus>
<clus scale="   90.471">  5  6 -1 -1</clus>
<clus scale="   90.834">  7  8 -1 -1</clus>
<clus scale="   91.924">  2  5  1 -1</clus>
<clus scale="   22.573">  1  5  2 -1</clus>
</clustering>
</event>
<event>
 9    1  0.1321469E-005  0.1032113E+03  0.7546771E-02  0.1277483E+00
         21   -1    0    0  501  502  0.00000000000E+00  0.00000000000E+00  0.41892148799E+02  0.41892148799E+02  0.00000000000E+00 0.  1.
          2   -1    0    0  502    0 -0.00000000000E+00 -0.00000000000E+00 -0.32473374138E+03  0.32473374138E+03  0.00000000000E+00 0. -1.
         23    2    1    2    0    0 -0.22178890504E+02 -0.19897853963E+02 -0.16273475414E+03  0.19273519483E+03  0.98875817793E+02 0.  0.
         23    2    1    2    0    0  0.12917223692E+01  0.35113107565E+02 -0.10680196953E+03  0.14482529889E+03  0.91285856701E+02 0.  0.
        -11    1    4    4    0    0  0.46071001708E+02  0.21856253917E+02 -0.52132692927E+02  0.72924966270E+02  0.00000000000E+00 0. -1.
         11    1    4    4    0    0 -0.44779279338E+02  0.13256853648E+02 -0.54669276599E+02  0.71900332618E+02  0.00000000000E+00 0.  1.
        -13    1    3    3    0    0 -0.32917829479E+02  0.34427394416E+02 -0.82084396050E+02  0.94903514469E+02  0.00000000000E+00 0. -1.
         13    1    3    3    0    0  0.10738938975E+02 -0.54325248379E+02 -0.80650358088E+02  0.97831680357E+02  0.00000000000E+00 0.  1.
          2    1    1    2  501    0  0.20887168135E+02 -0.15215253602E+02 -0.13304868919E+02  0.29065396468E+02  0.00000000000E+00 0. -1.
<scales pt_clust_5="13000.00000" pt_clust_6="13000.00000" pt_clust_7="13000.00000" pt_clust_8="13000.00000" pt_clust_9="25.84140"></scales>
<clustering>
<clus scale="   25.841">  1  9  2 -1</clus>
<clus scale="   91.286">  5  6 -1 -1</clus>
<clus scale="   95.965">  1  5  2 -1</clus>
<clus scale="   98.876">  7  8 -1 -1</clus>
<clus scale="   25.841">  1  5  2 -1</clus>
</clustering>
</event>
<event>
 9    1  0.1321469E-005  0.1137219E+03  0.7546771E-02  0.1254754E+00
         21   -1    0    0  501  502  0.00000000000E+00  0.00000000000E+00  0.92480333242E+02  0.92480333242E+02  0.00000000000E+00 0. -1.
          1   -1    0    0  502    0 -0.00000000000E+00 -0.00000000000E+00 -0.48982156879E+03  0.48982156879E+03  0.00000000000E+00 0. -1.
         23    2    1    2    0    0  0.38216908845E+02  0.31255991141E+02 -0.25826508683E+03  0.27872334090E+03  0.92457431199E+02 0.  0.
         23    2    1    2    0    0 -0.13042624177E+03 -0.59596660495E+02 -0.11348977575E+03  0.20377667187E+03  0.89901258696E+02 0.  0.
        -11    1    4    4    0    0 -0.19622331519E+02  0.21518678577E+02 -0.68647794395E+01  0.29920137344E+02  0.00000000000E+00 0.  1.
         11    1    4    4    0    0 -0.11080391025E+03 -0.81115339072E+02 -0.10662499632E+03  0.17385653453E+03  0.00000000000E+00 0. -1.
        -13    1    3    3    0    0 -0.30382112068E+02  0.45390460035E+01 -0.88624889498E+02  0.93797903552E+02  0.00000000000E+00 0.  1.
         13    1    3    3    0    0  0.68599020913E+02  0.26716945138E+02 -0.16964019733E+03  0.18492543734E+03  0.00000000000E+00 0. -1.
          1    1    1    2  501    0  0.92209332923E+02  0.28340669354E+02 -0.25586372963E+02  0.99801889256E+02  0.00000000000E+00 0. -1.
<scales pt_clust_5="13000.00000" pt_clust_6="13000.00000" pt_clust_7="13000.00000" pt_clust_8="13000.00000" pt_clust_9="96.46634"></scales>
<clustering>
<clus scale="   89.901">  5  6 -1 -1</clus>
<clus scale="   92.457">  7  8 -1 -1</clus>
<clus scale="   96.466">  1  9  2 -1</clus>
<clus scale="  111.654">  1  5  2 -1</clus>
<clus scale="   96.466">  1  5  2 -1</clus>
</clustering>
</event>
<event>
 9    1  0.1321469E-005  0.9302454E+02  0.7546771E-02  0.1296631E+00
         21   -1    0    0  501  502  0.00000000000E+00  0.00000000000E+00  0.44612790344E+03  0.44612790344E+03  0.00000000000E+00 0.  1.
          2   -1    0    0  502    0 -0.00000000000E+00 -0.00000000000E+00 -0.15338182337E+03  0.15338182337E+03  0.00000000000E+00 0. -1.
         23    2    1    2    0    0 -0.24768091487E+02 -0.42629461102E+01 -0.10628820291E+03  0.13940638100E+03  0.86633284134E+02 0.  0.
         23    2    1    2    0    0  0.84287439774E+02 -0.58590711185E+02  0.18536091524E+03  0.22956171587E+03  0.88332715077E+02 0.  0.
        -13    1    3    3    0    0 -0.45003086138E+02 -0.10107359370E+02 -0.10882111778E+03  0.11819252155E+03  0.00000000000E+00 0.  1.
         13    1    3    3    0    0  0.20234994651E+02  0.58444132601E+01  0.25329148716E+01  0.21213859447E+02  0.00000000000E+00 0. -1.
        -13    1    4    4    0    0  0.10068653212E+03 -0.34802080157E+02  0.14577301130E+03  0.18055119318E+03  0.00000000000E+00 0.  1.
         13    1    4    4    0    0 -0.16399092349E+02 -0.23788631028E+02  0.39587903940E+02  0.49010522691E+02  0.00000000000E+00 0. -1.
          2    1    1    2  501    0 -0.59519348287E+02  0.62853657296E+02  0.21367336774E+03  0.23054162995E+03  0.00000000000E+00 0. -1.
<scales pt_clust_5="13000.00000" pt_clust_6="13000.00000" pt_clust_7="13000.00000" pt_clust_8="13000.00000" pt_clust_9="86.56290"></scales>
<clustering>
<clus scale="   86.563">  1  9  2 -1</clus>
<clus scale="   86.633">  5  6 -1 -1</clus>
<clus scale="   88.333">  7  8 -1 -1</clus>
<clus scale="   91.412">  2  5  1 -1</clus>
<clus scale="   86.563">  1  5  2 -1</clus>
</clustering>
</event>
<event>
 9    1  0.1321469E-005  0.1098020E+03  0.7546771E-02  0.1262089E+00
         21   -1    0    0  501  502  0.00000000000E+00  0.00000000000E+00  0.15232543772E+03  0.15232543772E+03  0.00000000000E+00 0. -1.
          3   -1    0    0  502    0 -0.00000000000E+00 -0.00000000000E+00 -0.15916723625E+03  0.15916723625E+03  0.00000000000E+00 0. -1.
         23    2    1    2    0    0 -0.57714573135E+02 -0.28484556842E+02 -0.34699515216E+02  0.11678943557E+03  0.91067963495E+02 0.  0.
         23    2    1    2    0    0  0.21192325807E+02  0.65803475888E+02  0.66049875028E+02  0.13000998351E+03  0.88095389829E+02 0.  0.
        -11    1    3    3    0    0  0.24695724774E+02 -0.76466863753E+01 -0.28271287200E+01  0.26006600920E+02  0.00000000000E+00 0.  1.
         11    1    3    3    0    0 -0.82410297909E+02 -0.20837870467E+02 -0.31872386496E+02  0.90782834654E+02  0.00000000000E+00 0. -1.
        -13    1    4    4    0    0 -0.20782168771E+02 -0.10319214276E+02  0.24220362367E+02  0.33541178800E+02  0.00000000000E+00 0.  1.
         13    1    4    4    0    0  0.41974494577E+02  0.76122690163E+02  0.41829512661E+02  0.96468804710E+02  0.00000000000E+00 0. -1.
          3    1    1    2  501    0  0.36522247328E+02 -0.37318919046E+02 -0.38192158345E+02  0.64693254885E+02  0.00000000000E+00 0. -1.
<scales pt_clust_5="13000.00000" pt_clust_6="13000.00000" pt_clust_7="13000.00000" pt_clust_8="13000.00000" pt_clust_9="52.21665"></scales>
<clustering>
<clus scale="   52.217">  1  9  2 -1</clus>
<clus scale="   88.095">  7  8 -1 -1</clus>
<clus scale="   91.068">  5  6 -1 -1</clus>
<clus scale="  107.349">  1  7  2 -1</clus>
<clus scale="   52.217">  1  5  2 -1</clus>
</clustering>
</event>
<event>
 9    1  0.1321469E-005  0.1005277E+03  0.7546771E-02  0.1279800E+00
         21   -1    0    0  501  502  0.00000000000E+00  0.00000000000E+00  0.14810217435E+03  0.14810217435E+03  0.00000000000E+00 0.  1.
          1   -1    0    0  502    0 -0.00000000000E+00 -0.00000000000E+00 -0.27764167318E+03  0.27764167318E+03  0.00000000000E+00 0. -1.
         23    2    1    2    0    0  0.42478368126E+01  0.45310906746E+02 -0.22739795621E+03  0.24876380362E+03  0.90013760696E+02 0.  0.
         23    2    1    2    0    0  0.31213011896E+02 -0.40798998192E+02  0.42265230766E+02  0.11088589928E+03  0.88715965662E+02 0.  0.
        -13    1    3    3    0    0  0.30907454588E+02  0.58050784407E+02 -0.19025954696E+03  0.20130538872E+03  0.00000000000E+00 0. -1.
         13    1    3    3    0    0 -0.26659617775E+02 -0.12739877661E+02 -0.37138409245E+02  0.47458414892E+02  0.00000000000E+00 0.  1.
        -13    1    4    4    0    0 -0.75459759286E+01  0.24428860514E+02  0.39003206070E+01  0.25863555045E+02  0.00000000000E+00 0.  1.
         13    1    4    4    0    0  0.38758987824E+02 -0.65227858706E+02  0.38364910159E+02  0.85022344240E+02  0.00000000000E+00 0. -1.
          1    1    1    2  501    0 -0.35460848708E+02 -0.45119085541E+01  0.55593226611E+02  0.66094144634E+02  0.00000000000E+00 0. -1.
<scales pt_clust_5="13000.00000" pt_clust_6="13000.00000" pt_clust_7="13000.00000" pt_clust_8="13000.00000" pt_clust_9="35.74674"></scales>
<clustering>
<clus scale="   35.747">  1  9  2 -1</clus>
<clus scale="   88.716">  7  8 -1 -1</clus>
<clus scale="   90.014">  5  6 -1 -1</clus>
<clus scale="   99.367">  1  7  2 -1</clus>
<clus scale="   35.747">  1  5  2 -1</clus>
</clustering>
</event>
<event>
 9    1  0.1321469E-005  0.1258881E+03  0.7546771E-02  0.1237164E+00
         21   -1    0    0  501  502  0.00000000000E+00  0.00000000000E+00  0.12117301924E+03  0.12117301924E+03  0.00000000000E+00 0. -1.
          2   -1    0    0  502    0 -0.00000000000E+00 -0.00000000000E+00 -0.45827301191E+03  0.45827301191E+03  0.00000000000E+00 0. -1.
         23    2    1    2    0    0  0.67057970079E+02 -0.32088411497E+02 -0.36968340671E+03  0.39084989595E+03  0.10281722845E+03 0.  0.
         23    2    1    2    0    0 -0.32400816034E+02  0.72644128125E+02 -0.74951618996E+01  0.12187150162E+03  0.92029903965E+02 0.  0.
        -13    1    3    3    0    0 -0.66534769652E+01  0.29303939061E+02 -0.69705766541E+02  0.75907071405E+02  0.00000000000E+00 0.  1.
         13    1    3    3    0    0  0.73711447045E+02 -0.61392350558E+02 -0.29997764017E+03  0.31494282454E+03  0.00000000000E+00 0. -1.
        -13    1    4    4    0    0 -0.62714130680E+02  0.58937385024E+02 -0.15992319360E+02  0.87535317552E+02  0.00000000000E+00 0.  1.
         13    1    4    4    0    0  0.30313314646E+02  0.13706743101E+02  0.84971574608E+01  0.34336184065E+02  0.00000000000E+00 0. -1.
          2    1    1    2  501    0 -0.34657154045E+02 -0.40555716628E+02  0.40078575935E+02  0.66724633582E+02  0.00000000000E+00 0. -1.
<scales pt_clust_5="13000.00000" pt_clust_6="13000.00000" pt_clust_7="13000.00000" pt_clust_8="13000.00000" pt_clust_9="53.34683"></scales>
<clustering>
<clus scale="   53.347">  1  9  2 -1</clus>
<clus scale="   92.030">  7  8 -1 -1</clus>
<clus scale="  102.817">  5  6 -1 -1</clus>
<clus scale="  117.243">  1  7  2 -1</clus>
<clus scale="   53.347">  1  5  2 -1</clus>
</clustering>
</event>
<event>
 9    1  0.1321469E-005  0.1957234E+03  0.7546771E-02  0.1153994E+00
          2   -1    0    0  502    0 -0.00000000000E+00  0.00000000000E+00  0.10327118001E+04  0.10327118001E+04  0.00000000000E+00 0. -1.
         21   -1    0    0  501  502  0.00000000000E+00 -0.00000000000E+00 -0.51821706588E+02  0.51821706588E+02  0.00000000000E+00 0. -1.
         23    2    1    2    0    0 -0.92985365041E+02 -0.12399418190E+03  0.42417140306E+03  0.46090658588E+03  0.92155664393E+02 0.  0.
         23    2    1    2    0    0  0.12719170544E+03  0.14372979090E+03  0.54213066960E+03  0.58152729684E+03  0.86211085888E+02 0.  0.
        -13    1    3    3    0    0 -0.89198936431E+02 -0.45340474363E+02  0.26649309236E+03  0.28465905422E+03  0.00000000000E+00 0.  1.
         13    1    3    3    0    0 -0.37864286097E+01 -0.78653707536E+02  0.15767831070E+03  0.17624753166E+03  0.00000000000E+00 0. -1.
        -13    1    4    4    0    0  0.46933360663E+02  0.58742950522E+02  0.33831714229E+03  0.34657172901E+03  0.00000000000E+00 0.  1.
         13    1    4    4    0    0  0.80258344776E+02  0.84986840379E+02  0.20381352731E+03  0.23495556784E+03  0.00000000000E+00 0. -1.
          2    1    1    2  501    0 -0.34206340398E+02 -0.19735609001E+02  0.14588020869E+02  0.42099623976E+02  0.00000000000E+00 0. -1.
<scales pt_clust_5="13000.00000" pt_clust_6="13000.00000" pt_clust_7="13000.00000" pt_clust_8="13000.00000" pt_clust_9="39.49137"></scales>
<clustering>
<clus scale="   39.491">  2  9  1 -1</clus>
<clus scale="   86.211">  7  8 -1 -1</clus>
<clus scale="   92.156">  5  6 -1 -1</clus>
<clus scale="  192.996">  2  7  1 -1</clus>
<clus scale="   39.491">  2  5  1 -1</clus>
</clustering>
</event>
<event>
 9    1  0.1321469E-005  0.9521178E+02  0.7546771E-02  0.1291525E+00
         21   -1    0    0  501  502  0.00000000000E+00  0.00000000000E+00  0.35590936167E+02  0.35590936167E+02  0.00000000000E+00 0. -1.
         -1   -1    0    0    0  501 -0.00000000000E+00 -0.00000000000E+00 -0.46471059752E+03  0.46471059752E+03  0.00000000000E+00 0.  1.
         23    2    1    2    0    0 -0.29580305426E+02  0.46962888258E+01 -0.34451780572E+03  0.35772941011E+03  0.91546506236E+02 0.  0.
         23    2    1    2    0    0  0.11015563477E+02 -0.14762144391E+02 -0.77741619297E+02  0.12036775611E+03  0.90029849467E+02 0.  0.
        -11    1    4    4    0    0 -0.20783903929E+01 -0.43398302165E+02 -0.77535770800E+02  0.88879289437E+02  0.00000000000E+00 0. -1.
         11    1    4    4    0    0  0.13093953870E+02  0.28636157774E+02 -0.20584849750E+00  0.31488466676E+02  0.00000000000E+00 0.  1.
        -13    1    3    3    0    0  0.24784614749E+02  0.17381138874E+02 -0.54087778240E+02  0.61982811099E+02  0.00000000000E+00 0.  1.
         13    1    3    3    0    0 -0.54364920175E+02 -0.12684850048E+02 -0.29043002748E+03  0.29574659901E+03  0.00000000000E+00 0. -1.
         -1    1    1    2    0  502  0.18564741949E+02  0.10065855565E+02 -0.68602363419E+01  0.22204367465E+02  0.00000000000E+00 0.  1.
<scales pt_clust_5="13000.00000" pt_clust_6="13000.00000" pt_clust_7="13000.00000" pt_clust_8="13000.00000" pt_clust_9="21.11803"></scales>
<clustering>
<clus scale="   21.118">  1  9  2 -1</clus>
<clus scale="   90.030">  5  6 -1 -1</clus>
<clus scale="   91.547">  7  8 -1 -1</clus>
<clus scale="   93.754">  1  5  2 -1</clus>
<clus scale="   21.118">  1  5  2 -1</clus>
</clustering>
</event>
<event>
 9    1  0.1321469E-005  0.1018055E+03  0.7546771E-02  0.1277463E+00
         -2   -1    0    0    0  501 -0.00000000000E+00  0.00000000000E+00  0.13350264896E+03  0.13350264896E+03  0.00000000000E+00 0.  1.
         21   -1    0    0  501  502  0.00000000000E+00 -0.00000000000E+00 -0.95264738081E+02  0.95264738081E+02  0.00000000000E+00 0. -1.
         23    2    1    2    0    0  0.28354615982E+02  0.38029989227E+02  0.27830866247E+02  0.10568124635E+03  0.90242475507E+02 0.  0.
         23    2    1    2    0    0 -0.10340488782E+02 -0.48007640672E+02  0.14710236719E+02  0.10204856077E+03  0.88237511407E+02 0.  0.
        -11    1    3    3    0    0 -0.21549475933E+02  0.12962104633E+02  0.41189472565E+02  0.48259389964E+02  0.00000000000E+00 0.  1.
         11    1    3    3    0    0  0.49904091915E+02  0.25067884594E+02 -0.13358606318E+02  0.57421856385E+02  0.00000000000E+00 0. -1.
        -11    1    4    4    0    0 -0.30044939186E+02 -0.11857106829E+02  0.41754044504E+02  0.52789104799E+02  0.00000000000E+00 0.  1.
         11    1    4    4    0    0  0.19704450404E+02 -0.36150533843E+02 -0.27043807784E+02  0.49259455969E+02  0.00000000000E+00 0. -1.
         -2    1    1    2    0  502 -0.18014127200E+02  0.99776514445E+01 -0.43031920832E+01  0.21037579928E+02  0.00000000000E+00 0.  1.
<scales pt_clust_5="13000.00000" pt_clust_6="13000.00000" pt_clust_7="13000.00000" pt_clust_8="13000.00000" pt_clust_9="20.59277"></scales>
<clustering>
<clus scale="   20.593">  2  9  1 -1</clus>
<clus scale="   88.238">  7  8 -1 -1</clus>
<clus scale="   90.242">  5  6 -1 -1</clus>
<clus scale="  100.033">  2  7  1 -1</clus>
<clus scale="   20.593">  2  5  1 -1</clus>
</clustering>
</event>
<event>
 9    1  0.1321469E-005  0.1946549E+03  0.7546771E-02  0.1182634E+00
         21   -1    0    0  501  502  0.00000000000E+00  0.00000000000E+00  0.90788838863E+02  0.90788838863E+02  0.00000000000E+00 0.  1.
          1   -1    0    0  502    0 -0.00000000000E+00 -0.00000000000E+00 -0.12797566154E+04  0.12797566154E+04  0.00000000000E+00 0. -1.
         23    2    1    2    0    0 -0.34735199766E+02  0.48161739144E+02  0.12637325637E+02  0.10247569986E+03  0.82555919488E+02 0.  0.
         23    2    1    2    0    0 -0.10515193973E+03  0.11100963032E+03 -0.38070787913E+03  0.42026306214E+03  0.91117965904E+02 0.  0.
        -13    1    4    4    0    0 -0.56827599791E+02  0.11117222699E+02 -0.19990933892E+03  0.20812667423E+03  0.00000000000E+00 0. -1.
         13    1    4    4    0    0 -0.48324339937E+02  0.99892407624E+02 -0.18079854021E+03  0.21213638790E+03  0.00000000000E+00 0.  1.
        -13    1    3    3    0    0 -0.10180068658E+02  0.64404912536E+02  0.25931844313E+02  0.70171839837E+02  0.00000000000E+00 0.  1.
         13    1    3    3    0    0 -0.24555131108E+02 -0.16243173392E+02 -0.13294518676E+02  0.32303860023E+02  0.00000000000E+00 0. -1.
          1    1    1    2  501    0  0.13988713949E+03 -0.15917136947E+03 -0.82089722309E+03  0.84780669231E+03  0.00000000000E+00 0. -1.
<scales pt_clust_5="13000.00000" pt_clust_6="13000.00000" pt_clust_7="13000.00000" pt_clust_8="13000.00000" pt_clust_9="172.01184"></scales>
<clustering>
<clus scale="   82.556">  7  8 -1 -1</clus>
<clus scale="   91.118">  5  6 -1 -1</clus>
<clus scale="  101.694">  2  7  1 -1</clus>
<clus scale="  172.012">  1  9  2 -1</clus>
<clus scale="  172.012">  1  5  2 -1</clus>
</clustering>
</event>
<event>
 9    1  0.1321469E-005  0.1269426E+03  0.7546771E-02  0.1232391E+00
          1   -1    0    0  502    0 -0.00000000000E+00  0.00000000000E+00  0.32665151880E+03  0.32665151880E+03  0.00000000000E+00 0. -1.
         21   -1    0    0  501  502  0.00000000000E+00 -0.00000000000E+00 -0.18316374801E+03  0.18316374801E+03  0.00000000000E+00 0. -1.
         23    2    1    2    0    0 -0.92073585228E+02  0.50829439634E+02  0.22868516084E+03  0.26733223637E+03  0.90046903242E+02 0.  0.
         23    2    1    2    0    0  0.51848667592E+02 -0.18316190322E+02  0.34594445491E+02  0.11200223017E+03  0.91235720770E+02 0.  0.
        -11    1    3    3    0    0 -0.58004860996E+02  0.68025362458E+02  0.10504498202E+03  0.13793644219E+03  0.00000000000E+00 0. -1.
         11    1    3    3    0    0 -0.34068724232E+02 -0.17195922824E+02  0.12364017881E+03  0.12939579417E+03  0.00000000000E+00 0.  1.
        -13    1    4    4    0    0  0.29023227922E+02  0.34272733625E+02 -0.25643636096E+00  0.44911399318E+02  0.00000000000E+00 0.  1.
         13    1    4    4    0    0  0.22825439670E+02 -0.52588923947E+02  0.34850881852E+02  0.67090830848E+02  0.00000000000E+00 0. -1.
          1    1    1    2  501    0  0.40224917636E+02 -0.32513249312E+02 -0.11979183554E+03  0.13048080028E+03  0.00000000000E+00 0. -1.
<scales pt_clust_5="13000.00000" pt_clust_6="13000.00000" pt_clust_7="13000.00000" pt_clust_8="13000.00000" pt_clust_9="51.72190"></scales>
<clustering>
<clus scale="   51.722">  2  9  1 -1</clus>
<clus scale="   90.047">  5  6 -1 -1</clus>
<clus scale="   91.236">  7  8 -1 -1</clus>
<clus scale="  126.091">  1  5  2 -1</clus>
<clus scale="   51.722">  2  5  1 -1</clus>
</clustering>
</event>
<event>
 9    1  0.1321469E-005  0.1194371E+03  0.7546771E-02  0.1245369E+00
          2   -1    0    0  502    0 -0.00000000000E+00  0.00000000000E+00  0.39601033302E+03  0.39601033302E+03  0.00000000000E+00 0. -1.
         21   -1    0    0  501  502  0.00000000000E+00 -0.00000000000E+00 -0.93690284972E+02  0.93690284972E+02  0.00000000000E+00 0.  1.
         23    2    1    2    0    0 -0.63498948901E+02 -0.60196484418E+02  0.30419402927E+03  0.32802844883E+03  0.86098330712E+02 0.  0.
         23    2    1    2    0    0  0.50091703427E+02  0.95525069737E+01  0.18644744010E+02  0.10540863952E+03  0.90348910702E+02 0.  0.
        -11    1    4    4    0    0 -0.26064185083E+02  0.42579472373E+01  0.11268972609E+02  0.28713439403E+02  0.00000000000E+00 0. -1.
         11    1    4    4    0    0  0.76155888510E+02  0.52945597364E+01  0.73757714010E+01  0.76695200119E+02  0.00000000000E+00 0.  1.
        -13    1    3    3    0    0  0.18374677038E+02 -0.85443465203E+01  0.10022309677E+03  0.10225117965E+03  0.00000000000E+00 0.  1.
         13    1    3    3    0    0 -0.81873625939E+02 -0.51652137898E+02  0.20397093250E+03  0.22577726918E+03  0.00000000000E+00 0. -1.
          2    1    1    2  501    0  0.13407245474E+02  0.50643977444E+02 -0.20518725229E+02  0.56263529641E+02  0.00000000000E+00 0. -1.
<scales pt_clust_5="13000.00000" pt_clust_6="13000.00000" pt_clust_7="13000.00000" pt_clust_8="13000.00000" pt_clust_9="52.38861"></scales>
<clustering>
<clus scale="   52.389">  2  9  1 -1</clus>
<clus scale="   86.098">  7  8 -1 -1</clus>
<clus scale="   90.349">  5  6 -1 -1</clus>
<clus scale="  116.255">  1  7  2 -1</clus>
<clus scale="   52.389">  2  5  1 -1</clus>
</clustering>
</event>
<event>
 9    1  0.1321469E-005  0.1001904E+03  0.7546771E-02  0.1281229E+00
         21   -1    0    0  501  502  0.00000000000E+00  0.00000000000E+00  0.13968461568E+03  0.13968461568E+03  0.00000000000E+00 0. -1.
         -3   -1    0    0    0  501 -0.00000000000E+00 -0.00000000000E+00 -0.88876559266E+02  0.88876559266E+02  0.00000000000E+00 0.  1.
         23    2    1    2    0    0 -0.26038100472E+02 -0.25701230757E+02  0.16564985438E+02  0.10162639259E+03  0.93354105374E+02 0.  0.
         23    2    1    2    0    0  0.75231946698E+01  0.38940923692E+02  0.23205353944E+02  0.10163809476E+03  0.90657707116E+02 0.  0.
        -11    1    4    4    0    0 -0.41355090630E+02  0.22583619499E+02  0.14977810085E+02  0.49442878007E+02  0.00000000000E+00 0.  1.
         11    1    4    4    0    0  0.48878285300E+02  0.16357304193E+02  0.82275438595E+01  0.52195216757E+02  0.00000000000E+00 0. -1.
        -11    1    3    3    0    0 -0.30618282283E+02  0.67061679072E+01 -0.30871593832E+02  0.43994399686E+02  0.00000000000E+00 0.  1.
         11    1    3    3    0    0  0.45801818115E+01 -0.32407398664E+02  0.47436579270E+02  0.57631992907E+02  0.00000000000E+00 0. -1.
         -3    1    1    2    0  502  0.18514905802E+02 -0.13239692936E+02  0.11037717035E+02  0.25296687594E+02  0.00000000000E+00 0.  1.
<scales pt_clust_5="13000.00000" pt_clust_6="13000.00000" pt_clust_7="13000.00000" pt_clust_8="13000.00000" pt_clust_9="22.76162"></scales>
<clustering>
<clus scale="   22.762">  1  9  2 -1</clus>
<clus scale="   90.658">  5  6 -1 -1</clus>
<clus scale="   93.354">  7  8 -1 -1</clus>
<clus scale="   97.683">  1  5  2 -1</clus>
<clus scale="   22.762">  1  5  2 -1</clus>
</clustering>
</event>
<event>
 9    1  0.1321469E-005  0.1039014E+03  0.7546771E-02  0.1272837E+00
         21   -1    0    0  501  502  0.00000000000E+00  0.00000000000E+00  0.23787021458E+03  0.23787021458E+03  0.00000000000E+00 0. -1.
          1   -1    0    0  502    0 -0.00000000000E+00 -0.00000000000E+00 -0.17080366481E+03  0.17080366481E+03  0.00000000000E+00 0. -1.
         23    2    1    2    0    0  0.49790821250E+02  0.20454742328E+02 -0.12860132104E+03  0.16638444038E+03  0.90818279347E+02 0.  0.
         23    2    1    2    0    0 -0.95167289467E+00 -0.17219948541E+02  0.12070556721E+03  0.15276249745E+03  0.92027791247E+02 0.  0.
        -11    1    4    4    0    0  0.39480289030E+02 -0.21908691406E+02  0.93422642513E+02  0.10376162159E+03  0.00000000000E+00 0. -1.
         11    1    4    4    0    0 -0.40431961924E+02  0.46887428658E+01  0.27282924700E+02  0.49000875858E+02  0.00000000000E+00 0.  1.
        -11    1    3    3    0    0 -0.16665473142E+02 -0.21331962020E+02 -0.33035960070E+02  0.42710247674E+02  0.00000000000E+00 0.  1.
         11    1    3    3    0    0  0.66456294392E+02  0.41786704347E+02 -0.95565360973E+02  0.12367419271E+03  0.00000000000E+00 0. -1.
          1    1    1    2  501    0 -0.48839148355E+02 -0.32347937869E+01  0.74962303601E+02  0.89526941554E+02  0.00000000000E+00 0. -1.
<scales pt_clust_5="13000.00000" pt_clust_6="13000.00000" pt_clust_7="13000.00000" pt_clust_8="13000.00000" pt_clust_9="48.94616"></scales>
<clustering>
<clus scale="   48.946">  1  9  2 -1</clus>
<clus scale="   90.818">  7  8 -1 -1</clus>
<clus scale="   92.028">  5  6 -1 -1</clus>
<clus scale="  102.832">  2  7  1 -1</clus>
<clus scale="   48.946">  1  5  2 -1</clus>
</clustering>
</event>
<event>
 9    1  0.1321469E-005  0.2275954E+03  0.7546771E-02  0.1163533E+00
          1   -1    0    0  502    0 -0.00000000000E+00  0.00000000000E+00  0.56817547971E+03  0.56817547971E+03  0.00000000000E+00 0. -1.
         21   -1    0    0  501  502  0.00000000000E+00 -0.00000000000E+00 -0.64724276037E+03  0.64724276037E+03  0.00000000000E+00 0. -1.
         23    2    1    2    0    0 -0.10194943392E+02  0.35414870312E+02  0.15401846927E+03  0.18268916209E+03  0.91079586941E+02 0.  0.
         23    2    1    2    0    0  0.19613424756E+03 -0.72357870300E+02 -0.58770365215E+03  0.63061955727E+03  0.92634436315E+02 0.  0.
        -11    1    4    4    0    0  0.11194452943E+03 -0.35421632552E+02 -0.44985612121E+03  0.46492666036E+03  0.00000000000E+00 0.  1.
         11    1    4    4    0    0  0.84189718136E+02 -0.36936237748E+02 -0.13784753094E+03  0.16569289691E+03  0.00000000000E+00 0. -1.
        -13    1    3    3    0    0  0.23996357701E+02  0.37033219720E+02  0.28368101709E+02  0.52459829777E+02  0.00000000000E+00 0.  1.
         13    1    3    3    0    0 -0.34191301092E+02 -0.16183494073E+01  0.12565036756E+03  0.13022933231E+03  0.00000000000E+00 0. -1.
          1    1    1    2  501    0 -0.18593930417E+03  0.36942999988E+02  0.35461790222E+03  0.40210952072E+03  0.00000000000E+00 0. -1.
<scales pt_clust_5="13000.00000" pt_clust_6="13000.00000" pt_clust_7="13000.00000" pt_clust_8="13000.00000" pt_clust_9="207.89077"></scales>
<clustering>
<clus scale="   91.080">  7  8 -1 -1</clus>
<clus scale="   92.634">  5  6 -1 -1</clus>
<clus scale="   98.253">  1  7  2 -1</clus>
<clus scale="  207.891">  2  9  1 -1</clus>
<clus scale="  207.891">  2  5  1 -1</clus>
</clustering>
</event>
<event>
 9    1  0.1321469E-005  0.9908287E+02  0.7546771E-02  0.1284417E+00
          2   -1    0    0  502    0 -0.00000000000E+00  0.00000000000E+00  0.50010912816E+03  0.50010912816E+03  0.00000000000E+00 0. -1.
         21   -1    0    0  501  502  0.00000000000E+00 -0.00000000000E+00 -0.31859276105E+02  0.31859276105E+02  0.00000000000E+00 0.  1.
         23    2    1    2    0    0  0.25120058509E+02 -0.35291146117E+02  0.29197456979E+03  0.30993124310E+03  0.94507902916E+02 0.  0.
         23    2    1    2    0    0 -0.17703260051E+02 -0.66183064481E+01  0.12605511544E+03  0.15620801664E+03  0.90298643041E+02 0.  0.
        -11    1    3    3    0    0  0.21040865616E+02 -0.60718219684E+02  0.26482903122E+03  0.27251391892E+03  0.00000000000E+00 0.  1.
         11    1    3    3    0    0  0.40791928935E+01  0.25427073567E+02  0.27145538570E+02  0.37417324185E+02  0.00000000000E+00 0. -1.
        -13    1    4    4    0    0 -0.10173632221E+02  0.26516214885E+02  0.11788821504E+03  0.12126105594E+03  0.00000000000E+00 0. -1.
         13    1    4    4    0    0 -0.75296278293E+01 -0.33134521334E+02  0.81669004069E+01  0.34946960691E+02  0.00000000000E+00 0.  1.
          2    1    1    2  501    0 -0.74167984586E+01  0.41909452565E+02  0.50220166824E+02  0.65829144530E+02  0.00000000000E+00 0. -1.
<scales pt_clust_5="13000.00000" pt_clust_6="13000.00000" pt_clust_7="13000.00000" pt_clust_8="13000.00000" pt_clust_9="42.56068"></scales>
<clustering>
<clus scale="   42.561">  2  9  1 -1</clus>
<clus scale="   90.299">  7  8 -1 -1</clus>
<clus scale="   94.508">  5  6 -1 -1</clus>
<clus scale="   95.076">  2  7  1 -1</clus>
<clus scale="   42.561">  2  5  1 -1</clus>
</clustering>
</event>
<event>
 9    1  0.1321469E-005  0.2041458E+03  0.7546771E-02  0.1146392E+00
          1   -1    0    0  502    0 -0.00000000000E+00  0.00000000000E+00  0.10014202665E+04  0.10014202665E+04  0.00000000000E+00 0. -1.
         21   -1    0    0  501  502  0.00000000000E+00 -0.00000000000E+00 -0.22137002799E+03  0.22137002799E+03  0.00000000000E+00 0. -1.
         23    2    1    2    0    0  0.84109371305E+02  0.16493370913E+03  0.69036684099E+03  0.72064920309E+03  0.91931409375E+02 0.  0.
         23    2    1    2    0    0 -0.21675039136E+02 -0.18219797447E+03  0.25358171082E+03  0.32590614087E+03  0.90803190317E+02 0.  0.
        -11    1    3    3    0    0  0.10229644300E+03  0.14792124338E+03  0.56872179843E+03  0.59648113172E+03  0.00000000000E+00 0. -1.
         11    1    3    3    0    0 -0.18187071696E+02  0.17012465754E+02  0.12164504256E+03  0.12416807137E+03  0.00000000000E+00 0.  1.
        -13    1    4    4    0    0  0.20661505778E+02 -0.87217061531E+02  0.17118295886E+03  0.19322867035E+03  0.00000000000E+00 0. -1.
         13    1    4    4    0    0 -0.42336544914E+02 -0.94980912941E+02  0.82398751965E+02  0.13267747052E+03  0.00000000000E+00 0.  1.
          1    1    1    2  501    0 -0.62434332169E+02  0.17264265343E+02 -0.16389831329E+03  0.17623495053E+03  0.00000000000E+00 0. -1.
<scales pt_clust_5="13000.00000" pt_clust_6="13000.00000" pt_clust_7="13000.00000" pt_clust_8="13000.00000" pt_clust_9="64.77732"></scales>
<clustering>
<clus scale="   64.777">  2  9  1 -1</clus>
<clus scale="   90.803">  7  8 -1 -1</clus>
<clus scale="   91.931">  5  6 -1 -1</clus>
<clus scale="  203.640">  2  7  1 -1</clus>
<clus scale="   64.777">  2  5  1 -1</clus>
</clustering>
</event>
<event>
 9    1  0.1321469E-005  0.1558065E+03  0.7546771E-02  0.1193553E+00
          4   -1    0    0  502    0 -0.00000000000E+00  0.00000000000E+00  0.34470248748E+03  0.34470248748E+03  0.00000000000E+00 0. -1.
         21   -1    0    0  501  502  0.00000000000E+00 -0.00000000000E+00 -0.11072131491E+03  0.11072131491E+03  0.00000000000E+00 0.  1.
         23    2    1    2    0    0 -0.12126877596E+03 -0.96889274614E+02  0.15676212034E+03  0.23870441125E+03  0.91168997045E+02 0.  0.
         23    2    1    2    0    0  0.58092940863E+02  0.80607955598E+02  0.67823386284E+02  0.15080622077E+03  0.90939937393E+02 0.  0.
        -11    1    4    4    0    0  0.47805612868E+02  0.56117665957E+02 -0.44021348016E+01  0.73850848641E+02  0.00000000000E+00 0.  1.
         11    1    4    4    0    0  0.10287327995E+02  0.24490289641E+02  0.72225521085E+02  0.76955372132E+02  0.00000000000E+00 0. -1.
        -11    1    3    3    0    0 -0.92831358916E+02 -0.84477338943E+02  0.16431604798E+03  0.20677003076E+03  0.00000000000E+00 0.  1.
         11    1    3    3    0    0 -0.28437417040E+02 -0.12411935671E+02 -0.75539276461E+01  0.31934380500E+02  0.00000000000E+00 0. -1.
          4    1    1    2  501    0  0.63175835094E+02  0.16281319017E+02  0.93956659453E+01  0.65913170363E+02  0.00000000000E+00 0. -1.
<scales pt_clust_5="13000.00000" pt_clust_6="13000.00000" pt_clust_7="13000.00000" pt_clust_8="13000.00000" pt_clust_9="65.24008"></scales>
<clustering>
<clus scale="   65.240">  2  9  1 -1</clus>
<clus scale="   90.940">  5  6 -1 -1</clus>
<clus scale="   91.169">  7  8 -1 -1</clus>
<clus scale="  155.673">  2  5  1 -1</clus>
<clus scale="   65.240">  2  5  1 -1</clus>
</clustering>
</event>
<event>
 9    1  0.1321469E-005  0.9561284E+02  0.7546771E-02  0.1291862E+00
          1   -1    0    0  502    0 -0.00000000000E+00  0.00000000000E+00  0.31071032622E+03  0.31071032622E+03  0.00000000000E+00 0. -1.
         21   -1    0    0  501  502  0.00000000000E+00 -0.00000000000E+00 -0.20426526093E+03  0.20426526093E+03  0.00000000000E+00 0. -1.
         23    2    1    2    0    0 -0.17966132879E+02 -0.11030771239E+02  0.23500916718E+03  0.25257674793E+03  0.90117951002E+02 0.  0.
         23    2    1    2    0    0  0.81158210052E+01 -0.75844012247E+02 -0.12644034948E+03  0.17494160983E+03  0.93804179692E+02 0.  0.
        -11    1    3    3    0    0 -0.38441894684E+02 -0.40115168043E+02  0.12097070239E+03  0.13311993394E+03  0.00000000000E+00 0. -1.
         11    1    3    3    0    0  0.20475761805E+02  0.29084396804E+02  0.11403846479E+03  0.11945681400E+03  0.00000000000E+00 0.  1.
        -13    1    4    4    0    0  0.36166036429E+02  0.37701465562E+01 -0.41834354747E+02  0.55428417198E+02  0.00000000000E+00 0.  1.
         13    1    4    4    0    0 -0.28050215424E+02 -0.79614158803E+02 -0.84605994733E+02  0.11951319263E+03  0.00000000000E+00 0. -1.
          1    1    1    2  501    0  0.98503118733E+01  0.86874783486E+02 -0.21237524134E+01  0.87457229398E+02  0.00000000000E+00 0. -1.
<scales pt_clust_5="13000.00000" pt_clust_6="13000.00000" pt_clust_7="13000.00000" pt_clust_8="13000.00000" pt_clust_9="87.43144"></scales>
<clustering>
<clus scale="   87.431">  2  9  1 -1</clus>
<clus scale="   90.118">  5  6 -1 -1</clus>
<clus scale="   91.999">  1  5  2 -1</clus>
<clus scale="   93.804">  7  8 -1 -1</clus>
<clus scale="   87.431">  2  5  1 -1</clus>
</clustering>
</event>
<event>
 9    1  0.1321469E-005  0.9503257E+02  0.7546771E-02  0.1291324E+00
         -2   -1    0    0    0  501 -0.00000000000E+00  0.00000000000E+00  0.10435161347E+03  0.10435161347E+03  0.00000000000E+00 0.  1.
         21   -1    0    0  501  502  0.00000000000E+00 -0.00000000000E+00 -0.33632380695E+03  0.33632380695E+03  0.00000000000E+00 0.  1.
         23    2    1    2    0    0  0.25066495764E+01  0.83394578984E+01  0.12737380585E+02  0.93072427210E+02  0.91784562931E+02 0.  0.
         23    2    1    2    0    0 -0.16671721249E+02 -0.37733655945E+02 -0.27271811900E+00  0.10099795540E+03  0.92188597661E+02 0.  0.
        -13    1    4    4    0    0 -0.51916023876E+02 -0.40053409293E+02  0.20304895184E+01  0.65602378149E+02  0.00000000000E+00 0.  1.
         13    1    4    4    0    0  0.35244302627E+02  0.23197533488E+01 -0.23032076374E+01  0.35395577248E+02  0.00000000000E+00 0. -1.
        -13    1    3    3    0    0 -0.21221184281E+02  0.35972026591E+02 -0.17937334061E+02  0.45454079163E+02  0.00000000000E+00 0. -1.
         13    1    3    3    0    0  0.23727833857E+02 -0.27632568692E+02  0.30674714646E+02  0.47618348047E+02  0.00000000000E+00 0.  1.
         -2    1    1    2    0  502  0.14165071673E+02  0.29394198046E+02 -0.24443685594E+03  0.24660503782E+03  0.00000000000E+00 0.  1.
<scales pt_clust_5="13000.00000" pt_clust_6="13000.00000" pt_clust_7="13000.00000" pt_clust_8="13000.00000" pt_clust_9="32.62925"></scales>
<clustering>
<clus scale="   32.629">  2  9  1 -1</clus>
<clus scale="   91.785">  7  8 -1 -1</clus>
<clus scale="   92.189">  5  6 -1 -1</clus>
<clus scale="   94.641">  1  7  2 -1</clus>
<clus scale="   32.629">  2  5  1 -1</clus>
</clustering>
</event>
<event>
 9    1  0.1321469E-005  0.9633616E+02  0.7546771E-02  0.1291882E+00
         -1   -1    0    0    0  501 -0.00000000000E+00  0.00000000000E+00  0.19911475085E+03  0.19911475085E+03  0.00000000000E+00 0.  1.
         21   -1    0    0  501  502  0.00000000000E+00 -0.00000000000E+00 -0.74249276274E+02  0.74249276274E+02  0.00000000000E+00 0. -1.
         23    2    1    2    0    0  0.11522233589E+02 -0.21094182409E+02  0.11334468045E+03  0.14386133559E+03  0.85272157778E+02 0.  0.
         23    2    1    2    0    0 -0.14471267645E+01  0.43716276523E+02  0.18971205683E+02  0.10364199642E+03  0.92024723677E+02 0.  0.
        -11    1    4    4    0    0 -0.22385388448E+02  0.16677813374E+01 -0.28886798756E+02  0.36583250989E+02  0.00000000000E+00 0. -1.
         11    1    4    4    0    0  0.20938261684E+02  0.42048495185E+02  0.47858004439E+02  0.67058745430E+02  0.00000000000E+00 0.  1.
        -13    1    3    3    0    0  0.31493747082E+02 -0.13520515406E+02  0.11724240786E+03  0.12214926378E+03  0.00000000000E+00 0.  1.
         13    1    3    3    0    0 -0.19971513493E+02 -0.75736670032E+01 -0.38977274083E+01  0.21712071804E+02  0.00000000000E+00 0. -1.
         -1    1    1    2    0  502 -0.10075106824E+02 -0.22622094114E+02 -0.74504115568E+01  0.25860695118E+02  0.00000000000E+00 0.  1.
<scales pt_clust_5="13000.00000" pt_clust_6="13000.00000" pt_clust_7="13000.00000" pt_clust_8="13000.00000" pt_clust_9="24.76423"></scales>
<clustering>
<clus scale="   24.764">  2  9  1 -1</clus>
<clus scale="   85.272">  7  8 -1 -1</clus>
<clus scale="   89.908">  1  7  2 -1</clus>
<clus scale="   92.025">  5  6 -1 -1</clus>
<clus scale="   24.764">  2  5  1 -1</clus>
</clustering>
</event>
<event>
 9    1  0.1321469E-005  0.1864377E+03  0.7546771E-02  0.1161990E+00
          2   -1    0    0  502    0 -0.00000000000E+00  0.00000000000E+00  0.11070431255E+04  0.11070431255E+04  0.00000000000E+00 0. -1.
         21   -1    0    0  501  502  0.00000000000E+00 -0.00000000000E+00 -0.53822237546E+02  0.53822237546E+02  0.00000000000E+00 0.  1.
         23    2    1    2    0    0  0.22138954407E+01  0.17043773867E+03  0.72630753220E+03  0.75157603437E+03  0.91049327387E+02 0.  0.
         23    2    1    2    0    0 -0.48650288266E+01 -0.14980394714E+03  0.34188166809E+03  0.38366059023E+03  0.88586017168E+02 0.  0.
        -11    1    4    4    0    0 -0.22222544602E+02 -0.13048927973E+03  0.32908926740E+03  0.35471261541E+03  0.00000000000E+00 0.  1.
         11    1    4    4    0    0  0.17357515776E+02 -0.19314667408E+02  0.12792400693E+02  0.28947974825E+02  0.00000000000E+00 0. -1.
        -13    1    3    3    0    0 -0.40283862804E+02  0.10417122943E+03  0.48737468859E+03  0.50000852165E+03  0.00000000000E+00 0. -1.
         13    1    3    3    0    0  0.42497758245E+02  0.66266509234E+02  0.23893284360E+03  0.25156751272E+03  0.00000000000E+00 0.  1.
          2    1    1    2  501    0  0.26511333860E+01 -0.20633791528E+02 -0.14968312322E+02  0.25628738456E+02  0.00000000000E+00 0. -1.
<scales pt_clust_5="13000.00000" pt_clust_6="13000.00000" pt_clust_7="13000.00000" pt_clust_8="13000.00000" pt_clust_9="20.80341"></scales>
<clustering>
<clus scale="   20.803">  2  9  1 -1</clus>
<clus scale="   88.586">  5  6 -1 -1</clus>
<clus scale="   91.049">  7  8 -1 -1</clus>
<clus scale="  185.247">  2  5  1 -1</clus>
<clus scale="   20.803">  2  5  1 -1</clus>
</clustering>
</event>
<event>
 9    1  0.1321469E-005  0.1450123E+03  0.7546771E-02  0.1217220E+00
         -2   -1    0    0    0  501 -0.00000000000E+00  0.00000000000E+00  0.33526128231E+02  0.33526128231E+02  0.00000000000E+00 0.  1.
         21   -1    0    0  501  502  0.00000000000E+00 -0.00000000000E+00 -0.90670951016E+03  0.90670951016E+03  0.00000000000E+00 0.  1.
         23    2    1    2    0    0 -0.72386568384E+00  0.37515857885E+02 -0.31450016649E+03  0.34053362140E+03  0.12507929088E+03 0.  0.
         23    2    1    2    0    0 -0.57889639764E+01 -0.10472342351E+03 -0.27061089746E+03  0.30382208491E+03  0.89872653880E+02 0.  0.
        -11    1    3    3    0    0 -0.56030470964E+02 -0.19996682937E+01 -0.19664701661E+03  0.20448340151E+03  0.00000000000E+00 0.  1.
         11    1    3    3    0    0  0.55306605280E+02  0.39515526179E+02 -0.11785314988E+03  0.13605021989E+03  0.00000000000E+00 0. -1.
        -13    1    4    4    0    0 -0.31387793194E+02 -0.10332051161E+03 -0.18246035922E+03  0.21201911321E+03  0.00000000000E+00 0.  1.
         13    1    4    4    0    0  0.25598829217E+02 -0.14029118982E+01 -0.88150538247E+02  0.91802971696E+02  0.00000000000E+00 0. -1.
         -2    1    1    2    0  502  0.65128296603E+01  0.67207565620E+02 -0.28807231798E+03  0.29587993209E+03  0.00000000000E+00 0.  1.
<scales pt_clust_5="13000.00000" pt_clust_6="13000.00000" pt_clust_7="13000.00000" pt_clust_8="13000.00000" pt_clust_9="67.52240"></scales>
<clustering>
<clus scale="   67.522">  2  9  1 -1</clus>
<clus scale="   89.873">  7  8 -1 -1</clus>
<clus scale="  116.021">  2  7  1 -1</clus>
<clus scale="  125.079">  5  6 -1 -1</clus>
<clus scale="   67.522">  2  5  1 -1</clus>
</clustering>
</event>
<event>
 9    1  0.1321469E-005  0.1085110E+03  0.7546771E-02  0.1266107E+00
         -2   -1    0    0    0  501 -0.00000000000E+00  0.00000000000E+00  0.56919934045E+02  0.56919934045E+02  0.00000000000E+00 0.  1.
         21   -1    0    0  501  502  0.00000000000E+00 -0.00000000000E+00 -0.48692622517E+03  0.48692622517E+03  0.00000000000E+00 0. -1.
         23    2    1    2    0    0 -0.45579199414E+02  0.19426373751E+02 -0.16194381347E+02  0.11073290065E+03  0.97696826373E+02 0.  0.
         23    2    1    2    0    0  0.40231554031E+02  0.20033344133E+01 -0.27515074270E+03  0.29270403893E+03  0.91351693511E+02 0.  0.
        -11    1    3    3    0    0 -0.55940166394E+02 -0.11082843323E+02  0.21678109272E+02  0.61008786695E+02  0.00000000000E+00 0.  1.
         11    1    3    3    0    0  0.10360966980E+02  0.30509217074E+02 -0.37872490619E+02  0.49724113958E+02  0.00000000000E+00 0. -1.
        -11    1    4    4    0    0  0.24954568190E+02  0.46367182613E+02 -0.15603650630E+03  0.16468162434E+03  0.00000000000E+00 0. -1.
         11    1    4    4    0    0  0.15276985840E+02 -0.44363848200E+02 -0.11911423640E+03  0.12802241459E+03  0.00000000000E+00 0.  1.
         -2    1    1    2    0  502  0.53476453835E+01 -0.21429708165E+02 -0.13866116708E+03  0.14040921963E+03  0.00000000000E+00 0.  1.
<scales pt_clust_5="13000.00000" pt_clust_6="13000.00000" pt_clust_7="13000.00000" pt_clust_8="13000.00000" pt_clust_9="22.08687"></scales>
<clustering>
<clus scale="   22.087">  2  9  1 -1</clus>
<clus scale="   91.352">  7  8 -1 -1</clus>
<clus scale="   97.697">  5  6 -1 -1</clus>
<clus scale="  102.835">  2  7  1 -1</clus>
<clus scale="   22.087">  2  5  1 -1</clus>
</clustering>
</event>
<event>
 9    1  0.1321469E-005  0.1932382E+03  0.7546771E-02  0.1188070E+00
         21   -1    0    0  501  502  0.00000000000E+00  0.00000000000E+00  0.74007958039E+02  0.74007958039E+02  0.00000000000E+00 0. -1.
          2   -1    0    0  502    0 -0.00000000000E+00 -0.00000000000E+00 -0.89110830556E+03  0.89110830556E+03  0.00000000000E+00 0. -1.
         23    2    1    2    0    0  0.17006117622E+02  0.94649689312E+01 -0.30335235111E+02  0.96960975857E+02  0.90013391650E+02 0.  0.
         23    2    1    2    0    0 -0.82696745707E+02 -0.16185318195E+03 -0.42653645872E+03  0.47154198864E+03  0.85926085529E+02 0.  0.
        -11    1    4    4    0    0 -0.65223248500E+01 -0.96961224123E+02 -0.16467021477E+03  0.19120747720E+03  0.00000000000E+00 0.  1.
         11    1    4    4    0    0 -0.76174420857E+02 -0.64891957830E+02 -0.26186624394E+03  0.28033451143E+03  0.00000000000E+00 0. -1.
        -13    1    3    3    0    0 -0.33606771192E+02 -0.12910200033E+02 -0.59556818716E+01  0.36490525913E+02  0.00000000000E+00 0. -1.
         13    1    3    3    0    0  0.50612888814E+02  0.22375168965E+02 -0.24379553240E+02  0.60470449944E+02  0.00000000000E+00 0.  1.
          2    1    1    2  501    0  0.65690628085E+02  0.15238821302E+03 -0.36022865370E+03  0.39661329911E+03  0.00000000000E+00 0. -1.
<scales pt_clust_5="13000.00000" pt_clust_6="13000.00000" pt_clust_7="13000.00000" pt_clust_8="13000.00000" pt_clust_9="173.08295"></scales>
<clustering>
<clus scale="   85.926">  5  6 -1 -1</clus>
<clus scale="   90.013">  7  8 -1 -1</clus>
<clus scale="   92.094">  2  7  1 -1</clus>
<clus scale="  173.083">  1  9  2 -1</clus>
<clus scale="  173.083">  1  5  2 -1</clus>
</clustering>
</event>
<event>
 9    1  0.1321469E-005  0.9365701E+02  0.7546771E-02  0.1294839E+00
         21   -1    0    0  501  502  0.00000000000E+00  0.00000000000E+00  0.31388172641E+02  0.31388172641E+02  0.00000000000E+00 0.  1.
          1   -1    0    0  502    0 -0.00000000000E+00 -0.00000000000E+00 -0.52451094300E+03  0.52451094300E+03  0.00000000000E+00 0. -1.
         23    2    1    2    0    0  0.21859168768E+02 -0.16508341237E+02 -0.34198105605E+03  0.35490092552E+03  0.90847540716E+02 0.  0.
         23    2    1    2    0    0 -0.20170127705E+02 -0.93116549222E+01 -0.14857026935E+03  0.17499554813E+03  0.89759545235E+02 0.  0.
        -11    1    4    4    0    0 -0.26334088119E+02  0.24433699472E+02 -0.13218512011E+03  0.13697954535E+03  0.00000000000E+00 0.  1.
         11    1    4    4    0    0  0.61639604139E+01 -0.33745354394E+02 -0.16385149238E+02  0.38016002772E+02  0.00000000000E+00 0. -1.
        -13    1    3    3    0    0  0.57549494000E+02 -0.12946045646E+02 -0.20816302285E+03  0.21635939646E+03  0.00000000000E+00 0. -1.
         13    1    3    3    0    0 -0.35690325232E+02 -0.35622955912E+01 -0.13381803320E+03  0.13854152906E+03  0.00000000000E+00 0.  1.
          1    1    1    2  501    0 -0.16890410629E+01  0.25819996159E+02 -0.25714449654E+01  0.26002641992E+02  0.00000000000E+00 0. -1.
<scales pt_clust_5="13000.00000" pt_clust_6="13000.00000" pt_clust_7="13000.00000" pt_clust_8="13000.00000" pt_clust_9="25.87518"></scales>
<clustering>
<clus scale="   25.875">  1  9  2 -1</clus>
<clus scale="   89.760">  5  6 -1 -1</clus>
<clus scale="   90.848">  7  8 -1 -1</clus>
<clus scale="   92.602">  1  5  2 -1</clus>
<clus scale="   25.875">  1  5  2 -1</clus>
</clustering>
</event>
<event>
 9    1  0.1636215E-005  0.1325022E+03  0.7546771E-02  0.1224859E+00
         21   -1    0    0  501  502  0.00000000000E+00  0.00000000000E+00  0.14244050577E+03  0.14244050577E+03  0.00000000000E+00 0. -1.
          1   -1    0    0  502    0 -0.00000000000E+00 -0.00000000000E+00 -0.79896727496E+03  0.79896727496E+03  0.00000000000E+00 0. -1.
         23    2    1    2    0    0 -0.47528124154E+02 -0.75121611046E+02 -0.45486997338E+03  0.47316205311E+03  0.95254694330E+02 0.  0.
         23    2    1    2    0    0  0.67856480198E+02  0.70623809163E+02 -0.32065123641E+03  0.34744362012E+03  0.91146198058E+02 0.  0.
        -11    1    4    4    0    0  0.11407877583E+02  0.54609060562E+02 -0.24728268563E+03  0.25349756563E+03  0.00000000000E+00 0.  1.
         11    1    4    4    0    0  0.56448602616E+02  0.16014748601E+02 -0.73368550782E+02  0.93946054488E+02  0.00000000000E+00 0. -1.
        -13    1    3    3    0    0  0.43883589745E+00 -0.81441260012E+02 -0.30429025156E+03  0.31500068032E+03  0.00000000000E+00 0. -1.
         13    1    3    3    0    0 -0.47966960052E+02  0.63196489659E+01 -0.15057972182E+03  0.15816137279E+03  0.00000000000E+00 0.  1.
          1    1    1    2  501    0 -0.20328356044E+02  0.44978018828E+01  0.11899444060E+03  0.12080210750E+03  0.00000000000E+00 0. -1.
<scales pt_clust_5="13000.00000" pt_clust_6="13000.00000" pt_clust_7="13000.00000" pt_clust_8="13000.00000" pt_clust_9="20.82000"></scales>
<clustering>
<clus scale="   20.820">  1  9  2 -1</clus>
<clus scale="   91.146">  5  6 -1 -1</clus>
<clus scale="   95.255">  7  8 -1 -1</clus>
<clus scale="  129.580">  1  5  2 -1</clus>
<clus scale="   20.820">  1  5  2 -1</clus>
</clustering>
</event>
<event>
 9    1  0.1321469E-005  0.1239834E+03  0.7546771E-02  0.1238539E+00
         21   -1    0    0  501  502  0.00000000000E+00  0.00000000000E+00  0.95212646676E+02  0.95212646676E+02  0.00000000000E+00 0.  1.
          2   -1    0    0  502    0 -0.00000000000E+00 -0.00000000000E+00 -0.33279070891E+03  0.33279070891E+03  0.00000000000E+00 0. -1.
         23    2    1    2    0    0 -0.47241791957E+02 -0.58762949095E+02 -0.18884635098E+03  0.21973992118E+03  0.83293562718E+02 0.  0.
         23    2    1    2    0    0  0.88218667379E+02  0.80817956154E+02 -0.58634007909E+02  0.16068630613E+03  0.89822418045E+02 0.  0.
        -11    1    3    3    0    0  0.14960338015E+01 -0.36536338813E+02 -0.14779668398E+03  0.15225308525E+03  0.00000000000E+00 0.  1.
         11    1    3    3    0    0 -0.48737825758E+02 -0.22226610282E+02 -0.41049666997E+02  0.67486835938E+02  0.00000000000E+00 0. -1.
        -13    1    4    4    0    0  0.81634563661E+02  0.30857571393E+02 -0.66451258516E+02  0.10969120956E+03  0.00000000000E+00 0. -1.
         13    1    4    4    0    0  0.65841037172E+01  0.49960384761E+02  0.78172506063E+01  0.50995096571E+02  0.00000000000E+00 0.  1.
          2    1    1    2  501    0 -0.40976875422E+02 -0.22055007059E+02  0.99022966536E+01  0.47577128273E+02  0.00000000000E+00 0. -1.
<scales pt_clust_5="13000.00000" pt_clust_6="13000.00000" pt_clust_7="13000.00000" pt_clust_8="13000.00000" pt_clust_9="46.53523"></scales>
<clustering>
<clus scale="   46.535">  1  9  2 -1</clus>
<clus scale="   83.294">  5  6 -1 -1</clus>
<clus scale="   89.822">  7  8 -1 -1</clus>
<clus scale="  119.338">  2  5  1 -1</clus>
<clus scale="   46.535">  1  5  2 -1</clus>
</clustering>
</event>
<event>
 9    1  0.1321469E-005  0.1196919E+03  0.7546771E-02  0.1243904E+00
         21   -1    0    0  501  502  0.00000000000E+00  0.00000000000E+00  0.23140326082E+02  0.23140326082E+02  0.00000000000E+00 0.  1.
          1   -1    0    0  502    0 -0.00000000000E+00 -0.00000000000E+00 -0.76734595645E+03  0.76734595645E+03  0.00000000000E+00 0. -1.
         23    2    1    2    0    0 -0.66358980719E+02  0.53327219253E+02 -0.44606004616E+03  0.46302203233E+03  0.90402052022E+02 0.  0.
         23    2    1    2    0    0  0.44450079578E+02 -0.53820403199E+02 -0.25328133019E+03  0.27753385396E+03  0.89449217427E+02 0.  0.
        -11    1    4    4    0    0 -0.12668614436E+02 -0.53738764141E+02 -0.10498912523E+03  0.11862151989E+03  0.00000000000E+00 0.  1.
         11    1    4    4    0    0  0.57118694014E+02 -0.81639058519E-01 -0.14829220496E+03  0.15891233408E+03  0.00000000000E+00 0. -1.
        -13    1    3    3    0    0  0.55357006860E+01  0.49980739081E+02 -0.14477423779E+03  0.15325892532E+03  0.00000000000E+00 0. -1.
         13    1    3    3    0    0 -0.71894681405E+02  0.33464801720E+01 -0.30128580837E+03  0.30976310701E+03  0.00000000000E+00 0.  1.
          1    1    1    2  501    0  0.21908901141E+02  0.49318394685E+00 -0.44864254017E+02  0.49930396234E+02  0.00000000000E+00 0. -1.
<scales pt_clust_5="13000.00000" pt_clust_6="13000.00000" pt_clust_7="13000.00000" pt_clust_8="13000.00000" pt_clust_9="21.91445"></scales>
<clustering>
<clus scale="   21.914">  1  9  2 -1</clus>
<clus scale="   89.449">  5  6 -1 -1</clus>
<clus scale="   90.402">  7  8 -1 -1</clus>
<clus scale="  118.974">  1  5  2 -1</clus>
<clus scale="   21.914">  1  5  2 -1</clus>
</clustering>
</event>
<event>
 9    1  0.1321469E-005  0.1476249E+03  0.7546771E-02  0.1203663E+00
          1   -1    0    0  502    0 -0.00000000000E+00  0.00000000000E+00  0.68722049516E+03  0.68722049516E+03  0.00000000000E+00 0. -1.
         21   -1    0    0  501  502  0.00000000000E+00 -0.00000000000E+00 -0.62901565258E+02  0.62901565258E+02  0.00000000000E+00 0.  1.
         23    2    1    2    0    0 -0.32075817408E+02 -0.10195711746E+03  0.41330494176E+03  0.43644988775E+03  0.90793269423E+02 0.  0.
         23    2    1    2    0    0  0.20929305006E+02  0.13922744838E+03  0.21761016887E+03  0.27421546341E+03  0.89541144663E+02 0.  0.
        -11    1    4    4    0    0 -0.26968455115E+02  0.10873387321E+02  0.48824018913E+02  0.56827044142E+02  0.00000000000E+00 0.  1.
         11    1    4    4    0    0  0.47897760121E+02  0.12835406106E+03  0.16878614996E+03  0.21738841927E+03  0.00000000000E+00 0. -1.
        -13    1    3    3    0    0 -0.48785580717E+02 -0.43709142674E+02  0.30859095676E+03  0.31546616401E+03  0.00000000000E+00 0. -1.
         13    1    3    3    0    0  0.16709763309E+02 -0.58247974789E+02  0.10471398500E+03  0.12098372374E+03  0.00000000000E+00 0.  1.
          1    1    1    2  501    0  0.11146512402E+02 -0.37270330915E+02 -0.65961807269E+01  0.39456709257E+02  0.00000000000E+00 0. -1.
<scales pt_clust_5="13000.00000" pt_clust_6="13000.00000" pt_clust_7="13000.00000" pt_clust_8="13000.00000" pt_clust_9="38.90144"></scales>
<clustering>
<clus scale="   38.901">  2  9  1 -1</clus>
<clus scale="   89.541">  5  6 -1 -1</clus>
<clus scale="   90.793">  7  8 -1 -1</clus>
<clus scale="  146.858">  2  5  1 -1</clus>
<clus scale="   38.901">  2  5  1 -1</clus>
</clustering>
</event>
<event>
 9    1  0.1321469E-005  0.1096799E+03  0.7546771E-02  0.1261500E+00
         -4   -1    0    0    0  501 -0.00000000000E+00  0.00000000000E+00  0.72376029166E+02  0.72376029166E+02  0.00000000000E+00 0.  1.
         21   -1    0    0  501  502  0.00000000000E+00 -0.00000000000E+00 -0.39268165500E+03  0.39268165500E+03  0.00000000000E+00 0.  1.
         23    2    1    2    0    0 -0.62791991785E+02 -0.47381474509E+02 -0.80517880638E+02  0.14466419479E+03  0.90866725445E+02 0.  0.
         23    2    1    2    0    0  0.48131162394E+02 -0.38149786262E+02 -0.19161714041E+03  0.22114156923E+03  0.91730312082E+02 0.  0.
        -11    1    4    4    0    0  0.44584285591E+02 -0.62357426311E+02 -0.98218805554E+02  0.12459189742E+03  0.00000000000E+00 0.  1.
         11    1    4    4    0    0  0.35468768027E+01  0.24207640049E+02 -0.93398334861E+02  0.96549671810E+02  0.00000000000E+00 0. -1.
        -13    1    3    3    0    0  0.15213385637E+02 -0.27264976059E+02 -0.65542225010E+00  0.31229082606E+02  0.00000000000E+00 0.  1.
         13    1    3    3    0    0 -0.78005377422E+02 -0.20116498449E+02 -0.79862458388E+02  0.11343511218E+03  0.00000000000E+00 0. -1.
         -4    1    1    2    0  502  0.14660829391E+02  0.85531260770E+02 -0.48170604778E+02  0.99251920143E+02  0.00000000000E+00 0.  1.
<scales pt_clust_5="13000.00000" pt_clust_6="13000.00000" pt_clust_7="13000.00000" pt_clust_8="13000.00000" pt_clust_9="86.77871"></scales>
<clustering>
<clus scale="   86.779">  2  9  1 -1</clus>
<clus scale="   90.867">  7  8 -1 -1</clus>
<clus scale="   91.730">  5  6 -1 -1</clus>
<clus scale="  108.959">  1  7  2 -1</clus>
<clus scale="   86.779">  2  5  1 -1</clus>
</clustering>
</event>
<event>
 9    1  0.1321469E-005  0.1089371E+03  0.7546771E-02  0.1267215E+00
         21   -1    0    0  501  502  0.00000000000E+00  0.00000000000E+00  0.82439059067E+02  0.82439059067E+02  0.00000000000E+00 0.  1.
          2   -1    0    0  502    0 -0.00000000000E+00 -0.00000000000E+00 -0.30972457229E+03  0.30972457229E+03  0.00000000000E+00 0. -1.
         23    2    1    2    0    0 -0.37268899789E+02 -0.34892685982E+02 -0.15187439826E+03  0.18636173576E+03  0.95175591836E+02 0.  0.
         23    2    1    2    0    0  0.19100672503E+02  0.55365564775E+02 -0.11727593620E+03  0.15578303409E+03  0.84169632564E+02 0.  0.
        -11    1    4    4    0    0  0.21061417692E+02 -0.57658413842E+01 -0.82677424284E+02  0.85512482880E+02  0.00000000000E+00 0. -1.
         11    1    4    4    0    0 -0.19607451892E+01  0.61131406159E+02 -0.34598511917E+02  0.70270551211E+02  0.00000000000E+00 0.  1.
        -11    1    3    3    0    0 -0.59141432181E+02 -0.16078222360E+02 -0.46010174860E+02  0.76636508437E+02  0.00000000000E+00 0.  1.
         11    1    3    3    0    0  0.21872532392E+02 -0.18814463623E+02 -0.10586422340E+03  0.10972522732E+03  0.00000000000E+00 0. -1.
          2    1    1    2  501    0  0.18168227286E+02 -0.20472878793E+02  0.41864821240E+02  0.50018861505E+02  0.00000000000E+00 0. -1.
<scales pt_clust_5="13000.00000" pt_clust_6="13000.00000" pt_clust_7="13000.00000" pt_clust_8="13000.00000" pt_clust_9="27.37194"></scales>
<clustering>
<clus scale="   27.372">  1  9  2 -1</clus>
<clus scale="   84.170">  5  6 -1 -1</clus>
<clus scale="   95.176">  7  8 -1 -1</clus>
<clus scale="   99.466">  1  5  2 -1</clus>
<clus scale="   27.372">  1  5  2 -1</clus>
</clustering>
</event>
<event>
 9    1  0.1321469E-005  0.1044505E+03  0.7546771E-02  0.1271438E+00
          1   -1    0    0  502    0 -0.00000000000E+00  0.00000000000E+00  0.12441574424E+03  0.12441574424E+03  0.00000000000E+00 0. -1.
         21   -1    0    0  501  502  0.00000000000E+00 -0.00000000000E+00 -0.11298159324E+03  0.11298159324E+03  0.00000000000E+00 0.  1.
         23    2    1    2    0    0  0.16854382747E+02 -0.52167057747E+02  0.30628304826E+02  0.11102310942E+03  0.91556352246E+02 0.  0.
         23    2    1    2    0    0  0.43576958147E+01  0.43423513014E+02 -0.14135382863E+02  0.10287969647E+03  0.92086002743E+02 0.  0.
        -13    1    3    3    0    0 -0.37467301168E+01 -0.23035096469E+02  0.60273766118E+02  0.64634205634E+02  0.00000000000E+00 0. -1.
         13    1    3    3    0    0  0.20601112864E+02 -0.29131961278E+02 -0.29645461291E+02  0.46388903784E+02  0.00000000000E+00 0.  1.
        -13    1    4    4    0    0  0.36317543890E+02 -0.11557912362E+02 -0.22149115262E+01  0.38176631143E+02  0.00000000000E+00 0.  1.
         13    1    4    4    0    0 -0.31959848076E+02  0.54981425376E+02 -0.11920471337E+02  0.64703065323E+02  0.00000000000E+00 0. -1.
          1    1    1    2  501    0 -0.21212078562E+02  0.87435447333E+01 -0.50587709586E+01  0.23494531598E+02  0.00000000000E+00 0. -1.
<scales pt_clust_5="13000.00000" pt_clust_6="13000.00000" pt_clust_7="13000.00000" pt_clust_8="13000.00000" pt_clust_9="22.94345"></scales>
<clustering>
<clus scale="   22.943">  2  9  1 -1</clus>
<clus scale="   91.556">  5  6 -1 -1</clus>
<clus scale="   92.086">  7  8 -1 -1</clus>
<clus scale="  103.984">  1  5  2 -1</clus>
<clus scale="   22.943">  2  5  1 -1</clus>
</clustering>
</event>
<event>
 9    1  0.1321469E-005  0.1244476E+03  0.7546771E-02  0.1236427E+00
          1   -1    0    0  502    0 -0.00000000000E+00  0.00000000000E+00  0.71475791864E+03  0.71475791864E+03  0.00000000000E+00 0. -1.
         21   -1    0    0  501  502  0.00000000000E+00 -0.00000000000E+00 -0.78423717948E+02  0.78423717948E+02  0.00000000000E+00 0. -1.
         23    2    1    2    0    0  0.13739754693E+02 -0.90649849909E+02  0.45780153657E+03  0.47547661479E+03  0.89942137932E+02 0.  0.
         23    2    1    2    0    0 -0.19975219485E+02  0.70009783099E+02  0.23211205821E+03  0.25994998003E+03  0.91638449526E+02 0.  0.
        -11    1    4    4    0    0  0.30713811127E+02  0.24163138955E+02  0.13936295791E+03  0.14473848664E+03  0.00000000000E+00 0. -1.
         11    1    4    4    0    0 -0.50689030612E+02  0.45846644144E+02  0.92749100300E+02  0.11521149339E+03  0.00000000000E+00 0.  1.
        -13    1    3    3    0    0  0.51238974455E+02 -0.43122594262E+02  0.26874360462E+03  0.27696230007E+03  0.00000000000E+00 0.  1.
         13    1    3    3    0    0 -0.37499219762E+02 -0.47527255648E+02  0.18905793195E+03  0.19851431471E+03  0.00000000000E+00 0. -1.
          1    1    1    2  501    0  0.62354647918E+01  0.20640066811E+02 -0.53579394084E+02  0.57755041767E+02  0.00000000000E+00 0. -1.
<scales pt_clust_5="13000.00000" pt_clust_6="13000.00000" pt_clust_7="13000.00000" pt_clust_8="13000.00000" pt_clust_9="21.56139"></scales>
<clustering>
<clus scale="   21.561">  2  9  1 -1</clus>
<clus scale="   89.942">  7  8 -1 -1</clus>
<clus scale="   91.638">  5  6 -1 -1</clus>
<clus scale="  123.204">  1  7  2 -1</clus>
<clus scale="   21.561">  2  5  1 -1</clus>
</clustering>
</event>
<event>
 9    1  0.1321469E-005  0.1245376E+03  0.7546771E-02  0.1238196E+00
         21   -1    0    0  501  502  0.00000000000E+00  0.00000000000E+00  0.25428133429E+03  0.25428133429E+03  0.00000000000E+00 0.  1.
          3   -1    0    0  502    0 -0.00000000000E+00 -0.00000000000E+00 -0.11914247461E+03  0.11914247461E+03  0.00000000000E+00 0. -1.
         23    2    1    2    0    0 -0.68176359559E+02  0.65950477120E+02 -0.16007038324E+02  0.13092699504E+03  0.88815377725E+02 0.  0.
         23    2    1    2    0    0  0.46029581441E+02 -0.63893898708E+02  0.26009400211E+02  0.11539900752E+03  0.80245182894E+02 0.  0.
        -11    1    3    3    0    0 -0.83130106026E+01  0.69452202207E+02 -0.10048093064E+02  0.70665965718E+02  0.00000000000E+00 0.  1.
         11    1    3    3    0    0 -0.59863348956E+02 -0.35017250867E+01 -0.59589452600E+01  0.60261029326E+02  0.00000000000E+00 0. -1.
        -11    1    4    4    0    0  0.23325160845E+02 -0.80659803220E+01 -0.25959152181E+02  0.35818999832E+02  0.00000000000E+00 0. -1.
         11    1    4    4    0    0  0.22704420596E+02 -0.55827918386E+02  0.51968552392E+02  0.79580007688E+02  0.00000000000E+00 0.  1.
          3    1    1    2  501    0  0.22146778118E+02 -0.20565784122E+01  0.12513649779E+03  0.12709780633E+03  0.00000000000E+00 0. -1.
<scales pt_clust_5="13000.00000" pt_clust_6="13000.00000" pt_clust_7="13000.00000" pt_clust_8="13000.00000" pt_clust_9="22.24206"></scales>
<clustering>
<clus scale="   22.242">  1  9  2 -1</clus>
<clus scale="   80.245">  7  8 -1 -1</clus>
<clus scale="   88.815">  5  6 -1 -1</clus>
<clus scale="  118.578">  1  7  2 -1</clus>
<clus scale="   22.242">  1  5  2 -1</clus>
</clustering>
</event>
<event>
 9    1  0.1321469E-005  0.1145209E+03  0.7546771E-02  0.1254030E+00
          2   -1    0    0  502    0 -0.00000000000E+00  0.00000000000E+00  0.41076037594E+03  0.41076037594E+03  0.00000000000E+00 0. -1.
         21   -1    0    0  501  502  0.00000000000E+00 -0.00000000000E+00 -0.50835786454E+02  0.50835786454E+02  0.00000000000E+00 0.  1.
         23    2    1    2    0    0 -0.58556428028E+02 -0.53082809617E+02  0.23276292602E+03  0.26250045606E+03  0.92093809579E+02 0.  0.
         23    2    1    2    0    0  0.26702411330E+02  0.50004496288E+02  0.13033121657E+03  0.16693671910E+03  0.87568109209E+02 0.  0.
        -11    1    3    3    0    0  0.20466326707E+02 -0.32273343318E+02  0.93883849439E+02  0.10136378250E+03  0.00000000000E+00 0. -1.
         11    1    3    3    0    0 -0.79022754735E+02 -0.20809466299E+02  0.13887907658E+03  0.16113667356E+03  0.00000000000E+00 0.  1.
        -13    1    4    4    0    0  0.37427977847E+01 -0.24078538955E+02  0.17421688037E+02  0.29954962653E+02  0.00000000000E+00 0.  1.
         13    1    4    4    0    0  0.22959613545E+02  0.74083035243E+02  0.11290952853E+03  0.13698175644E+03  0.00000000000E+00 0. -1.
          2    1    1    2  501    0  0.31854016698E+02  0.30783133292E+01 -0.31695531087E+01  0.32158987230E+02  0.00000000000E+00 0. -1.
<scales pt_clust_5="13000.00000" pt_clust_6="13000.00000" pt_clust_7="13000.00000" pt_clust_8="13000.00000" pt_clust_9="32.00241"></scales>
<clustering>
<clus scale="   32.002">  2  9  1 -1</clus>
<clus scale="   87.568">  7  8 -1 -1</clus>
<clus scale="   92.094">  5  6 -1 -1</clus>
<clus scale="  110.914">  2  7  1 -1</clus>
<clus scale="   32.002">  2  5  1 -1</clus>
</clustering>
</event>
<event>
 9    1  0.1321469E-005  0.1024770E+03  0.7546771E-02  0.1275202E+00
         21   -1    0    0  501  502  0.00000000000E+00  0.00000000000E+00  0.34358741514E+03  0.34358741514E+03  0.00000000000E+00 0. -1.
          1   -1    0    0  502    0 -0.00000000000E+00 -0.00000000000E+00 -0.22128964483E+03  0.22128964483E+03  0.00000000000E+00 0. -1.
         23    2    1    2    0    0  0.40521483933E+02 -0.27740496659E+02 -0.17119451009E+03  0.19972586710E+03  0.90395441755E+02 0.  0.
         23    2    1    2    0    0 -0.52230013249E+01  0.61181827406E+02  0.56208343363E+02  0.12293646944E+03  0.90462710034E+02 0.  0.
        -11    1    3    3    0    0  0.22505291798E+02  0.21592484440E+02 -0.14368260297E+02  0.34339051344E+02  0.00000000000E+00 0.  1.
         11    1    3    3    0    0  0.18016192134E+02 -0.49332981099E+02 -0.15682624979E+03  0.16538681576E+03  0.00000000000E+00 0. -1.
        -11    1    4    4    0    0 -0.31743058729E+02 -0.83198796608E+01  0.64598564677E+01  0.33445058239E+02  0.00000000000E+00 0.  1.
         11    1    4    4    0    0  0.26520057404E+02  0.69501707067E+02  0.49748486896E+02  0.89491411199E+02  0.00000000000E+00 0. -1.
          1    1    1    2  501    0 -0.35298482608E+02 -0.33441330748E+02  0.23728393703E+03  0.24221472343E+03  0.00000000000E+00 0. -1.
<scales pt_clust_5="13000.00000" pt_clust_6="13000.00000" pt_clust_7="13000.00000" pt_clust_8="13000.00000" pt_clust_9="48.62412"></scales>
<clustering>
<clus scale="   48.624">  1  9  2 -1</clus>
<clus scale="   90.395">  5  6 -1 -1</clus>
<clus scale="   90.463">  7  8 -1 -1</clus>
<clus scale="  102.418">  2  5  1 -1</clus>
<clus scale="   48.624">  1  5  2 -1</clus>
</clustering>
</event>
<event>
 9    1  0.1321469E-005  0.1297082E+03  0.7546771E-02  0.1228568E+00
         21   -1    0    0  501  502  0.00000000000E+00  0.00000000000E+00  0.15159420653E+03  0.15159420653E+03  0.00000000000E+00 0. -1.
          1   -1    0    0  502    0 -0.00000000000E+00 -0.00000000000E+00 -0.27031991589E+03  0.27031991589E+03  0.00000000000E+00 0. -1.
         23    2    1    2    0    0  0.27703006957E+02  0.69512928492E+02 -0.11549312292E+03  0.16595722002E+03  0.92755774013E+02 0.  0.
         23    2    1    2    0    0 -0.10250203443E+03 -0.10153562936E+03 -0.24363563415E+02  0.17189224830E+03  0.90206489295E+02 0.  0.
        -11    1    4    4    0    0 -0.62051199028E+02 -0.55704209755E+02  0.31445686107E+02  0.89118693101E+02  0.00000000000E+00 0.  1.
         11    1    4    4    0    0 -0.40450835398E+02 -0.45831419610E+02 -0.55809249522E+02  0.82773555197E+02  0.00000000000E+00 0. -1.
        -11    1    3    3    0    0  0.65007725552E+01  0.82891082696E+02 -0.11365293643E+03  0.14081967758E+03  0.00000000000E+00 0. -1.
         11    1    3    3    0    0  0.21202234402E+02 -0.13378154204E+02 -0.18401864879E+01  0.25137542439E+02  0.00000000000E+00 0.  1.
          1    1    1    2  501    0  0.74799027469E+02  0.32022700873E+02  0.21130976980E+02  0.84064654104E+02  0.00000000000E+00 0. -1.
<scales pt_clust_5="13000.00000" pt_clust_6="13000.00000" pt_clust_7="13000.00000" pt_clust_8="13000.00000" pt_clust_9="81.36552"></scales>
<clustering>
<clus scale="   81.366">  1  9  2 -1</clus>
<clus scale="   90.206">  5  6 -1 -1</clus>
<clus scale="   92.756">  7  8 -1 -1</clus>
<clus scale="  127.898">  1  5  2 -1</clus>
<clus scale="   81.366">  1  5  2 -1</clus>
</clustering>
</event>
<event>
 9    1  0.1321469E-005  0.1195926E+03  0.7546771E-02  0.1253298E+00
         -1   -1    0    0    0  501 -0.00000000000E+00  0.00000000000E+00  0.28575959378E+03  0.28575959378E+03  0.00000000000E+00 0.  1.
         21   -1    0    0  501  502  0.00000000000E+00 -0.00000000000E+00 -0.80504317166E+02  0.80504317166E+02  0.00000000000E+00 0.  1.
         23    2    1    2    0    0  0.23872302078E+02 -0.11125280125E+02  0.17130173296E+03  0.20763359136E+03  0.11434056970E+03 0.  0.
         23    2    1    2    0    0 -0.52358878243E+02  0.11409062783E+01  0.57109747630E+02  0.12058583870E+03  0.92394087599E+02 0.  0.
        -11    1    3    3    0    0  0.54865095820E+02 -0.32586615493E+02  0.15290449044E+03  0.16568599653E+03  0.00000000000E+00 0.  1.
         11    1    3    3    0    0 -0.30992793742E+02  0.21461335367E+02  0.18397242523E+02  0.41947594831E+02  0.00000000000E+00 0. -1.
        -13    1    4    4    0    0 -0.77370600552E+02  0.81994140264E+01  0.53323054312E+02  0.94322788028E+02  0.00000000000E+00 0.  1.
         13    1    4    4    0    0  0.25011722309E+02 -0.70585077481E+01  0.37866933186E+01  0.26263050675E+02  0.00000000000E+00 0. -1.
         -1    1    1    2    0  502  0.28486576166E+02  0.99843738470E+01 -0.23156203981E+02  0.38044480882E+02  0.00000000000E+00 0.  1.
<scales pt_clust_5="13000.00000" pt_clust_6="13000.00000" pt_clust_7="13000.00000" pt_clust_8="13000.00000" pt_clust_9="30.18564"></scales>
<clustering>
<clus scale="   30.186">  2  9  1 -1</clus>
<clus scale="   92.394">  7  8 -1 -1</clus>
<clus scale="   98.819">  2  7  1 -1</clus>
<clus scale="  114.341">  5  6 -1 -1</clus>
<clus scale="   30.186">  2  5  1 -1</clus>
</clustering>
</event>
<event>
 9    1  0.1321469E-005  0.1261545E+03  0.7546771E-02  0.1235408E+00
         -1   -1    0    0    0  501 -0.00000000000E+00  0.00000000000E+00  0.11720602072E+03  0.11720602072E+03  0.00000000000E+00 0.  1.
         21   -1    0    0  501  502  0.00000000000E+00 -0.00000000000E+00 -0.26245199830E+03  0.26245199830E+03  0.00000000000E+00 0.  1.
         23    2    1    2    0    0 -0.25989371614E+02 -0.11363577027E+03  0.81984143529E+00  0.14306227086E+03  0.82931329924E+02 0.  0.
         23    2    1    2    0    0  0.39771359268E+02  0.41182238785E+02 -0.58491995651E+02  0.12210281410E+03  0.90609303316E+02 0.  0.
        -11    1    3    3    0    0 -0.51025365663E+01 -0.10290127951E+03  0.28369090707E+02  0.10686212852E+03  0.00000000000E+00 0.  1.
         11    1    3    3    0    0 -0.20886835048E+02 -0.10734490758E+02 -0.27549249272E+02  0.36200142342E+02  0.00000000000E+00 0. -1.
        -13    1    4    4    0    0  0.61255688660E+02  0.23813965137E+02 -0.10258447122E+02  0.66517667323E+02  0.00000000000E+00 0.  1.
         13    1    4    4    0    0 -0.21484329392E+02  0.17368273648E+02 -0.48233548529E+02  0.55585146781E+02  0.00000000000E+00 0. -1.
         -1    1    1    2    0  502 -0.13781987654E+02  0.72453531485E+02 -0.87573823366E+02  0.11449293405E+03  0.00000000000E+00 0.  1.
<scales pt_clust_5="13000.00000" pt_clust_6="13000.00000" pt_clust_7="13000.00000" pt_clust_8="13000.00000" pt_clust_9="73.75268"></scales>
<clustering>
<clus scale="   73.753">  2  9  1 -1</clus>
<clus scale="   82.931">  5  6 -1 -1</clus>
<clus scale="   90.609">  7  8 -1 -1</clus>
<clus scale="  120.758">  1  5  2 -1</clus>
<clus scale="   73.753">  2  5  1 -1</clus>
</clustering>
</event>
<event>
 9    1  0.1321469E-005  0.1566814E+03  0.7546771E-02  0.1199433E+00
          3   -1    0    0  502    0 -0.00000000000E+00  0.00000000000E+00  0.62455042565E+03  0.62455042565E+03  0.00000000000E+00 0. -1.
         21   -1    0    0  501  502  0.00000000000E+00 -0.00000000000E+00 -0.14893883133E+03  0.14893883133E+03  0.00000000000E+00 0.  1.
         23    2    1    2    0    0 -0.54037270113E+02  0.84012008916E+02  0.34216698192E+03  0.36769766715E+03  0.90251242130E+02 0.  0.
         23    2    1    2    0    0 -0.84630200107E+02 -0.99980272596E+02 -0.56539391149E+02  0.17004262515E+03  0.92517381820E+02 0.  0.
        -11    1    4    4    0    0  0.18949961589E+02 -0.29033946523E+02 -0.15284390699E+02  0.37890416914E+02  0.00000000000E+00 0. -1.
         11    1    4    4    0    0 -0.10358016170E+03 -0.70946326074E+02 -0.41255000450E+02  0.13215220824E+03  0.00000000000E+00 0.  1.
        -13    1    3    3    0    0  0.17843835359E+02  0.31370362418E+02  0.46284591542E+02  0.58692124793E+02  0.00000000000E+00 0.  1.
         13    1    3    3    0    0 -0.71881105472E+02  0.52641646498E+02  0.29588239038E+03  0.30900554235E+03  0.00000000000E+00 0. -1.
          3    1    1    2  501    0  0.13866747022E+03  0.15968263680E+02  0.18998400355E+03  0.23574896468E+03  0.00000000000E+00 0. -1.
<scales pt_clust_5="13000.00000" pt_clust_6="13000.00000" pt_clust_7="13000.00000" pt_clust_8="13000.00000" pt_clust_9="126.45004"></scales>
<clustering>
<clus scale="   90.251">  7  8 -1 -1</clus>
<clus scale="   92.517">  5  6 -1 -1</clus>
<clus scale="  134.623">  1  7  2 -1</clus>
<clus scale="  126.450">  2  9  1 -1</clus>
<clus scale="  126.450">  2  5  1 -1</clus>
</clustering>
</event>
<event>
 9    1  0.1321469E-005  0.1485165E+03  0.7546771E-02  0.1203824E+00
         21   -1    0    0  501  502  0.00000000000E+00  0.00000000000E+00  0.94593541416E+02  0.94593541416E+02  0.00000000000E+00 0.  1.
          4   -1    0    0  502    0 -0.00000000000E+00 -0.00000000000E+00 -0.33105730410E+03  0.33105730410E+03  0.00000000000E+00 0. -1.
         23    2    1    2    0    0 -0.80562364023E+02  0.97702446617E+02 -0.17568303820E+03  0.23510231314E+03  0.91501394316E+02 0.  0.
         23    2    1    2    0    0  0.65350108118E+02 -0.52919421504E+02 -0.27346244020E+02  0.13262792679E+03  0.98849623662E+02 0.  0.
        -11    1    4    4    0    0  0.17118071351E+02  0.28005234709E+02 -0.19301523972E+02  0.38077163307E+02  0.00000000000E+00 0. -1.
         11    1    4    4    0    0  0.48232036767E+02 -0.80924656213E+02 -0.80447200489E+01  0.94550763479E+02  0.00000000000E+00 0.  1.
        -13    1    3    3    0    0 -0.19706106835E+02  0.12434320053E+02  0.71593853172E+01  0.24376212993E+02  0.00000000000E+00 0.  1.
         13    1    3    3    0    0 -0.60856257188E+02  0.85268126564E+02 -0.18284242351E+03  0.21072610015E+03  0.00000000000E+00 0. -1.
          4    1    1    2  501    0  0.15212255905E+02 -0.44783025113E+02 -0.33434480471E+02  0.57920605594E+02  0.00000000000E+00 0. -1.
<scales pt_clust_5="13000.00000" pt_clust_6="13000.00000" pt_clust_7="13000.00000" pt_clust_8="13000.00000" pt_clust_9="47.29624"></scales>
<clustering>
<clus scale="   47.296">  1  9  2 -1</clus>
<clus scale="   91.501">  7  8 -1 -1</clus>
<clus scale="   98.850">  5  6 -1 -1</clus>
<clus scale="  143.730">  2  7  1 -1</clus>
<clus scale="   47.296">  1  5  2 -1</clus>
</clustering>
</event>
<event>
 9    1  0.1321469E-005  0.3413206E+03  0.7546771E-02  0.1066257E+00
         21   -1    0    0  501  502  0.00000000000E+00  0.00000000000E+00  0.18060397922E+03  0.18060397922E+03  0.00000000000E+00 0. -1.
          2   -1    0    0  502    0 -0.00000000000E+00 -0.00000000000E+00 -0.12971730462E+04  0.12971730462E+04  0.00000000000E+00 0. -1.
         23    2    1    2    0    0 -0.17577911965E+03 -0.28269678672E+03 -0.51280642055E+03  0.61798658759E+03  0.90117841480E+02 0.  0.
         23    2    1    2    0    0 -0.29832021338E+02  0.36192771727E+03 -0.47424191570E+03  0.60419485623E+03  0.90908787619E+02 0.  0.
        -11    1    3    3    0    0 -0.15412211768E+02 -0.10246751244E+03 -0.15251496993E+03  0.18438531240E+03  0.00000000000E+00 0. -1.
         11    1    3    3    0    0 -0.16036690788E+03 -0.18022927429E+03 -0.36029145062E+03  0.43360127519E+03  0.00000000000E+00 0.  1.
        -13    1    4    4    0    0  0.20746107081E+02  0.20858077323E+03 -0.30690443094E+03  0.37165396493E+03  0.00000000000E+00 0.  1.
         13    1    4    4    0    0 -0.50578128419E+02  0.15334694403E+03 -0.16733748476E+03  0.23254089129E+03  0.00000000000E+00 0. -1.
          2    1    1    2  501    0  0.20561114099E+03 -0.79230930543E+02 -0.12952073076E+03  0.25559558164E+03  0.00000000000E+00 0. -1.
<scales pt_clust_5="13000.00000" pt_clust_6="13000.00000" pt_clust_7="13000.00000" pt_clust_8="13000.00000" pt_clust_9="220.34855"></scales>
<clustering>
<clus scale="   90.118">  5  6 -1 -1</clus>
<clus scale="   90.909">  7  8 -1 -1</clus>
<clus scale="  220.349">  1  9  2 -1</clus>
<clus scale="  341.111">  2  5  1 -1</clus>
<clus scale="  220.349">  1  5  2 -1</clus>
</clustering>
</event>
<event>
 9    1  0.1321469E-005  0.1002600E+03  0.7546771E-02  0.1281675E+00
          2   -1    0    0  502    0 -0.00000000000E+00  0.00000000000E+00  0.29497601586E+03  0.29497601586E+03  0.00000000000E+00 0. -1.
         21   -1    0    0  501  502  0.00000000000E+00 -0.00000000000E+00 -0.74093736679E+02  0.74093736679E+02  0.00000000000E+00 0. -1.
         23    2    1    2    0    0  0.85331881525E+01  0.15173717991E+02  0.15296744184E+03  0.18171894082E+03  0.96538480266E+02 0.  0.
         23    2    1    2    0    0 -0.26664699375E+02 -0.31587703612E+02  0.10294562288E+03  0.14462697108E+03  0.92792080912E+02 0.  0.
        -11    1    4    4    0    0  0.15232237047E+02  0.26136588287E+02  0.31355613717E+02  0.43569677579E+02  0.00000000000E+00 0.  1.
         11    1    4    4    0    0 -0.41896936422E+02 -0.57724291899E+02  0.71590009167E+02  0.10105729350E+03  0.00000000000E+00 0. -1.
        -13    1    3    3    0    0  0.39534356144E+02  0.30488828960E+02  0.41215765080E+02  0.64740044008E+02  0.00000000000E+00 0.  1.
         13    1    3    3    0    0 -0.31001167991E+02 -0.15315110969E+02  0.11175167676E+03  0.11697889681E+03  0.00000000000E+00 0. -1.
          2    1    1    2  501    0  0.18131511223E+02  0.16413985620E+02 -0.35030785544E+02  0.42723840640E+02  0.00000000000E+00 0. -1.
<scales pt_clust_5="13000.00000" pt_clust_6="13000.00000" pt_clust_7="13000.00000" pt_clust_8="13000.00000" pt_clust_9="24.45753"></scales>
<clustering>
<clus scale="   24.458">  2  9  1 -1</clus>
<clus scale="   92.792">  5  6 -1 -1</clus>
<clus scale="   96.538">  7  8 -1 -1</clus>
<clus scale="   96.658">  2  5  1 -1</clus>
<clus scale="   24.458">  2  5  1 -1</clus>
</clustering>
</event>
<event>
 9    1  0.1321469E-005  0.9671761E+02  0.7546771E-02  0.1288214E+00
         21   -1    0    0  501  502  0.00000000000E+00  0.00000000000E+00  0.91252311884E+02  0.91252311884E+02  0.00000000000E+00 0. -1.
          2   -1    0    0  502    0 -0.00000000000E+00 -0.00000000000E+00 -0.25444357822E+03  0.25444357822E+03  0.00000000000E+00 0. -1.
         23    2    1    2    0    0 -0.49608621037E+02 -0.39824488050E+01 -0.11368539907E+03  0.15395709115E+03  0.91112791499E+02 0.  0.
         23    2    1    2    0    0 -0.26738527133E+02 -0.18225623638E+02 -0.26856044148E+00  0.98216620308E+02  0.92732465672E+02 0.  0.
        -11    1    4    4    0    0 -0.54957410678E+02 -0.30658916152E+02 -0.13986684436E+02  0.64466374720E+02  0.00000000000E+00 0.  1.
         11    1    4    4    0    0  0.28218883545E+02  0.12433292514E+02  0.13718123995E+02  0.33750245587E+02  0.00000000000E+00 0. -1.
        -13    1    3    3    0    0  0.17869445529E+02 -0.11270775844E+02 -0.70296740639E+02  0.73402855640E+02  0.00000000000E+00 0.  1.
         13    1    3    3    0    0 -0.67478066566E+02  0.72883270387E+01 -0.43388658430E+02  0.80554235512E+02  0.00000000000E+00 0. -1.
          2    1    1    2  501    0  0.76347148171E+02  0.22208072443E+02 -0.49237306829E+02  0.93522178649E+02  0.00000000000E+00 0. -1.
<scales pt_clust_5="13000.00000" pt_clust_6="13000.00000" pt_clust_7="13000.00000" pt_clust_8="13000.00000" pt_clust_9="79.51158"></scales>
<clustering>
<clus scale="   79.512">  1  9  2 -1</clus>
<clus scale="   91.113">  7  8 -1 -1</clus>
<clus scale="   92.732">  5  6 -1 -1</clus>
<clus scale="   95.166">  2  7  1 -1</clus>
<clus scale="   79.512">  1  5  2 -1</clus>
</clustering>
</event>
<event>
 9    1  0.1321469E-005  0.1027722E+03  0.7546771E-02  0.1275039E+00
          4   -1    0    0  502    0 -0.00000000000E+00  0.00000000000E+00  0.15049188962E+03  0.15049188962E+03  0.00000000000E+00 0. -1.
         21   -1    0    0  501  502  0.00000000000E+00 -0.00000000000E+00 -0.20227297170E+03  0.20227297170E+03  0.00000000000E+00 0.  1.
         23    2    1    2    0    0  0.11916318692E+01  0.28256409752E+02  0.34296198772E+02  0.10075039077E+03  0.90413313792E+02 0.  0.
         23    2    1    2    0    0  0.65122217247E+02 -0.64521168445E+02  0.98855516532E+01  0.12986077830E+03  0.91445137938E+02 0.  0.
        -11    1    3    3    0    0  0.15916423946E+02  0.52849792663E+02 -0.10971843954E+01  0.55205406885E+02  0.00000000000E+00 0. -1.
         11    1    3    3    0    0 -0.14724792076E+02 -0.24593382911E+02  0.35393383168E+02  0.45544983882E+02  0.00000000000E+00 0.  1.
        -11    1    4    4    0    0  0.87826415401E+02 -0.47093317229E+02  0.15022420675E+02  0.10078160989E+03  0.00000000000E+00 0.  1.
         11    1    4    4    0    0 -0.22704198154E+02 -0.17427851216E+02 -0.51368690221E+01  0.29079168406E+02  0.00000000000E+00 0. -1.
          4    1    1    2  501    0 -0.66313849116E+02  0.36264758693E+02 -0.95962832513E+02  0.12215369226E+03  0.00000000000E+00 0. -1.
<scales pt_clust_5="13000.00000" pt_clust_6="13000.00000" pt_clust_7="13000.00000" pt_clust_8="13000.00000" pt_clust_9="75.58214"></scales>
<clustering>
<clus scale="   75.582">  2  9  1 -1</clus>
<clus scale="   90.413">  5  6 -1 -1</clus>
<clus scale="   91.445">  7  8 -1 -1</clus>
<clus scale="  101.855">  1  5  2 -1</clus>
<clus scale="   75.582">  2  5  1 -1</clus>
</clustering>
</event>
<event>
 9    1  0.1321469E-005  0.1073428E+03  0.7546771E-02  0.1277788E+00
         21   -1    0    0  501  502  0.00000000000E+00  0.00000000000E+00  0.37228194878E+02  0.37228194878E+02  0.00000000000E+00 0. -1.
          1   -1    0    0  502    0 -0.00000000000E+00 -0.00000000000E+00 -0.61924710765E+03  0.61924710765E+03  0.00000000000E+00 0. -1.
         23    2    1    2    0    0  0.36279140970E+02  0.20888500449E+02 -0.45646631638E+03  0.46429699947E+03  0.73876249255E+02 0.  0.
         23    2    1    2    0    0 -0.44924346825E+02 -0.15602295584E+01 -0.13110948634E+03  0.17028765058E+03  0.98932074069E+02 0.  0.
        -11    1    3    3    0    0  0.54421203113E+02  0.31481128489E+02 -0.37080949006E+03  0.37610159096E+03  0.00000000000E+00 0. -1.
         11    1    3    3    0    0 -0.18142062144E+02 -0.10592628040E+02 -0.85656826320E+02  0.88195408513E+02  0.00000000000E+00 0.  1.
        -11    1    4    4    0    0 -0.75831634695E+01 -0.44327243894E+02 -0.88607781010E+02  0.99366733744E+02  0.00000000000E+00 0.  1.
         11    1    4    4    0    0 -0.37341183356E+02  0.42767014336E+02 -0.42501705329E+02  0.70920916840E+02  0.00000000000E+00 0. -1.
          1    1    1    2  501    0  0.86452058554E+01 -0.19328270890E+02  0.55568899480E+01  0.21890652475E+02  0.00000000000E+00 0. -1.
<scales pt_clust_5="13000.00000" pt_clust_6="13000.00000" pt_clust_7="13000.00000" pt_clust_8="13000.00000" pt_clust_9="21.17361"></scales>
<clustering>
<clus scale="   21.174">  1  9  2 -1</clus>
<clus scale="   73.876">  5  6 -1 -1</clus>
<clus scale="   84.809">  2  5  1 -1</clus>
<clus scale="   98.932">  7  8 -1 -1</clus>
<clus scale="   21.174">  1  5  2 -1</clus>
</clustering>
</event>
<event>
 9    1  0.1321469E-005  0.1549916E+03  0.7546771E-02  0.1194562E+00
         21   -1    0    0  501  502  0.00000000000E+00  0.00000000000E+00  0.61611552634E+02  0.61611552634E+02  0.00000000000E+00 0. -1.
          2   -1    0    0  502    0 -0.00000000000E+00 -0.00000000000E+00 -0.82859672108E+03  0.82859672108E+03  0.00000000000E+00 0. -1.
         23    2    1    2    0    0  0.81722414034E+02 -0.69454243980E+02 -0.23184599606E+03  0.27113315155E+03  0.90874501480E+02 0.  0.
         23    2    1    2    0    0 -0.16869256820E+03 -0.10255409402E+02 -0.36147378848E+03  0.40912964799E+03  0.90340539736E+02 0.  0.
        -11    1    3    3    0    0  0.22395534393E+02 -0.14564887301E+02 -0.12069951867E+01  0.26742339842E+02  0.00000000000E+00 0.  1.
         11    1    3    3    0    0  0.59326879641E+02 -0.54889356679E+02 -0.23063900087E+03  0.24439081171E+03  0.00000000000E+00 0. -1.
        -13    1    4    4    0    0 -0.86965969672E+02  0.33905487871E+02 -0.22935800190E+03  0.24762422140E+03  0.00000000000E+00 0.  1.
         13    1    4    4    0    0 -0.81726598526E+02 -0.44160897273E+02 -0.13211578659E+03  0.16150542660E+03  0.00000000000E+00 0. -1.
          2    1    1    2  501    0  0.86970154164E+02  0.79709653382E+02 -0.17366538390E+03  0.20994547417E+03  0.00000000000E+00 0. -1.
<scales pt_clust_5="13000.00000" pt_clust_6="13000.00000" pt_clust_7="13000.00000" pt_clust_8="13000.00000" pt_clust_9="117.97219"></scales>
<clustering>
<clus scale="   90.341">  7  8 -1 -1</clus>
<clus scale="   90.875">  5  6 -1 -1</clus>
<clus scale="  117.972">  1  9  2 -1</clus>
<clus scale="  154.679">  1  7  2 -1</clus>
<clus scale="  117.972">  1  5  2 -1</clus>
</clustering>
</event>
<event>
 9    1  0.1321469E-005  0.2122828E+03  0.7546771E-02  0.1159887E+00
         21   -1    0    0  501  502  0.00000000000E+00  0.00000000000E+00  0.22123103901E+03  0.22123103901E+03  0.00000000000E+00 0. -1.
          1   -1    0    0  502    0 -0.00000000000E+00 -0.00000000000E+00 -0.58458213884E+03  0.58458213884E+03  0.00000000000E+00 0. -1.
         23    2    1    2    0    0  0.69951283789E+02  0.46395237048E+02 -0.29936200429E+03  0.32708150156E+03  0.10158247354E+03 0.  0.
         23    2    1    2    0    0 -0.17388099414E+03  0.11496309756E+03 -0.14638697171E+03  0.26986016833E+03  0.89130528099E+02 0.  0.
        -13    1    4    4    0    0 -0.17871857389E+02 -0.11541568293E+02  0.79409716641E-01  0.21274806488E+02  0.00000000000E+00 0.  1.
         13    1    4    4    0    0 -0.15600913675E+03  0.12650466586E+03 -0.14646638142E+03  0.24858536184E+03  0.00000000000E+00 0. -1.
        -13    1    3    3    0    0  0.30641189547E+02  0.75069807262E+02 -0.15818907666E+03  0.17775866346E+03  0.00000000000E+00 0. -1.
         13    1    3    3    0    0  0.39310094242E+02 -0.28674570214E+02 -0.14117292763E+03  0.14932283811E+03  0.00000000000E+00 0.  1.
          1    1    1    2  501    0  0.10392971035E+03 -0.16135833461E+03  0.82397876163E+02  0.20887150796E+03  0.00000000000E+00 0. -1.
<scales pt_clust_5="13000.00000" pt_clust_6="13000.00000" pt_clust_7="13000.00000" pt_clust_8="13000.00000" pt_clust_9="192.66483"></scales>
<clustering>
<clus scale="   89.131">  5  6 -1 -1</clus>
<clus scale="  101.582">  7  8 -1 -1</clus>
<clus scale="  131.775">  2  7  1 -1</clus>
<clus scale="  192.665">  1  9  2 -1</clus>
<clus scale="  192.665">  1  5  2 -1</clus>
</clustering>
</event>
<event>
 9    1  0.1321469E-005  0.1302605E+03  0.7546771E-02  0.1243849E+00
         -2   -1    0    0    0  501 -0.00000000000E+00  0.00000000000E+00  0.16584957030E+03  0.16584957030E+03  0.00000000000E+00 0.  1.
         21   -1    0    0  501  502  0.00000000000E+00 -0.00000000000E+00 -0.17602334861E+03  0.17602334861E+03  0.00000000000E+00 0. -1.
         23    2    1    2    0    0  0.13889180091E+02  0.85295235149E+01  0.55351703152E+02  0.10771435105E+03  0.90955529162E+02 0.  0.
         23    2    1    2    0    0  0.58599736714E+02  0.60335386271E+02 -0.23795992576E+02  0.12581481354E+03  0.90492154708E+02 0.  0.
        -11    1    4    4    0    0  0.55928881830E+02  0.81904223498E+02 -0.91341448892E+01  0.99598063498E+02  0.00000000000E+00 0. -1.
         11    1    4    4    0    0  0.26708548835E+01 -0.21568837227E+02 -0.14661847686E+02  0.26216750041E+02  0.00000000000E+00 0.  1.
        -11    1    3    3    0    0  0.49877484114E+02 -0.69044034023E+01  0.44196455930E+02  0.66998215832E+02  0.00000000000E+00 0.  1.
         11    1    3    3    0    0 -0.35988304022E+02  0.15433926917E+02  0.11155247222E+02  0.40716135218E+02  0.00000000000E+00 0. -1.
         -2    1    1    2    0  502 -0.72488916805E+02 -0.68864909786E+02 -0.41729488888E+02  0.10834375433E+03  0.00000000000E+00 0.  1.
<scales pt_clust_5="13000.00000" pt_clust_6="13000.00000" pt_clust_7="13000.00000" pt_clust_8="13000.00000" pt_clust_9="93.69621"></scales>
<clustering>
<clus scale="   90.492">  5  6 -1 -1</clus>
<clus scale="   90.956">  7  8 -1 -1</clus>
<clus scale="   92.404">  1  7  2 -1</clus>
<clus scale="   93.696">  2  9  1 -1</clus>
<clus scale="   93.696">  2  5  1 -1</clus>
</clustering>
</event>
<event>
 9    1  0.1591928E-005  0.1640994E+03  0.7546771E-02  0.1200190E+00
          1   -1    0    0  502    0 -0.00000000000E+00  0.00000000000E+00  0.50627577045E+03  0.50627577045E+03  0.00000000000E+00 0. -1.
         21   -1    0    0  501  502  0.00000000000E+00 -0.00000000000E+00 -0.51433086001E+03  0.51433086001E+03  0.00000000000E+00 0. -1.
         23    2    1    2    0    0 -0.20410410594E+02  0.67826198743E+02 -0.80617422536E+02  0.14066338609E+03  0.90939767286E+02 0.  0.
         23    2    1    2    0    0  0.29713079469E+02 -0.20077924901E+03  0.43760853442E+03  0.49132803313E+03  0.93310411108E+02 0.  0.
        -11    1    4    4    0    0  0.46838689132E+02 -0.47296780654E+02  0.16659346437E+03  0.17939963944E+03  0.00000000000E+00 0.  1.
         11    1    4    4    0    0 -0.17125609663E+02 -0.15348246836E+03  0.27101507005E+03  0.31192839370E+03  0.00000000000E+00 0. -1.
        -13    1    3    3    0    0  0.40619412855E+00  0.85447110105E+02 -0.47506382752E+02  0.97766200812E+02  0.00000000000E+00 0.  1.
         13    1    3    3    0    0 -0.20816604722E+02 -0.17620911362E+02 -0.33111039784E+02  0.42897185280E+02  0.00000000000E+00 0. -1.
          1    1    1    2  501    0 -0.93026688751E+01  0.13295305027E+03 -0.36504620143E+03  0.38861521124E+03  0.00000000000E+00 0. -1.
<scales pt_clust_5="13000.00000" pt_clust_6="13000.00000" pt_clust_7="13000.00000" pt_clust_8="13000.00000" pt_clust_9="134.98812"></scales>
<clustering>
<clus scale="   90.940">  7  8 -1 -1</clus>
<clus scale="   93.310">  5  6 -1 -1</clus>
<clus scale="  115.269">  1  7  2 -1</clus>
<clus scale="  134.988">  2  9  1 -1</clus>
<clus scale="  134.988">  2  5  1 -1</clus>
</clustering>
</event>
<event>
 9    1  0.1321469E-005  0.2378382E+03  0.7546771E-02  0.1121345E+00
         -1   -1    0    0    0  501 -0.00000000000E+00  0.00000000000E+00  0.50866817218E+03  0.50866817218E+03  0.00000000000E+00 0.  1.
         21   -1    0    0  501  502  0.00000000000E+00 -0.00000000000E+00 -0.20388848129E+03  0.20388848129E+03  0.00000000000E+00 0.  1.
         23    2    1    2    0    0 -0.21970825232E+03 -0.73119462274E+01  0.17509138296E+03  0.29584455028E+03  0.92421993334E+02 0.  0.
         23    2    1    2    0    0  0.20549343146E+03 -0.12851667476E+03  0.95876967982E+02  0.27601852792E+03  0.90828127267E+02 0.  0.
        -11    1    3    3    0    0 -0.15241845428E+03 -0.47566897802E+02  0.12525844812E+03  0.20293761060E+03  0.00000000000E+00 0.  1.
         11    1    3    3    0    0 -0.67289798038E+02  0.40254951575E+02  0.49832934838E+02  0.92906939681E+02  0.00000000000E+00 0. -1.
        -11    1    4    4    0    0  0.16041043048E+03 -0.13108621300E+03  0.53189093029E+02  0.21387889345E+03  0.00000000000E+00 0.  1.
         11    1    4    4    0    0  0.45083000972E+02  0.25695382462E+01  0.42687874953E+02  0.62139634465E+02  0.00000000000E+00 0. -1.
         -1    1    1    2    0  502  0.14214820862E+02  0.13582862099E+03  0.33811339956E+02  0.14069357526E+03  0.00000000000E+00 0.  1.
<scales pt_clust_5="13000.00000" pt_clust_6="13000.00000" pt_clust_7="13000.00000" pt_clust_8="13000.00000" pt_clust_9="136.57040"></scales>
<clustering>
<clus scale="   90.828">  7  8 -1 -1</clus>
<clus scale="   92.422">  5  6 -1 -1</clus>
<clus scale="  136.570">  2  9  1 -1</clus>
<clus scale="  237.223">  2  7  1 -1</clus>
<clus scale="  136.570">  2  5  1 -1</clus>
</clustering>
</event>
<event>
 9    1  0.1502631E-005  0.9209180E+02  0.7546771E-02  0.1298988E+00
         21   -1    0    0  501  502  0.00000000000E+00  0.00000000000E+00  0.27817837251E+03  0.27817837251E+03  0.00000000000E+00 0. -1.
          2   -1    0    0  502    0 -0.00000000000E+00 -0.00000000000E+00 -0.21340069756E+03  0.21340069756E+03  0.00000000000E+00 0. -1.
         23    2    1    2    0    0  0.13240827052E+02  0.38836146637E+01 -0.15773423610E+03  0.18297704243E+03  0.91706634737E+02 0.  0.
         23    2    1    2    0    0  0.29554323533E+02  0.53428453784E+02  0.45606033342E+02  0.11778329777E+03  0.89804995642E+02 0.  0.
        -11    1    4    4    0    0 -0.47913719825E+01  0.62540910867E+02  0.52247378115E+02  0.81634008217E+02  0.00000000000E+00 0. -1.
         11    1    4    4    0    0  0.34345695515E+02 -0.91124570829E+01 -0.66413447738E+01  0.36149289549E+02  0.00000000000E+00 0.  1.
        -13    1    3    3    0    0 -0.91476500104E+01  0.45000901684E+02 -0.78303068359E+02  0.90775168232E+02  0.00000000000E+00 0. -1.
         13    1    3    3    0    0  0.22388477063E+02 -0.41117287020E+02 -0.79431167738E+02  0.92201874196E+02  0.00000000000E+00 0.  1.
          2    1    1    2  501    0 -0.42795150585E+02 -0.57312068448E+02  0.17690587771E+03  0.19081872988E+03  0.00000000000E+00 0. -1.
<scales pt_clust_5="13000.00000" pt_clust_6="13000.00000" pt_clust_7="13000.00000" pt_clust_8="13000.00000" pt_clust_9="71.52690"></scales>
<clustering>
<clus scale="   71.527">  1  9  2 -1</clus>
<clus scale="   89.805">  5  6 -1 -1</clus>
<clus scale="   90.198">  1  5  2 -1</clus>
<clus scale="   91.707">  7  8 -1 -1</clus>
<clus scale="   71.527">  1  5  2 -1</clus>
</clustering>
</event>
<event>
 9    1  0.1321469E-005  0.1298088E+03  0.7546771E-02  0.1229074E+00
         21   -1    0    0  501  502  0.00000000000E+00  0.00000000000E+00  0.16073262787E+03  0.16073262787E+03  0.00000000000E+00 0.  1.
          2   -1    0    0  502    0 -0.00000000000E+00 -0.00000000000E+00 -0.23891790539E+03  0.23891790539E+03  0.00000000000E+00 0. -1.
         23    2    1    2    0    0 -0.90650576682E+02 -0.17739526577E+02 -0.17359357763E+03  0.21749241361E+03  0.92930091629E+02 0.  0.
         23    2    1    2    0    0  0.85482924943E+02 -0.68509301545E+01  0.54993832527E+02  0.13456899929E+03  0.87921716612E+02 0.  0.
        -11    1    3    3    0    0 -0.83824086700E+00 -0.37331298884E+02 -0.34964784479E+02  0.51155299606E+02  0.00000000000E+00 0.  1.
         11    1    3    3    0    0 -0.89812335815E+02  0.19591772307E+02 -0.13862879315E+03  0.16633711401E+03  0.00000000000E+00 0. -1.
        -11    1    4    4    0    0  0.39953720197E+02  0.12699973373E+02 -0.18587659013E+02  0.45859460843E+02  0.00000000000E+00 0. -1.
         11    1    4    4    0    0  0.45529204746E+02 -0.19550903528E+02  0.73581491540E+02  0.88709538443E+02  0.00000000000E+00 0.  1.
          2    1    1    2  501    0  0.51676517392E+01  0.24590456732E+02  0.40414467581E+02  0.47589120360E+02  0.00000000000E+00 0. -1.
<scales pt_clust_5="13000.00000" pt_clust_6="13000.00000" pt_clust_7="13000.00000" pt_clust_8="13000.00000" pt_clust_9="25.12758"></scales>
<clustering>
<clus scale="   25.128">  1  9  2 -1</clus>
<clus scale="   87.922">  7  8 -1 -1</clus>
<clus scale="   92.930">  5  6 -1 -1</clus>
<clus scale="  126.272">  1  7  2 -1</clus>
<clus scale="   25.128">  1  5  2 -1</clus>
</clustering>
</event>
<event>
 9    1  0.1321469E-005  0.1184656E+03  0.7546771E-02  0.1246429E+00
         21   -1    0    0  501  502  0.00000000000E+00  0.00000000000E+00  0.76430451551E+02  0.76430451551E+02  0.00000000000E+00 0.  1.
          2   -1    0    0  502    0 -0.00000000000E+00 -0.00000000000E+00 -0.69858761579E+03  0.69858761579E+03  0.00000000000E+00 0. -1.
         23    2    1    2    0    0 -0.25202347861E+02  0.74594852223E+02 -0.34215747833E+03  0.36195248780E+03  0.87967682303E+02 0.  0.
         23    2    1    2    0    0 -0.41086174462E+01 -0.77048283756E+02 -0.33238164269E+03  0.35299044817E+03  0.90395693120E+02 0.  0.
        -11    1    4    4    0    0  0.18412348529E+02 -0.89041638706E+02 -0.28530979586E+03  0.29944800487E+03  0.00000000000E+00 0.  1.
         11    1    4    4    0    0 -0.22520965975E+02  0.11993354950E+02 -0.47071846828E+02  0.53542443306E+02  0.00000000000E+00 0. -1.
        -13    1    3    3    0    0  0.31665584488E+02  0.17825565623E+02 -0.82554388754E+02  0.90198043955E+02  0.00000000000E+00 0. -1.
         13    1    3    3    0    0 -0.56867932349E+02  0.56769286601E+02 -0.25960308958E+03  0.27175444384E+03  0.00000000000E+00 0.  1.
          2    1    1    2  501    0  0.29310965307E+02  0.24534315321E+01  0.52381956781E+02  0.60075131375E+02  0.00000000000E+00 0. -1.
<scales pt_clust_5="13000.00000" pt_clust_6="13000.00000" pt_clust_7="13000.00000" pt_clust_8="13000.00000" pt_clust_9="29.41347"></scales>
<clustering>
<clus scale="   29.413">  1  9  2 -1</clus>
<clus scale="   87.968">  7  8 -1 -1</clus>
<clus scale="   90.396">  5  6 -1 -1</clus>
<clus scale="  116.623">  2  7  1 -1</clus>
<clus scale="   29.413">  1  5  2 -1</clus>
</clustering>
</event>
<event>
 9    1  0.1321469E-005  0.1085888E+03  0.7546771E-02  0.1264255E+00
          2   -1    0    0  502    0 -0.00000000000E+00  0.00000000000E+00  0.34188735303E+03  0.34188735303E+03  0.00000000000E+00 0. -1.
         21   -1    0    0  501  502  0.00000000000E+00 -0.00000000000E+00 -0.15084427812E+03  0.15084427812E+03  0.00000000000E+00 0.  1.
         23    2    1    2    0    0  0.10946164265E+02  0.57681951934E+02  0.23297784142E+03  0.25907957765E+03  0.96935684213E+02 0.  0.
         23    2    1    2    0    0  0.47057396020E+02  0.21292431284E+02 -0.73899693242E+02  0.13058351925E+03  0.94462292411E+02 0.  0.
        -11    1    3    3    0    0  0.39209227415E+02  0.71533940292E+02  0.17601313420E+03  0.19399765859E+03  0.00000000000E+00 0. -1.
         11    1    3    3    0    0 -0.28263063150E+02 -0.13851988359E+02  0.56964707214E+02  0.65081919057E+02  0.00000000000E+00 0.  1.
        -13    1    4    4    0    0  0.73478842839E+02  0.30615507321E+02 -0.56230391184E+02  0.97459255724E+02  0.00000000000E+00 0.  1.
         13    1    4    4    0    0 -0.26421446819E+02 -0.93230760368E+01 -0.17669302058E+02  0.33124263524E+02  0.00000000000E+00 0. -1.
          2    1    1    2  501    0 -0.58003560285E+02 -0.78974383218E+02  0.31964926733E+02  0.10306853425E+03  0.00000000000E+00 0. -1.
<scales pt_clust_5="13000.00000" pt_clust_6="13000.00000" pt_clust_7="13000.00000" pt_clust_8="13000.00000" pt_clust_9="97.98656"></scales>
<clustering>
<clus scale="   94.462">  7  8 -1 -1</clus>
<clus scale="   96.936">  5  6 -1 -1</clus>
<clus scale="   97.987">  2  9  1 -1</clus>
<clus scale="  106.387">  2  7  1 -1</clus>
<clus scale="   97.987">  2  5  1 -1</clus>
</clustering>
</event>
<event>
 9    1  0.1321469E-005  0.1103127E+03  0.7546771E-02  0.1260197E+00
          3   -1    0    0  502    0 -0.00000000000E+00  0.00000000000E+00  0.94729537749E+02  0.94729537749E+02  0.00000000000E+00 0. -1.
         21   -1    0    0  501  502  0.00000000000E+00 -0.00000000000E+00 -0.42730382006E+03  0.42730382006E+03  0.00000000000E+00 0. -1.
         23    2    1    2    0    0 -0.11651947879E+02 -0.71092145224E+02  0.27230032826E+02  0.11982317631E+03  0.91794650671E+02 0.  0.
         23    2    1    2    0    0 -0.47809987012E+01  0.30474787987E+02 -0.10309855561E+03  0.14179194400E+03  0.92325904085E+02 0.  0.
        -11    1    3    3    0    0 -0.22357818579E+02  0.45346041065E+01 -0.19729885862E+02  0.30161284491E+02  0.00000000000E+00 0.  1.
         11    1    3    3    0    0  0.10705870701E+02 -0.75626749330E+02  0.46959918687E+02  0.89661891821E+02  0.00000000000E+00 0. -1.
        -13    1    4    4    0    0 -0.36428474498E+02 -0.87882240525E+01 -0.75538521752E+02  0.84322801808E+02  0.00000000000E+00 0. -1.
         13    1    4    4    0    0  0.31647475797E+02  0.39263012040E+02 -0.27560033853E+02  0.57469142196E+02  0.00000000000E+00 0.  1.
          3    1    1    2  501    0  0.16432946580E+02  0.40617357236E+02 -0.25670575953E+03  0.26041823749E+03  0.00000000000E+00 0. -1.
<scales pt_clust_5="13000.00000" pt_clust_6="13000.00000" pt_clust_7="13000.00000" pt_clust_8="13000.00000" pt_clust_9="43.81565"></scales>
<clustering>
<clus scale="   43.816">  2  9  1 -1</clus>
<clus scale="   91.795">  5  6 -1 -1</clus>
<clus scale="   92.326">  7  8 -1 -1</clus>
<clus scale="  109.868">  1  5  2 -1</clus>
<clus scale="   43.816">  2  5  1 -1</clus>
</clustering>
</event>
<event>
 9    1  0.1321469E-005  0.9831171E+02  0.7546771E-02  0.1284298E+00
         21   -1    0    0  501  502  0.00000000000E+00  0.00000000000E+00  0.24160815795E+02  0.24160815795E+02  0.00000000000E+00 0.  1.
          1   -1    0    0  502    0 -0.00000000000E+00 -0.00000000000E+00 -0.68054076537E+03  0.68054076537E+03  0.00000000000E+00 0. -1.
         23    2    1    2    0    0 -0.27303456201E+02  0.15693873900E+02 -0.26160193238E+03  0.27862373848E+03  0.90575052987E+02 0.  0.
         23    2    1    2    0    0 -0.37520050934E+00 -0.55991900740E+02 -0.31726667330E+03  0.33443698151E+03  0.89748085705E+02 0.  0.
        -13    1    4    4    0    0  0.24299115430E+02  0.12877700882E+02 -0.13987010747E+03  0.14254798895E+03  0.00000000000E+00 0. -1.
         13    1    4    4    0    0 -0.24674315940E+02 -0.68869601622E+02 -0.17739656583E+03  0.19188899255E+03  0.00000000000E+00 0.  1.
        -13    1    3    3    0    0  0.20463089973E+02 -0.25178280346E+02 -0.75019693055E+02  0.81735171123E+02  0.00000000000E+00 0.  1.
         13    1    3    3    0    0 -0.47766546175E+02  0.40872154246E+02 -0.18658223932E+03  0.19688856736E+03  0.00000000000E+00 0. -1.
          1    1    1    2  501    0  0.27678656711E+02  0.40298026841E+02 -0.77511343901E+02  0.91640861180E+02  0.00000000000E+00 0. -1.
<scales pt_clust_5="13000.00000" pt_clust_6="13000.00000" pt_clust_7="13000.00000" pt_clust_8="13000.00000" pt_clust_9="48.88803"></scales>
<clustering>
<clus scale="   48.888">  1  9  2 -1</clus>
<clus scale="   89.748">  5  6 -1 -1</clus>
<clus scale="   90.575">  7  8 -1 -1</clus>
<clus scale="   97.550">  1  5  2 -1</clus>
<clus scale="   48.888">  1  5  2 -1</clus>
</clustering>
</event>
<event>
 9    1  0.1321469E-005  0.1499024E+03  0.7546771E-02  0.1212521E+00
         -1   -1    0    0    0  501 -0.00000000000E+00  0.00000000000E+00  0.41246237150E+03  0.41246237150E+03  0.00000000000E+00 0.  1.
         21   -1    0    0  501  502  0.00000000000E+00 -0.00000000000E+00 -0.13161783825E+03  0.13161783825E+03  0.00000000000E+00 0.  1.
         23    2    1    2    0    0  0.20410688188E+02  0.64900415962E+02  0.16406783251E+03  0.20094601201E+03  0.93980774068E+02 0.  0.
         23    2    1    2    0    0 -0.11722427239E+03  0.67304042105E+01  0.15582541031E+03  0.21652990790E+03  0.93897892108E+02 0.  0.
        -13    1    3    3    0    0 -0.72404257979E+01  0.54677832854E+02  0.28256536656E+02  0.61971937481E+02  0.00000000000E+00 0.  1.
         13    1    3    3    0    0  0.27651113986E+02  0.10222583108E+02  0.13581129585E+03  0.13897407453E+03  0.00000000000E+00 0. -1.
        -13    1    4    4    0    0 -0.56582810498E+02 -0.77114318291E+01  0.14146996725E+03  0.15256091328E+03  0.00000000000E+00 0.  1.
         13    1    4    4    0    0 -0.60641461892E+02  0.14441836040E+02  0.14355443051E+02  0.63968994629E+02  0.00000000000E+00 0. -1.
         -1    1    1    2    0  502  0.96813584202E+02 -0.71630820173E+02 -0.39048709565E+02  0.12660428983E+03  0.00000000000E+00 0.  1.
<scales pt_clust_5="13000.00000" pt_clust_6="13000.00000" pt_clust_7="13000.00000" pt_clust_8="13000.00000" pt_clust_9="116.84997"></scales>
<clustering>
<clus scale="   93.898">  7  8 -1 -1</clus>
<clus scale="   93.981">  5  6 -1 -1</clus>
<clus scale="  116.022">  1  5  2 -1</clus>
<clus scale="  116.850">  2  9  1 -1</clus>
<clus scale="  116.850">  2  5  1 -1</clus>
</clustering>
</event>
<event>
 9    1  0.1321469E-005  0.9157578E+02  0.7546771E-02  0.1300191E+00
          3   -1    0    0  502    0 -0.00000000000E+00  0.00000000000E+00  0.57575282741E+03  0.57575282741E+03  0.00000000000E+00 0. -1.
         21   -1    0    0  501  502  0.00000000000E+00 -0.00000000000E+00 -0.30256253344E+02  0.30256253344E+02  0.00000000000E+00 0. -1.
         23    2    1    2    0    0  0.28023169731E+01 -0.10779298617E+01  0.35638661030E+03  0.36771445494E+03  0.90517895810E+02 0.  0.
         23    2    1    2    0    0 -0.21123209578E+02  0.41451427688E+02  0.14033038585E+03  0.17237708904E+03  0.88638777017E+02 0.  0.
        -11    1    4    4    0    0 -0.40324263214E+02 -0.12919018411E+02  0.55602141850E+02  0.69889522954E+02  0.00000000000E+00 0.  1.
         11    1    4    4    0    0  0.19201053636E+02  0.54370446100E+02  0.84728244005E+02  0.10248756609E+03  0.00000000000E+00 0. -1.
        -13    1    3    3    0    0  0.11170478332E+02 -0.42553421920E+02  0.23707344366E+03  0.24112111270E+03  0.00000000000E+00 0.  1.
         13    1    3    3    0    0 -0.83681613593E+01  0.41475492059E+02  0.11931316664E+03  0.12659334224E+03  0.00000000000E+00 0. -1.
          3    1    1    2  501    0  0.18320892605E+02 -0.40373497827E+02  0.48779577916E+02  0.65917536773E+02  0.00000000000E+00 0. -1.
<scales pt_clust_5="13000.00000" pt_clust_6="13000.00000" pt_clust_7="13000.00000" pt_clust_8="13000.00000" pt_clust_9="44.33593"></scales>
<clustering>
<clus scale="   44.336">  2  9  1 -1</clus>
<clus scale="   88.639">  5  6 -1 -1</clus>
<clus scale="   89.719">  2  5  1 -1</clus>
<clus scale="   90.518">  7  8 -1 -1</clus>
<clus scale="   44.336">  2  5  1 -1</clus>
</clustering>
</event>
<event>
 9    1  0.3126698E-005  0.1123551E+03  0.7546771E-02  0.1256524E+00
          2   -1    0    0  502    0 -0.00000000000E+00  0.00000000000E+00  0.62128005829E+03  0.62128005829E+03  0.00000000000E+00 0. -1.
         21   -1    0    0  501  502  0.00000000000E+00 -0.00000000000E+00 -0.12595454314E+03  0.12595454314E+03  0.00000000000E+00 0. -1.
         23    2    1    2    0    0 -0.62193387844E+02  0.25294864384E+02  0.57275286704E+03  0.58389311488E+03  0.91528548858E+02 0.  0.
         23    2    1    2    0    0  0.45274221027E+02  0.40741126278E+01 -0.31668904558E+02  0.10639738660E+03  0.90835735683E+02 0.  0.
        -11    1    3    3    0    0  0.72235476852E+01 -0.24273320826E+02  0.83348289765E+02  0.87110912932E+02  0.00000000000E+00 0.  1.
         11    1    3    3    0    0 -0.69416935529E+02  0.49568185210E+02  0.48940457727E+03  0.49678220195E+03  0.00000000000E+00 0. -1.
        -13    1    4    4    0    0  0.36864885195E+02 -0.18575199074E+02 -0.57658691384E+02  0.70912498709E+02  0.00000000000E+00 0.  1.
         13    1    4    4    0    0  0.84093358318E+01  0.22649311702E+02  0.25989786825E+02  0.35484887895E+02  0.00000000000E+00 0. -1.
          2    1    1    2  501    0  0.16919166817E+02 -0.29368977012E+02 -0.45758447330E+02  0.56944099945E+02  0.00000000000E+00 0. -1.
<scales pt_clust_5="13000.00000" pt_clust_6="13000.00000" pt_clust_7="13000.00000" pt_clust_8="13000.00000" pt_clust_9="33.89388"></scales>
<clustering>
<clus scale="   33.894">  2  9  1 -1</clus>
<clus scale="   90.836">  7  8 -1 -1</clus>
<clus scale="   91.529">  5  6 -1 -1</clus>
<clus scale="  111.791">  2  7  1 -1</clus>
<clus scale="   33.894">  2  5  1 -1</clus>
</clustering>
</event>
<event>
 9    1  0.1321469E-005  0.1333579E+03  0.7546771E-02  0.1223407E+00
         -1   -1    0    0    0  501 -0.00000000000E+00  0.00000000000E+00  0.70027377918E+03  0.70027377918E+03  0.00000000000E+00 0.  1.
         21   -1    0    0  501  502  0.00000000000E+00 -0.00000000000E+00 -0.65370349397E+02  0.65370349397E+02  0.00000000000E+00 0. -1.
         23    2    1    2    0    0 -0.10486233641E+03 -0.48881614657E+01  0.43810888324E+03  0.45990552046E+03  0.92486163595E+02 0.  0.
         23    2    1    2    0    0  0.54347354072E+02  0.86577063437E+02  0.93526045669E+02  0.16470945007E+03  0.89066598204E+02 0.  0.
        -13    1    4    4    0    0 -0.20095518526E+01  0.42319942092E+02  0.81769722674E+02  0.92093991897E+02  0.00000000000E+00 0.  1.
         13    1    4    4    0    0  0.56356905925E+02  0.44257121345E+02  0.11756322994E+02  0.72615458172E+02  0.00000000000E+00 0. -1.
        -13    1    3    3    0    0 -0.25130737095E+02 -0.41803570598E+02  0.11184596429E+03  0.12201890095E+03  0.00000000000E+00 0.  1.
         13    1    3    3    0    0 -0.79731599317E+02  0.36915409132E+02  0.32626291896E+03  0.33788661951E+03  0.00000000000E+00 0. -1.
         -1    1    1    2    0  502  0.50514982340E+02 -0.81688901971E+02  0.10326850087E+03  0.14102915804E+03  0.00000000000E+00 0.  1.
<scales pt_clust_5="13000.00000" pt_clust_6="13000.00000" pt_clust_7="13000.00000" pt_clust_8="13000.00000" pt_clust_9="96.04603"></scales>
<clustering>
<clus scale="   89.067">  5  6 -1 -1</clus>
<clus scale="   92.486">  7  8 -1 -1</clus>
<clus scale="   96.046">  2  9  1 -1</clus>
<clus scale="  131.009">  2  5  1 -1</clus>
<clus scale="   96.046">  2  5  1 -1</clus>
</clustering>
</event>
<event>
 9    1  0.1321469E-005  0.9330952E+02  0.7546771E-02  0.1296114E+00
         21   -1    0    0  501  502  0.00000000000E+00  0.00000000000E+00  0.19775931282E+03  0.19775931282E+03  0.00000000000E+00 0. -1.
          4   -1    0    0  502    0 -0.00000000000E+00 -0.00000000000E+00 -0.26243339738E+03  0.26243339738E+03  0.00000000000E+00 0. -1.
         23    2    1    2    0    0  0.19575893413E+02 -0.65927235039E+01 -0.11827517480E+03  0.15185392349E+03  0.92972670709E+02 0.  0.
         23    2    1    2    0    0  0.15577497578E+02 -0.22678323795E+02 -0.10591639460E+03  0.14239185820E+03  0.91105399600E+02 0.  0.
        -11    1    4    4    0    0 -0.35059333327E+02  0.79928365844E+01 -0.39087794832E+02  0.53112126627E+02  0.00000000000E+00 0.  1.
         11    1    4    4    0    0  0.50636830906E+02 -0.30671160379E+02 -0.66828599767E+02  0.89279731574E+02  0.00000000000E+00 0. -1.
        -13    1    3    3    0    0  0.54024936266E+02  0.30465122636E+01 -0.94519164788E+02  0.10891210900E+03  0.00000000000E+00 0.  1.
         13    1    3    3    0    0 -0.34449042853E+02 -0.96392357674E+01 -0.23756010017E+02  0.42941814489E+02  0.00000000000E+00 0. -1.
          4    1    1    2  501    0 -0.35153390992E+02  0.29271047299E+02  0.15951748485E+03  0.16594692851E+03  0.00000000000E+00 0. -1.
<scales pt_clust_5="13000.00000" pt_clust_6="13000.00000" pt_clust_7="13000.00000" pt_clust_8="13000.00000" pt_clust_9="45.74445"></scales>
<clustering>
<clus scale="   45.744">  1  9  2 -1</clus>
<clus scale="   91.105">  5  6 -1 -1</clus>
<clus scale="   91.449">  1  5  2 -1</clus>
<clus scale="   92.973">  7  8 -1 -1</clus>
<clus scale="   45.744">  1  5  2 -1</clus>
</clustering>
</event>
<event>
 9    1  0.1321469E-005  0.9493390E+02  0.7546771E-02  0.1293352E+00
          2   -1    0    0  502    0 -0.00000000000E+00  0.00000000000E+00  0.97907076295E+03  0.97907076295E+03  0.00000000000E+00 0. -1.
         21   -1    0    0  501  502  0.00000000000E+00 -0.00000000000E+00 -0.30096986706E+02  0.30096986706E+02  0.00000000000E+00 0. -1.
         23    2    1    2    0    0 -0.11208959146E+02  0.78494566639E+01  0.53634920664E+03  0.54460502738E+03  0.93471437566E+02 0.  0.
         23    2    1    2    0    0 -0.13945100103E+02 -0.27852181381E+02  0.42078477496E+03  0.43140514932E+03  0.89890857130E+02 0.  0.
        -11    1    3    3    0    0  0.69385936888E+01  0.48919839421E+02  0.26526584323E+03  0.26982820897E+03  0.00000000000E+00 0.  1.
         11    1    3    3    0    0 -0.18147552835E+02 -0.41070382757E+02  0.27108336341E+03  0.27477681840E+03  0.00000000000E+00 0. -1.
        -13    1    4    4    0    0 -0.44172443330E+02  0.93836084004E+01  0.24847819838E+03  0.25254835562E+03  0.00000000000E+00 0.  1.
         13    1    4    4    0    0  0.30227343227E+02 -0.37235789782E+02  0.17230657658E+03  0.17885679370E+03  0.00000000000E+00 0. -1.
          2    1    1    2  501    0  0.25154059250E+02  0.20002724717E+02 -0.81602053638E+01  0.33157572957E+02  0.00000000000E+00 0. -1.
<scales pt_clust_5="13000.00000" pt_clust_6="13000.00000" pt_clust_7="13000.00000" pt_clust_8="13000.00000" pt_clust_9="32.13776"></scales>
<clustering>
<clus scale="   32.138">  2  9  1 -1</clus>
<clus scale="   89.891">  7  8 -1 -1</clus>
<clus scale="   91.411">  2  7  1 -1</clus>
<clus scale="   93.471">  5  6 -1 -1</clus>
<clus scale="   32.138">  2  5  1 -1</clus>
</clustering>
</event>
<event>
 9    1  0.1321469E-005  0.9085907E+02  0.7546771E-02  0.1301179E+00
          3   -1    0    0  502    0 -0.00000000000E+00  0.00000000000E+00  0.29763198286E+02  0.29763198286E+02  0.00000000000E+00 0. -1.
         21   -1    0    0  501  502  0.00000000000E+00 -0.00000000000E+00 -0.82207204646E+03  0.82207204646E+03  0.00000000000E+00 0.  1.
         23    2    1    2    0    0  0.16087621008E+02 -0.18762046622E+02 -0.99539281187E+02  0.13687632940E+03  0.90643450437E+02 0.  0.
         23    2    1    2    0    0  0.18120697988E+02 -0.31043757069E+02 -0.25062544593E+03  0.26870534287E+03  0.89985402081E+02 0.  0.
        -11    1    4    4    0    0 -0.18644768894E+02  0.21417830638E+02 -0.43917989364E+02  0.52298572314E+02  0.00000000000E+00 0. -1.
         11    1    4    4    0    0  0.36765466882E+02 -0.52461587708E+02 -0.20670745657E+03  0.21640677055E+03  0.00000000000E+00 0.  1.
        -13    1    3    3    0    0  0.27018293482E+02  0.27182251439E+02 -0.17317511589E+02  0.42056618784E+02  0.00000000000E+00 0. -1.
         13    1    3    3    0    0 -0.10930672474E+02 -0.45944298061E+02 -0.82221769598E+02  0.94819710614E+02  0.00000000000E+00 0.  1.
          3    1    1    2  501    0 -0.34208318996E+02  0.49805803692E+02 -0.44214412105E+03  0.44625357248E+03  0.00000000000E+00 0. -1.
<scales pt_clust_5="13000.00000" pt_clust_6="13000.00000" pt_clust_7="13000.00000" pt_clust_8="13000.00000" pt_clust_9="60.42208"></scales>
<clustering>
<clus scale="   60.422">  2  9  1 -1</clus>
<clus scale="   89.985">  5  6 -1 -1</clus>
<clus scale="   90.203">  2  5  1 -1</clus>
<clus scale="   90.643">  7  8 -1 -1</clus>
<clus scale="   60.422">  2  5  1 -1</clus>
</clustering>
</event>
<event>
 9    1  0.1503039E-005  0.1385495E+03  0.7546771E-02  0.1215487E+00
         21   -1    0    0  501  502  0.00000000000E+00  0.00000000000E+00  0.65065082113E+03  0.65065082113E+03  0.00000000000E+00 0. -1.
          2   -1    0    0  502    0 -0.00000000000E+00 -0.00000000000E+00 -0.29077873996E+03  0.29077873996E+03  0.00000000000E+00 0. -1.
         23    2    1    2    0    0 -0.99568843672E+02 -0.38580564887E+02 -0.26226963316E+03  0.29738639466E+03  0.90834424273E+02 0.  0.
         23    2    1    2    0    0  0.56334700107E+02  0.32295055895E+02  0.31847778135E+03  0.33725254893E+03  0.89970080977E+02 0.  0.
        -13    1    3    3    0    0 -0.67693293103E+01 -0.39064264984E+02 -0.12925416620E+03  0.13519792934E+03  0.00000000000E+00 0.  1.
         13    1    3    3    0    0 -0.92799514362E+02  0.48370009708E+00 -0.13301546696E+03  0.16218846532E+03  0.00000000000E+00 0. -1.
        -13    1    4    4    0    0 -0.39841382738E+01 -0.22686976483E+02  0.12752412835E+03  0.12958771381E+03  0.00000000000E+00 0. -1.
         13    1    4    4    0    0  0.60318838381E+02  0.54982032378E+02  0.19095365300E+03  0.20766483512E+03  0.00000000000E+00 0.  1.
          2    1    1    2  501    0  0.43234143565E+02  0.62855089924E+01  0.30366393298E+03  0.30679061750E+03  0.00000000000E+00 0. -1.
<scales pt_clust_5="13000.00000" pt_clust_6="13000.00000" pt_clust_7="13000.00000" pt_clust_8="13000.00000" pt_clust_9="43.68866"></scales>
<clustering>
<clus scale="   43.689">  1  9  2 -1</clus>
<clus scale="   89.970">  7  8 -1 -1</clus>
<clus scale="   90.834">  5  6 -1 -1</clus>
<clus scale="  137.984">  1  7  2 -1</clus>
<clus scale="   43.689">  1  5  2 -1</clus>
</clustering>
</event>
<event>
 9    1  0.1321469E-005  0.1041053E+03  0.7546771E-02  0.1272826E+00
         21   -1    0    0  501  502  0.00000000000E+00  0.00000000000E+00  0.78625358307E+02  0.78625358307E+02  0.00000000000E+00 0.  1.
          2   -1    0    0  502    0 -0.00000000000E+00 -0.00000000000E+00 -0.28548731653E+03  0.28548731653E+03  0.00000000000E+00 0. -1.
         23    2    1    2    0    0  0.44868316552E+02  0.63385260740E+01 -0.17053195286E+03  0.20080873482E+03  0.95862705418E+02 0.  0.
         23    2    1    2    0    0 -0.28697993621E+02 -0.20547428399E+02 -0.70746406514E+02  0.12271008682E+03  0.93845296746E+02 0.  0.
        -11    1    4    4    0    0 -0.29338353102E+02  0.16759029713E+01 -0.89137619722E+02  0.93856607989E+02  0.00000000000E+00 0. -1.
         11    1    4    4    0    0  0.64035948120E+00 -0.22223331370E+02  0.18391213208E+02  0.28853478832E+02  0.00000000000E+00 0.  1.
        -13    1    3    3    0    0 -0.19765572430E+01 -0.38774865715E+02 -0.84211127963E+02  0.92730313611E+02  0.00000000000E+00 0.  1.
         13    1    3    3    0    0  0.46844873796E+02  0.45113391789E+02 -0.86320824899E+02  0.10807842121E+03  0.00000000000E+00 0. -1.
          2    1    1    2  501    0 -0.16170322932E+02  0.14208902325E+02  0.34416401152E+02  0.40593853196E+02  0.00000000000E+00 0. -1.
<scales pt_clust_5="13000.00000" pt_clust_6="13000.00000" pt_clust_7="13000.00000" pt_clust_8="13000.00000" pt_clust_9="21.52608"></scales>
<clustering>
<clus scale="   21.526">  1  9  2 -1</clus>
<clus scale="   93.845">  5  6 -1 -1</clus>
<clus scale="   95.863">  7  8 -1 -1</clus>
<clus scale="  102.251">  1  5  2 -1</clus>
<clus scale="   21.526">  1  5  2 -1</clus>
</clustering>
</event>
<event>
 9    1  0.1321469E-005  0.1085607E+03  0.7546771E-02  0.1264561E+00
          1   -1    0    0  502    0 -0.00000000000E+00  0.00000000000E+00  0.65379240602E+03  0.65379240602E+03  0.00000000000E+00 0. -1.
         21   -1    0    0  501  502  0.00000000000E+00 -0.00000000000E+00 -0.32837622632E+02  0.32837622632E+02  0.00000000000E+00 0.  1.
         23    2    1    2    0    0 -0.29206422619E+02 -0.25898193325E+02  0.40870401621E+03  0.42213720119E+03  0.98168794530E+02 0.  0.
         23    2    1    2    0    0  0.66631152109E+02  0.20079040070E+02  0.17759742281E+03  0.21315738943E+03  0.95143837428E+02 0.  0.
        -11    1    3    3    0    0 -0.25011776494E+02  0.35042051983E+02  0.13495936489E+03  0.14166003156E+03  0.00000000000E+00 0.  1.
         11    1    3    3    0    0 -0.41946461251E+01 -0.60940245307E+02  0.27374465132E+03  0.28047716963E+03  0.00000000000E+00 0. -1.
        -11    1    4    4    0    0  0.41120518786E+02 -0.21199723002E+02  0.24084066180E+02  0.52157142985E+02  0.00000000000E+00 0.  1.
         11    1    4    4    0    0  0.25510633323E+02  0.41278763072E+02  0.15351335663E+03  0.16100024645E+03  0.00000000000E+00 0. -1.
          1    1    1    2  501    0 -0.37424729490E+02  0.58191532543E+01  0.34653344372E+02  0.51335438034E+02  0.00000000000E+00 0. -1.
<scales pt_clust_5="13000.00000" pt_clust_6="13000.00000" pt_clust_7="13000.00000" pt_clust_8="13000.00000" pt_clust_9="37.87444"></scales>
<clustering>
<clus scale="   37.874">  2  9  1 -1</clus>
<clus scale="   95.144">  7  8 -1 -1</clus>
<clus scale="   98.169">  5  6 -1 -1</clus>
<clus scale="  105.833">  2  7  1 -1</clus>
<clus scale="   37.874">  2  5  1 -1</clus>
</clustering>
</event>
<event>
 9    1  0.1321469E-005  0.9380685E+02  0.7546771E-02  0.1294359E+00
         -2   -1    0    0    0  501 -0.00000000000E+00  0.00000000000E+00  0.12333060111E+03  0.12333060111E+03  0.00000000000E+00 0.  1.
         21   -1    0    0  501  502  0.00000000000E+00 -0.00000000000E+00 -0.20979801553E+03  0.20979801553E+03  0.00000000000E+00 0. -1.
         23    2    1    2    0    0 -0.22463851681E+02  0.16223024323E+02  0.55021270254E+02  0.11101624450E+03  0.92355049735E+02 0.  0.
         23    2    1    2    0    0 -0.25821734006E+02  0.27930752943E+02 -0.11422543785E+03  0.15122980406E+03  0.91521112740E+02 0.  0.
        -13    1    4    4    0    0 -0.36819109392E+02 -0.25144388228E+02 -0.57658319651E+02  0.72885999346E+02  0.00000000000E+00 0.  1.
         13    1    4    4    0    0  0.10997375386E+02  0.53075141171E+02 -0.56567118195E+02  0.78343804711E+02  0.00000000000E+00 0. -1.
        -13    1    3    3    0    0  0.12599360055E+02 -0.25997625175E+02 -0.54005224780E+01  0.29390237011E+02  0.00000000000E+00 0.  1.
         13    1    3    3    0    0 -0.35063211737E+02  0.42220649498E+02  0.60421792732E+02  0.81626007487E+02  0.00000000000E+00 0. -1.
         -2    1    1    2    0  502  0.48285585687E+02 -0.44153777266E+02 -0.27263246828E+02  0.70882568094E+02  0.00000000000E+00 0.  1.
<scales pt_clust_5="13000.00000" pt_clust_6="13000.00000" pt_clust_7="13000.00000" pt_clust_8="13000.00000" pt_clust_9="65.42976"></scales>
<clustering>
<clus scale="   65.430">  2  9  1 -1</clus>
<clus scale="   91.521">  5  6 -1 -1</clus>
<clus scale="   92.355">  7  8 -1 -1</clus>
<clus scale="   92.986">  2  5  1 -1</clus>
<clus scale="   65.430">  2  5  1 -1</clus>
</clustering>
</event>
<event>
 9    1  0.1321469E-005  0.9605263E+02  0.7546771E-02  0.1289843E+00
         -1   -1    0    0    0  501 -0.00000000000E+00  0.00000000000E+00  0.10176668062E+03  0.10176668062E+03  0.00000000000E+00 0.  1.
         21   -1    0    0  501  502  0.00000000000E+00 -0.00000000000E+00 -0.26272951282E+03  0.26272951282E+03  0.00000000000E+00 0.  1.
         23    2    1    2    0    0  0.24982891915E+02  0.76228988454E+01  0.44688842148E+01  0.96081905109E+02  0.92355336002E+02 0.  0.
         23    2    1    2    0    0 -0.22519591891E+02  0.31941881567E+02 -0.25018069244E+00  0.98542632544E+02  0.90460886694E+02 0.  0.
        -11    1    3    3    0    0  0.32861988696E+02  0.36347087822E+02  0.29483066425E+02  0.57186294687E+02  0.00000000000E+00 0.  1.
         11    1    3    3    0    0 -0.78790967814E+01 -0.28724188977E+02 -0.25014182210E+02  0.38895610422E+02  0.00000000000E+00 0. -1.
        -11    1    4    4    0    0 -0.51862282340E+02  0.26340675940E+02  0.21043610928E+02  0.61857587242E+02  0.00000000000E+00 0.  1.
         11    1    4    4    0    0  0.29342690449E+02  0.56012056275E+01 -0.21293791620E+02  0.36685045303E+02  0.00000000000E+00 0. -1.
         -1    1    1    2    0  502 -0.24633000244E+01 -0.39564780413E+02 -0.16518153572E+03  0.16987165579E+03  0.00000000000E+00 0.  1.
<scales pt_clust_5="13000.00000" pt_clust_6="13000.00000" pt_clust_7="13000.00000" pt_clust_8="13000.00000" pt_clust_9="39.64139"></scales>
<clustering>
<clus scale="   39.641">  2  9  1 -1</clus>
<clus scale="   90.461">  7  8 -1 -1</clus>
<clus scale="   92.355">  5  6 -1 -1</clus>
<clus scale="   94.233">  2  7  1 -1</clus>
<clus scale="   39.641">  2  5  1 -1</clus>
</clustering>
</event>
<event>
 9    1  0.1321469E-005  0.1389634E+03  0.7546771E-02  0.1216551E+00
         -1   -1    0    0    0  501 -0.00000000000E+00  0.00000000000E+00  0.54254828432E+03  0.54254828432E+03  0.00000000000E+00 0.  1.
         21   -1    0    0  501  502  0.00000000000E+00 -0.00000000000E+00 -0.68109346502E+02  0.68109346502E+02  0.00000000000E+00 0. -1.
         23    2    1    2    0    0  0.11969686316E+03 -0.21326519296E+02  0.37073721862E+03  0.39879043018E+03  0.82495832988E+02 0.  0.
         23    2    1    2    0    0 -0.72054574217E+02 -0.22878926228E+02  0.80125648501E+02  0.14273153532E+03  0.90757174345E+02 0.  0.
        -11    1    4    4    0    0 -0.79096488646E+02  0.63086476615E+01  0.80041702113E+02  0.11270637794E+03  0.00000000000E+00 0. -1.
         11    1    4    4    0    0  0.70419144289E+01 -0.29187573890E+02  0.83946387764E-01  0.30025157375E+02  0.00000000000E+00 0.  1.
        -13    1    3    3    0    0  0.10912012156E+03 -0.43534607825E+02  0.25934188243E+03  0.28471156455E+03  0.00000000000E+00 0. -1.
         13    1    3    3    0    0  0.10576741604E+02  0.22208088529E+02  0.11139533619E+03  0.11407886563E+03  0.00000000000E+00 0.  1.
         -1    1    1    2    0  502 -0.47642288946E+02  0.44205445524E+02  0.23576070700E+02  0.69135665323E+02  0.00000000000E+00 0.  1.
<scales pt_clust_5="13000.00000" pt_clust_6="13000.00000" pt_clust_7="13000.00000" pt_clust_8="13000.00000" pt_clust_9="64.99161"></scales>
<clustering>
<clus scale="   64.992">  2  9  1 -1</clus>
<clus scale="   82.496">  7  8 -1 -1</clus>
<clus scale="   90.757">  5  6 -1 -1</clus>
<clus scale="  133.714">  1  7  2 -1</clus>
<clus scale="   64.992">  2  5  1 -1</clus>
</clustering>
</event>
<event>
 9    1  0.1321469E-005  0.2818226E+03  0.7546771E-02  0.1124438E+00
         21   -1    0    0  501  502  0.00000000000E+00  0.00000000000E+00  0.32929552630E+03  0.32929552630E+03  0.00000000000E+00 0.  1.
         -1   -1    0    0    0  501 -0.00000000000E+00 -0.00000000000E+00 -0.17083325941E+04  0.17083325941E+04  0.00000000000E+00 0.  1.
         23    2    1    2    0    0 -0.82475364350E+02  0.49524060082E+02 -0.58492335057E+03  0.59963796877E+03  0.90418744130E+02 0.  0.
         23    2    1    2    0    0  0.98022690045E+02 -0.31204522640E+03 -0.10299985334E+04  0.10847186858E+04  0.93471800332E+02 0.  0.
        -11    1    4    4    0    0  0.28217991715E+02 -0.16322807575E+02 -0.15714151297E+03  0.16048720884E+03  0.00000000000E+00 0. -1.
         11    1    4    4    0    0  0.69804698330E+02 -0.29572241882E+03 -0.87285702044E+03  0.92423147698E+03  0.00000000000E+00 0.  1.
        -13    1    3    3    0    0 -0.63529760297E+02  0.73448194034E+02 -0.50131436116E+03  0.51063368118E+03  0.00000000000E+00 0.  1.
         13    1    3    3    0    0 -0.18945604053E+02 -0.23924133952E+02 -0.83608989416E+02  0.89004287590E+02  0.00000000000E+00 0. -1.
         -1    1    1    2    0  502 -0.15547325695E+02  0.26252116631E+03  0.23588481614E+03  0.35327146585E+03  0.00000000000E+00 0.  1.
<scales pt_clust_5="13000.00000" pt_clust_6="13000.00000" pt_clust_7="13000.00000" pt_clust_8="13000.00000" pt_clust_9="265.87029"></scales>
<clustering>
<clus scale="   90.419">  7  8 -1 -1</clus>
<clus scale="   93.472">  5  6 -1 -1</clus>
<clus scale="  132.024">  2  7  1 -1</clus>
<clus scale="  265.870">  1  9  2 -1</clus>
<clus scale="  265.870">  1  5  2 -1</clus>
</clustering>
</event>
<event>
 9    1  0.1321469E-005  0.3807463E+03  0.7546771E-02  0.1050722E+00
          1   -1    0    0  502    0 -0.00000000000E+00  0.00000000000E+00  0.25711587544E+03  0.25711587544E+03  0.00000000000E+00 0. -1.
         21   -1    0    0  501  502  0.00000000000E+00 -0.00000000000E+00 -0.13303582226E+04  0.13303582226E+04  0.00000000000E+00 0.  1.
         23    2    1    2    0    0  0.19905801274E+03 -0.32555545090E+03 -0.42822350686E+02  0.39522583125E+03  0.93590917981E+02 0.  0.
         23    2    1    2    0    0 -0.32268715569E+02  0.36291563862E+03 -0.44889331469E+03  0.58612308590E+03  0.96364065371E+02 0.  0.
        -11    1    3    3    0    0  0.57501517599E+02 -0.31444826881E+02 -0.17541254258E+02  0.67844655387E+02  0.00000000000E+00 0.  1.
         11    1    3    3    0    0  0.14155649514E+03 -0.29411062402E+03 -0.25281096429E+02  0.32738117587E+03  0.00000000000E+00 0. -1.
        -11    1    4    4    0    0 -0.24246659922E+00  0.33253503809E+03 -0.39001395101E+03  0.51253340606E+03  0.00000000000E+00 0.  1.
         11    1    4    4    0    0 -0.32026248970E+02  0.30380600532E+02 -0.58879363681E+02  0.73589679842E+02  0.00000000000E+00 0. -1.
          1    1    1    2  501    0 -0.16678929717E+03 -0.37360187722E+02 -0.58152668179E+03  0.60612518089E+03  0.00000000000E+00 0. -1.
<scales pt_clust_5="13000.00000" pt_clust_6="13000.00000" pt_clust_7="13000.00000" pt_clust_8="13000.00000" pt_clust_9="170.92236"></scales>
<clustering>
<clus scale="   93.591">  5  6 -1 -1</clus>
<clus scale="   96.364">  7  8 -1 -1</clus>
<clus scale="  170.922">  2  9  1 -1</clus>
<clus scale="  380.054">  1  5  2 -1</clus>
<clus scale="  170.922">  2  5  1 -1</clus>
</clustering>
</event>
<event>
 9    1  0.1321469E-005  0.1067175E+03  0.7546771E-02  0.1267256E+00
         21   -1    0    0  501  502  0.00000000000E+00  0.00000000000E+00  0.39739607809E+02  0.39739607809E+02  0.00000000000E+00 0. -1.
          2   -1    0    0  502    0 -0.00000000000E+00 -0.00000000000E+00 -0.49728414627E+03  0.49728414627E+03  0.00000000000E+00 0. -1.
         23    2    1    2    0    0  0.19379210460E+02  0.72950300778E+02 -0.27244180797E+03  0.29683294465E+03  0.90487336797E+02 0.  0.
         23    2    1    2    0    0  0.14363147902E+02 -0.28115246983E+02 -0.11870759598E+03  0.15325955680E+03  0.91652775603E+02 0.  0.
        -11    1    3    3    0    0  0.52614764943E+02  0.30748779564E+02 -0.11017821355E+03  0.12590885464E+03  0.00000000000E+00 0. -1.
         11    1    3    3    0    0 -0.33235554483E+02  0.42201521214E+02 -0.16226359442E+03  0.17092409002E+03  0.00000000000E+00 0.  1.
        -11    1    4    4    0    0 -0.23434806493E+02  0.54174351681E+01 -0.93972034994E+02  0.97001454216E+02  0.00000000000E+00 0.  1.
         11    1    4    4    0    0  0.37797954395E+02 -0.33532682151E+02 -0.24735560985E+02  0.56258102580E+02  0.00000000000E+00 0. -1.
          2    1    1    2  501    0 -0.33742358361E+02 -0.44835053796E+02 -0.66395134511E+02  0.86931252627E+02  0.00000000000E+00 0. -1.
<scales pt_clust_5="13000.00000" pt_clust_6="13000.00000" pt_clust_7="13000.00000" pt_clust_8="13000.00000" pt_clust_9="56.11353"></scales>
<clustering>
<clus scale="   56.114">  1  9  2 -1</clus>
<clus scale="   90.487">  5  6 -1 -1</clus>
<clus scale="   91.653">  7  8 -1 -1</clus>
<clus scale="  105.718">  2  5  1 -1</clus>
<clus scale="   56.114">  1  5  2 -1</clus>
</clustering>
</event>
<event>
 9    1  0.1321469E-005  0.1859199E+03  0.7546771E-02  0.1162689E+00
          1   -1    0    0  502    0 -0.00000000000E+00  0.00000000000E+00  0.60812018250E+03  0.60812018250E+03  0.00000000000E+00 0. -1.
         21   -1    0    0  501  502  0.00000000000E+00 -0.00000000000E+00 -0.16824669886E+03  0.16824669886E+03  0.00000000000E+00 0. -1.
         23    2    1    2    0    0 -0.17861583692E+02 -0.16739780055E+03  0.52132395194E+03  0.55555431830E+03  0.92308601546E+02 0.  0.
         23    2    1    2    0    0  0.19656421677E+02  0.12139281047E+03 -0.34547035065E+02  0.15508880323E+03  0.87957091300E+02 0.  0.
        -11    1    4    4    0    0  0.44301636259E+02  0.48865565395E+02 -0.41892171749E+02  0.78137267104E+02  0.00000000000E+00 0.  1.
         11    1    4    4    0    0 -0.24645214582E+02  0.72527245074E+02  0.73451366838E+01  0.76951536130E+02  0.00000000000E+00 0. -1.
        -13    1    3    3    0    0  0.34908920874E+01 -0.10099288040E+03  0.42361858884E+03  0.43550483009E+03  0.00000000000E+00 0. -1.
         13    1    3    3    0    0 -0.21352475779E+02 -0.66404920158E+02  0.97705363100E+02  0.12004948822E+03  0.00000000000E+00 0.  1.
          1    1    1    2  501    0 -0.17948379856E+01  0.46004990085E+02 -0.46903433235E+02  0.65723759823E+02  0.00000000000E+00 0. -1.
<scales pt_clust_5="13000.00000" pt_clust_6="13000.00000" pt_clust_7="13000.00000" pt_clust_8="13000.00000" pt_clust_9="46.03999"></scales>
<clustering>
<clus scale="   46.040">  2  9  1 -1</clus>
<clus scale="   87.957">  5  6 -1 -1</clus>
<clus scale="   92.309">  7  8 -1 -1</clus>
<clus scale="  183.798">  2  5  1 -1</clus>
<clus scale="   46.040">  2  5  1 -1</clus>
</clustering>
</event>
<event>
 9    1  0.1321469E-005  0.9724358E+02  0.7546771E-02  0.1287507E+00
         21   -1    0    0  501  502  0.00000000000E+00  0.00000000000E+00  0.39681625991E+02  0.39681625991E+02  0.00000000000E+00 0. -1.
          4   -1    0    0  502    0 -0.00000000000E+00 -0.00000000000E+00 -0.44941709247E+03  0.44941709247E+03  0.00000000000E+00 0. -1.
         23    2    1    2    0    0 -0.11508431317E+02  0.10974513158E+02 -0.15869800839E+03  0.18247388995E+03  0.88649753059E+02 0.  0.
         23    2    1    2    0    0 -0.13563754262E+02 -0.67393367625E+02 -0.16875099616E+03  0.20375226926E+03  0.91171525680E+02 0.  0.
        -13    1    4    4    0    0 -0.49371010490E+02 -0.57350463743E+02 -0.97935082839E+02  0.12376531347E+03  0.00000000000E+00 0.  1.
         13    1    4    4    0    0  0.35807256228E+02 -0.10042903882E+02 -0.70815913317E+02  0.79986955786E+02  0.00000000000E+00 0. -1.
        -13    1    3    3    0    0  0.65602185783E+01 -0.20114423370E+02 -0.14940472908E+01  0.21209872055E+02  0.00000000000E+00 0. -1.
         13    1    3    3    0    0 -0.18068649895E+02  0.31088936528E+02 -0.15720396110E+03  0.16126401790E+03  0.00000000000E+00 0.  1.
          4    1    1    2  501    0  0.25072185578E+02  0.56418854467E+02 -0.82286461938E+02  0.10287255925E+03  0.00000000000E+00 0. -1.
<scales pt_clust_5="13000.00000" pt_clust_6="13000.00000" pt_clust_7="13000.00000" pt_clust_8="13000.00000" pt_clust_9="61.73898"></scales>
<clustering>
<clus scale="   61.739">  1  9  2 -1</clus>
<clus scale="   88.650">  7  8 -1 -1</clus>
<clus scale="   91.172">  5  6 -1 -1</clus>
<clus scale="   94.883">  2  7  1 -1</clus>
<clus scale="   61.739">  1  5  2 -1</clus>
</clustering>
</event>
<event>
 9    1  0.1321469E-005  0.9297818E+02  0.7546771E-02  0.1296151E+00
         21   -1    0    0  501  502  0.00000000000E+00  0.00000000000E+00  0.55038358129E+03  0.55038358129E+03  0.00000000000E+00 0.  1.
         -2   -1    0    0    0  501 -0.00000000000E+00 -0.00000000000E+00 -0.82171127197E+02  0.82171127197E+02  0.00000000000E+00 0.  1.
         23    2    1    2    0    0  0.20972875984E+02 -0.79986065205E+01 -0.33855444048E+01  0.95271969019E+02  0.92528087284E+02 0.  0.
         23    2    1    2    0    0  0.45378840595E+02  0.10801097943E+02  0.57769258245E+02  0.11815909362E+03  0.91915076651E+02 0.  0.
        -11    1    3    3    0    0 -0.88902644683E+01  0.37762748122E+02 -0.10439245128E+02  0.40175114024E+02  0.00000000000E+00 0. -1.
         11    1    3    3    0    0  0.29863140453E+02 -0.45761354642E+02  0.70537007229E+01  0.55096854995E+02  0.00000000000E+00 0.  1.
        -13    1    4    4    0    0  0.95224229780E+01  0.32397994681E+02  0.67239779056E+02  0.75242903229E+02  0.00000000000E+00 0. -1.
         13    1    4    4    0    0  0.35856417617E+02 -0.21596896738E+02 -0.94705208114E+01  0.42916190389E+02  0.00000000000E+00 0.  1.
         -2    1    1    2    0  502 -0.66351716579E+02 -0.28024914227E+01  0.41382874025E+03  0.41912364585E+03  0.00000000000E+00 0.  1.
<scales pt_clust_5="13000.00000" pt_clust_6="13000.00000" pt_clust_7="13000.00000" pt_clust_8="13000.00000" pt_clust_9="66.41087"></scales>
<clustering>
<clus scale="   66.411">  1  9  2 -1</clus>
<clus scale="   91.915">  7  8 -1 -1</clus>
<clus scale="   92.368">  1  7  2 -1</clus>
<clus scale="   92.528">  5  6 -1 -1</clus>
<clus scale="   66.411">  1  5  2 -1</clus>
</clustering>
</event>
<event>
 9    1  0.1321469E-005  0.1616999E+03  0.7546771E-02  0.1206350E+00
          1   -1    0    0  502    0 -0.00000000000E+00  0.00000000000E+00  0.74798264036E+03  0.74798264036E+03  0.00000000000E+00 0. -1.
         21   -1    0    0  501  502  0.00000000000E+00 -0.00000000000E+00 -0.97405907397E+02  0.97405907397E+02  0.00000000000E+00 0. -1.
         23    2    1    2    0    0 -0.42083860092E+02  0.43951633201E+02  0.29864175604E+03  0.31671802948E+03  0.86142988168E+02 0.  0.
         23    2    1    2    0    0  0.25086991881E+02 -0.17236569702E+03  0.34804528909E+03  0.39907809956E+03  0.88252567207E+02 0.  0.
        -11    1    4    4    0    0  0.19992122681E+02 -0.45891749688E+02  0.19058927096E+03  0.19705331224E+03  0.00000000000E+00 0.  1.
         11    1    4    4    0    0  0.50948692002E+01 -0.12647394734E+03  0.15745601812E+03  0.20202478731E+03  0.00000000000E+00 0. -1.
        -11    1    3    3    0    0 -0.46938948633E+01  0.60495000333E+02  0.21823400169E+03  0.22651215686E+03  0.00000000000E+00 0.  1.
         11    1    3    3    0    0 -0.37389965229E+02 -0.16543367132E+02  0.80407754347E+02  0.90205872619E+02  0.00000000000E+00 0. -1.
          1    1    1    2  501    0  0.16996868211E+02  0.12841406382E+03  0.38896878385E+01  0.12959241871E+03  0.00000000000E+00 0. -1.
<scales pt_clust_5="13000.00000" pt_clust_6="13000.00000" pt_clust_7="13000.00000" pt_clust_8="13000.00000" pt_clust_9="135.49292"></scales>
<clustering>
<clus scale="   86.143">  7  8 -1 -1</clus>
<clus scale="   88.253">  5  6 -1 -1</clus>
<clus scale="  105.468">  1  7  2 -1</clus>
<clus scale="  135.493">  2  9  1 -1</clus>
<clus scale="  135.493">  2  5  1 -1</clus>
</clustering>
</event>
<event>
 9    1  0.1321469E-005  0.1092004E+03  0.7546771E-02  0.1262470E+00
          2   -1    0    0  502    0 -0.00000000000E+00  0.00000000000E+00  0.39642513309E+03  0.39642513309E+03  0.00000000000E+00 0. -1.
         21   -1    0    0  501  502  0.00000000000E+00 -0.00000000000E+00 -0.40779006150E+02  0.40779006150E+02  0.00000000000E+00 0.  1.
         23    2    1    2    0    0  0.19333115912E+02  0.52663647976E+02  0.18990199520E+03  0.21799389289E+03  0.91166552889E+02 0.  0.
         23    2    1    2    0    0  0.60255697839E+01 -0.64977221737E+02  0.14686227047E+03  0.18528073524E+03  0.92206710867E+02 0.  0.
        -13    1    3    3    0    0  0.55189609326E+02  0.23620393529E+02  0.93421871485E+02  0.11104711631E+03  0.00000000000E+00 0.  1.
         13    1    3    3    0    0 -0.35856493414E+02  0.29043254447E+02  0.96480123719E+02  0.10694677658E+03  0.00000000000E+00 0. -1.
        -13    1    4    4    0    0  0.35561409891E+02 -0.20482495816E+02  0.11722928499E+03  0.12420487820E+03  0.00000000000E+00 0.  1.
         13    1    4    4    0    0 -0.29535840107E+02 -0.44494725921E+02  0.29632985478E+02  0.61075857046E+02  0.00000000000E+00 0. -1.
          2    1    1    2  501    0 -0.25358685696E+02  0.12313573761E+02  0.18881861265E+02  0.33929511106E+02  0.00000000000E+00 0. -1.
<scales pt_clust_5="13000.00000" pt_clust_6="13000.00000" pt_clust_7="13000.00000" pt_clust_8="13000.00000" pt_clust_9="28.19019"></scales>
<clustering>
<clus scale="   28.190">  2  9  1 -1</clus>
<clus scale="   91.167">  5  6 -1 -1</clus>
<clus scale="   92.207">  7  8 -1 -1</clus>
<clus scale="  108.324">  1  5  2 -1</clus>
<clus scale="   28.190">  2  5  1 -1</clus>
</clustering>
</event>
<event>
 9    1  0.1321469E-005  0.9930404E+02  0.7546771E-02  0.1282809E+00
         21   -1    0    0  501  502  0.00000000000E+00  0.00000000000E+00  0.83597521510E+02  0.83597521510E+02  0.00000000000E+00 0.  1.
          3   -1    0    0  502    0 -0.00000000000E+00 -0.00000000000E+00 -0.37108776454E+03  0.37108776454E+03  0.00000000000E+00 0. -1.
         23    2    1    2    0    0 -0.52713493773E+02  0.19189490159E+02 -0.25670515957E+03  0.27754344182E+03  0.89363718544E+02 0.  0.
         23    2    1    2    0    0 -0.18586563135E+02 -0.13842051930E+02 -0.44508443902E+02  0.10433646097E+03  0.91476952166E+02 0.  0.
        -11    1    3    3    0    0 -0.31181662907E+02  0.54454208739E+02 -0.17646752764E+03  0.18729213882E+03  0.00000000000E+00 0. -1.
         11    1    3    3    0    0 -0.21531830866E+02 -0.35264718580E+02 -0.80237631921E+02  0.90251303001E+02  0.00000000000E+00 0.  1.
        -11    1    4    4    0    0 -0.40240318264E+02 -0.42212873227E+02 -0.31970399834E+02  0.66508017153E+02  0.00000000000E+00 0.  1.
         11    1    4    4    0    0  0.21653755129E+02  0.28370821297E+02 -0.12538044068E+02  0.37828443813E+02  0.00000000000E+00 0. -1.
          3    1    1    2  501    0  0.71300056908E+02 -0.53474382289E+01  0.13723360435E+02  0.72805383265E+02  0.00000000000E+00 0. -1.
<scales pt_clust_5="13000.00000" pt_clust_6="13000.00000" pt_clust_7="13000.00000" pt_clust_8="13000.00000" pt_clust_9="71.50030"></scales>
<clustering>
<clus scale="   71.500">  1  9  2 -1</clus>
<clus scale="   89.364">  5  6 -1 -1</clus>
<clus scale="   91.477">  7  8 -1 -1</clus>
<clus scale="   97.361">  2  5  1 -1</clus>
<clus scale="   71.500">  1  5  2 -1</clus>
</clustering>
</event>
<event>
 9    1  0.1321469E-005  0.1047312E+03  0.7546771E-02  0.1273652E+00
          1   -1    0    0  502    0 -0.00000000000E+00  0.00000000000E+00  0.19362087060E+03  0.19362087060E+03  0.00000000000E+00 0. -1.
         21   -1    0    0  501  502  0.00000000000E+00 -0.00000000000E+00 -0.24666969079E+03  0.24666969079E+03  0.00000000000E+00 0. -1.
         23    2    1    2    0    0  0.17933779473E+02  0.60337246205E+02  0.10223327401E+03  0.14646710704E+03  0.83897362327E+02 0.  0.
         23    2    1    2    0    0  0.31140556349E+02 -0.37425790736E+02  0.24663109066E+02  0.10590458513E+03  0.90758405345E+02 0.  0.
        -13    1    4    4    0    0 -0.28360900907E+02 -0.33700482953E+01 -0.84281729679E+01  0.29778046030E+02  0.00000000000E+00 0.  1.
         13    1    4    4    0    0  0.59501457256E+02 -0.34055742441E+02  0.33091282034E+02  0.76126539101E+02  0.00000000000E+00 0. -1.
        -13    1    3    3    0    0  0.14483712153E+02  0.80236308582E+02  0.65645896273E+02  0.10467581779E+03  0.00000000000E+00 0.  1.
         13    1    3    3    0    0  0.34500673201E+01 -0.19899062376E+02  0.36587377733E+02  0.41791289252E+02  0.00000000000E+00 0. -1.
          1    1    1    2  501    0 -0.49074335822E+02 -0.22911455469E+02 -0.17994520326E+03  0.18791886921E+03  0.00000000000E+00 0. -1.
<scales pt_clust_5="13000.00000" pt_clust_6="13000.00000" pt_clust_7="13000.00000" pt_clust_8="13000.00000" pt_clust_9="54.15926"></scales>
<clustering>
<clus scale="   54.159">  2  9  1 -1</clus>
<clus scale="   83.897">  7  8 -1 -1</clus>
<clus scale="   90.758">  5  6 -1 -1</clus>
<clus scale="   98.845">  1  7  2 -1</clus>
<clus scale="   54.159">  2  5  1 -1</clus>
</clustering>
</event>
<event>
 9    1  0.1321469E-005  0.1051617E+03  0.7546771E-02  0.1274738E+00
          1   -1    0    0  502    0 -0.00000000000E+00  0.00000000000E+00  0.11633594986E+03  0.11633594986E+03  0.00000000000E+00 0. -1.
         21   -1    0    0  501  502  0.00000000000E+00 -0.00000000000E+00 -0.18823164444E+03  0.18823164444E+03  0.00000000000E+00 0.  1.
         23    2    1    2    0    0  0.36947546262E+02 -0.43894617285E+01  0.62635842967E+02  0.12187566051E+03  0.97703834377E+02 0.  0.
         23    2    1    2    0    0 -0.42205699790E+02  0.26729418298E+02 -0.10810861476E+03  0.14769346686E+03  0.87350470355E+02 0.  0.
        -13    1    3    3    0    0  0.68510258145E+01  0.21009323071E+02  0.76883408979E+02  0.79996167326E+02  0.00000000000E+00 0. -1.
         13    1    3    3    0    0  0.30096520447E+02 -0.25398784800E+02 -0.14247566011E+02  0.41879493187E+02  0.00000000000E+00 0.  1.
        -13    1    4    4    0    0 -0.52790038349E+02  0.50038317412E+02 -0.92642245792E+02  0.11778457906E+03  0.00000000000E+00 0.  1.
         13    1    4    4    0    0  0.10584338559E+02 -0.23308899114E+02 -0.15466368963E+02  0.29908887802E+02  0.00000000000E+00 0. -1.
          1    1    1    2  501    0  0.52581535286E+01 -0.22339956570E+02 -0.26422922800E+02  0.34998466929E+02  0.00000000000E+00 0. -1.
<scales pt_clust_5="13000.00000" pt_clust_6="13000.00000" pt_clust_7="13000.00000" pt_clust_8="13000.00000" pt_clust_9="22.95042"></scales>
<clustering>
<clus scale="   22.950">  2  9  1 -1</clus>
<clus scale="   87.350">  7  8 -1 -1</clus>
<clus scale="   95.619">  2  7  1 -1</clus>
<clus scale="   97.704">  5  6 -1 -1</clus>
<clus scale="   22.950">  2  5  1 -1</clus>
</clustering>
</event>
<event>
 9    1  0.1321469E-005  0.1649439E+03  0.7546771E-02  0.1183597E+00
         21   -1    0    0  501  502  0.00000000000E+00  0.00000000000E+00  0.41226021586E+03  0.41226021586E+03  0.00000000000E+00 0.  1.
          1   -1    0    0  502    0 -0.00000000000E+00 -0.00000000000E+00 -0.11539545565E+03  0.11539545565E+03  0.00000000000E+00 0. -1.
         23    2    1    2    0    0  0.14124416308E+03 -0.23259226015E+02  0.32615377774E+02  0.17220870549E+03  0.90006500759E+02 0.  0.
         23    2    1    2    0    0 -0.11493285243E+03  0.63991176177E+02  0.11276562796E+03  0.19639130059E+03  0.92460937171E+02 0.  0.
        -11    1    3    3    0    0  0.58972833308E+02 -0.26573222061E+02 -0.27473685178E+02  0.70276130914E+02  0.00000000000E+00 0. -1.
         11    1    3    3    0    0  0.82271329776E+02  0.33139960455E+01  0.60089062952E+02  0.10193257457E+03  0.00000000000E+00 0.  1.
        -13    1    4    4    0    0 -0.28324553611E+02 -0.23286841441E+02  0.36299135947E+02  0.51596362198E+02  0.00000000000E+00 0. -1.
         13    1    4    4    0    0 -0.86608298819E+02  0.87278017617E+02  0.76466492012E+02  0.14479493839E+03  0.00000000000E+00 0.  1.
          1    1    1    2  501    0 -0.26311310653E+02 -0.40731950162E+02  0.15148375448E+03  0.15905566543E+03  0.00000000000E+00 0. -1.
<scales pt_clust_5="13000.00000" pt_clust_6="13000.00000" pt_clust_7="13000.00000" pt_clust_8="13000.00000" pt_clust_9="48.49100"></scales>
<clustering>
<clus scale="   48.491">  1  9  2 -1</clus>
<clus scale="   90.007">  5  6 -1 -1</clus>
<clus scale="   92.461">  7  8 -1 -1</clus>
<clus scale="  163.581">  2  5  1 -1</clus>
<clus scale="   48.491">  1  5  2 -1</clus>
</clustering>
</event>
<event>
 9    1  0.1321469E-005  0.1142827E+03  0.7546771E-02  0.1253153E+00
         21   -1    0    0  501  502  0.00000000000E+00  0.00000000000E+00  0.92021248343E+02  0.92021248343E+02  0.00000000000E+00 0. -1.
         -4   -1    0    0    0  501 -0.00000000000E+00 -0.00000000000E+00 -0.21956610752E+03  0.21956610752E+03  0.00000000000E+00 0.  1.
         23    2    1    2    0    0 -0.22717344687E+02 -0.57420974552E+02 -0.91828853440E+02  0.14367606647E+03  0.91635297145E+02 0.  0.
         23    2    1    2    0    0  0.58824341662E+02  0.58543786656E+02 -0.12371252978E+02  0.12490020456E+03  0.92516674556E+02 0.  0.
        -11    1    4    4    0    0  0.72850680414E+02  0.73195207717E+02 -0.52511869177E+01  0.10340374768E+03  0.00000000000E+00 0. -1.
         11    1    4    4    0    0 -0.14026338752E+02 -0.14651421060E+02 -0.71200660603E+01  0.21496456884E+02  0.00000000000E+00 0.  1.
        -11    1    3    3    0    0  0.35079215922E+01 -0.24018560050E+02 -0.97821282961E+02  0.10078789680E+03  0.00000000000E+00 0. -1.
         11    1    3    3    0    0 -0.26225266279E+02 -0.33402414502E+02  0.59924295205E+01  0.42888169669E+02  0.00000000000E+00 0.  1.
         -4    1    1    2    0  502 -0.36106996975E+02 -0.11228121042E+01 -0.23344752760E+02  0.43011084838E+02  0.00000000000E+00 0.  1.
<scales pt_clust_5="13000.00000" pt_clust_6="13000.00000" pt_clust_7="13000.00000" pt_clust_8="13000.00000" pt_clust_9="36.12447"></scales>
<clustering>
<clus scale="   36.124">  1  9  2 -1</clus>
<clus scale="   91.635">  7  8 -1 -1</clus>
<clus scale="   92.517">  5  6 -1 -1</clus>
<clus scale="  113.570">  2  7  1 -1</clus>
<clus scale="   36.124">  1  5  2 -1</clus>
</clustering>
</event>
<event>
 9    1  0.1321469E-005  0.9845479E+02  0.7546771E-02  0.1285159E+00
          2   -1    0    0  502    0 -0.00000000000E+00  0.00000000000E+00  0.26457442131E+03  0.26457442131E+03  0.00000000000E+00 0. -1.
         21   -1    0    0  501  502  0.00000000000E+00 -0.00000000000E+00 -0.88452161833E+02  0.88452161833E+02  0.00000000000E+00 0. -1.
         23    2    1    2    0    0  0.31774994905E+02 -0.30995149271E+01  0.15419399666E+03  0.18268238532E+03  0.92616456456E+02 0.  0.
         23    2    1    2    0    0 -0.32863007368E+02 -0.55095819711E+02  0.76275290339E+01  0.11040763360E+03  0.89532897608E+02 0.  0.
        -11    1    3    3    0    0  0.29298713804E+02  0.40926275728E+02  0.57556625031E+02  0.76460053364E+02  0.00000000000E+00 0. -1.
         11    1    3    3    0    0  0.24762811004E+01 -0.44025790655E+02  0.96637371627E+02  0.10622233195E+03  0.00000000000E+00 0.  1.
        -11    1    4    4    0    0 -0.43275983549E+02  0.97116742713E+01  0.59298859848E+01  0.44746965451E+02  0.00000000000E+00 0.  1.
         11    1    4    4    0    0  0.10412976181E+02 -0.64807493982E+02  0.16976430490E+01  0.65660668144E+02  0.00000000000E+00 0. -1.
          2    1    1    2  501    0  0.10880124632E+01  0.58195334638E+02  0.14300733785E+02  0.59936564229E+02  0.00000000000E+00 0. -1.
<scales pt_clust_5="13000.00000" pt_clust_6="13000.00000" pt_clust_7="13000.00000" pt_clust_8="13000.00000" pt_clust_9="58.20550"></scales>
<clustering>
<clus scale="   58.206">  2  9  1 -1</clus>
<clus scale="   89.533">  7  8 -1 -1</clus>
<clus scale="   92.616">  5  6 -1 -1</clus>
<clus scale="   95.560">  2  7  1 -1</clus>
<clus scale="   58.206">  2  5  1 -1</clus>
</clustering>
</event>
<event>
 9    1  0.1321469E-005  0.1113191E+03  0.7546771E-02  0.1258376E+00
         21   -1    0    0  501  502  0.00000000000E+00  0.00000000000E+00  0.37284580377E+03  0.37284580377E+03  0.00000000000E+00 0. -1.
         -3   -1    0    0    0  501 -0.00000000000E+00 -0.00000000000E+00 -0.83851789172E+02  0.83851789172E+02  0.00000000000E+00 0.  1.
         23    2    1    2    0    0 -0.57273579517E+02 -0.27067624622E+02 -0.21032133028E+02  0.11258640752E+03  0.90666583288E+02 0.  0.
         23    2    1    2    0    0  0.72038433714E+02 -0.67047436666E+00  0.26290947082E+03  0.28747741204E+03  0.91279171310E+02 0.  0.
        -11    1    4    4    0    0  0.47034740449E+02 -0.10140911401E+02  0.25513575346E+03  0.25963312113E+03  0.00000000000E+00 0. -1.
         11    1    4    4    0    0  0.25003693265E+02  0.94704370346E+01  0.77737173619E+01  0.27844290908E+02  0.00000000000E+00 0.  1.
        -13    1    3    3    0    0 -0.65420800992E+02  0.15198633200E+02 -0.81500151943E+01  0.67655763992E+02  0.00000000000E+00 0.  1.
         13    1    3    3    0    0  0.81472214751E+01 -0.42266257822E+02 -0.12882117834E+02  0.44930643529E+02  0.00000000000E+00 0. -1.
         -3    1    1    2    0  502 -0.14764854197E+02  0.27738098989E+02  0.47116676804E+02  0.56633773387E+02  0.00000000000E+00 0.  1.
<scales pt_clust_5="13000.00000" pt_clust_6="13000.00000" pt_clust_7="13000.00000" pt_clust_8="13000.00000" pt_clust_9="31.42297"></scales>
<clustering>
<clus scale="   31.423">  1  9  2 -1</clus>
<clus scale="   90.667">  7  8 -1 -1</clus>
<clus scale="   91.279">  5  6 -1 -1</clus>
<clus scale="  110.817">  2  7  1 -1</clus>
<clus scale="   31.423">  1  5  2 -1</clus>
</clustering>
</event>
<event>
 9    1  0.1321469E-005  0.9410964E+02  0.7546771E-02  0.1297331E+00
         21   -1    0    0  501  502  0.00000000000E+00  0.00000000000E+00  0.14145368979E+03  0.14145368979E+03  0.00000000000E+00 0. -1.
          1   -1    0    0  502    0 -0.00000000000E+00 -0.00000000000E+00 -0.13720620705E+03  0.13720620705E+03  0.00000000000E+00 0. -1.
         23    2    1    2    0    0 -0.30617910800E+02 -0.80995973908E+01 -0.68035009316E+02  0.11261187934E+03  0.83961973154E+02 0.  0.
         23    2    1    2    0    0 -0.11806916846E+02  0.27099328846E+02  0.23528197552E+02  0.98684547960E+02  0.91166260297E+02 0.  0.
        -11    1    3    3    0    0  0.28317033645E+02  0.63115862181E+01 -0.23841415170E+02  0.37551346079E+02  0.00000000000E+00 0.  1.
         11    1    3    3    0    0 -0.58934944445E+02 -0.14411183609E+02 -0.44193594146E+02  0.75060533260E+02  0.00000000000E+00 0. -1.
        -13    1    4    4    0    0  0.34569279454E+02  0.33371504708E+02  0.18994479966E+02  0.51667036664E+02  0.00000000000E+00 0.  1.
         13    1    4    4    0    0 -0.46376196300E+02 -0.62721758615E+01  0.45337175859E+01  0.47017511296E+02  0.00000000000E+00 0. -1.
          1    1    1    2  501    0  0.42424827647E+02 -0.18999731456E+02  0.48754294507E+02  0.67363469545E+02  0.00000000000E+00 0. -1.
<scales pt_clust_5="13000.00000" pt_clust_6="13000.00000" pt_clust_7="13000.00000" pt_clust_8="13000.00000" pt_clust_9="46.48501"></scales>
<clustering>
<clus scale="   46.485">  1  9  2 -1</clus>
<clus scale="   83.962">  5  6 -1 -1</clus>
<clus scale="   87.149">  2  5  1 -1</clus>
<clus scale="   91.166">  7  8 -1 -1</clus>
<clus scale="   46.485">  1  5  2 -1</clus>
</clustering>
</event>
<event>
 9    1  0.1321469E-005  0.1013175E+03  0.7546771E-02  0.1277722E+00
         21   -1    0    0  501  502  0.00000000000E+00  0.00000000000E+00  0.58843693807E+02  0.58843693807E+02  0.00000000000E+00 0.  1.
          1   -1    0    0  502    0 -0.00000000000E+00 -0.00000000000E+00 -0.27682135521E+03  0.27682135521E+03  0.00000000000E+00 0. -1.
         23    2    1    2    0    0  0.38385550060E+02 -0.39375468636E+02 -0.12717597753E+03  0.16597354024E+03  0.91376193918E+02 0.  0.
         23    2    1    2    0    0  0.23309187620E+00  0.37881238004E+02 -0.85865800321E+02  0.13073005120E+03  0.91007516705E+02 0.  0.
        -11    1    3    3    0    0  0.27689875148E+02 -0.59348088268E+02 -0.41917280262E+02  0.77755920361E+02  0.00000000000E+00 0. -1.
         11    1    3    3    0    0  0.10695674913E+02  0.19972619631E+02 -0.85258697272E+02  0.88217619880E+02  0.00000000000E+00 0.  1.
        -11    1    4    4    0    0  0.13314919464E+02  0.55961368069E+02 -0.91162065342E+02  0.10779371018E+03  0.00000000000E+00 0. -1.
         11    1    4    4    0    0 -0.13081827587E+02 -0.18080130065E+02  0.52962650216E+01  0.22936341020E+02  0.00000000000E+00 0.  1.
          1    1    1    2  501    0 -0.38618641937E+02  0.14942306325E+01 -0.49358835496E+01  0.38961457578E+02  0.00000000000E+00 0. -1.
<scales pt_clust_5="13000.00000" pt_clust_6="13000.00000" pt_clust_7="13000.00000" pt_clust_8="13000.00000" pt_clust_9="38.64754"></scales>
<clustering>
<clus scale="   38.648">  1  9  2 -1</clus>
<clus scale="   91.008">  7  8 -1 -1</clus>
<clus scale="   91.376">  5  6 -1 -1</clus>
<clus scale="  100.985">  1  7  2 -1</clus>
<clus scale="   38.648">  1  5  2 -1</clus>
</clustering>
</event>
<event>
 9    1  0.1321469E-005  0.1094375E+03  0.7546771E-02  0.1261858E+00
         -3   -1    0    0    0  501 -0.00000000000E+00  0.00000000000E+00  0.34783493142E+02  0.34783493142E+02  0.00000000000E+00 0.  1.
         21   -1    0    0  501  502  0.00000000000E+00 -0.00000000000E+00 -0.47861855384E+03  0.47861855384E+03  0.00000000000E+00 0.  1.
         23    2    1    2    0    0 -0.68897703928E+02 -0.13592838851E+02 -0.15326236910E+03  0.19183218901E+03  0.91534562239E+02 0.  0.
         23    2    1    2    0    0  0.48028375291E+02  0.10334563398E+02 -0.16835328200E+03  0.19753869528E+03  0.90913038326E+02 0.  0.
        -13    1    4    4    0    0  0.22998353230E+02  0.40223817336E+02 -0.33534962604E+02  0.57196795795E+02  0.00000000000E+00 0.  1.
         13    1    4    4    0    0  0.25030022061E+02 -0.29889253938E+02 -0.13481831940E+03  0.14034189948E+03  0.00000000000E+00 0. -1.
        -13    1    3    3    0    0 -0.27205449470E+02 -0.41383598975E+01  0.49374170545E+01  0.27957835944E+02  0.00000000000E+00 0.  1.
         13    1    3    3    0    0 -0.41692254459E+02 -0.94544789534E+01 -0.15819978615E+03  0.16387435307E+03  0.00000000000E+00 0. -1.
         -3    1    1    2    0  502  0.20869328637E+02  0.32582754528E+01 -0.12221940960E+03  0.12403116269E+03  0.00000000000E+00 0.  1.
<scales pt_clust_5="13000.00000" pt_clust_6="13000.00000" pt_clust_7="13000.00000" pt_clust_8="13000.00000" pt_clust_9="21.12215"></scales>
<clustering>
<clus scale="   21.122">  2  9  1 -1</clus>
<clus scale="   90.913">  5  6 -1 -1</clus>
<clus scale="   91.535">  7  8 -1 -1</clus>
<clus scale="  108.918">  2  5  1 -1</clus>
<clus scale="   21.122">  2  5  1 -1</clus>
</clustering>
</event>
<event>
 9    1  0.1321469E-005  0.1379686E+03  0.7546771E-02  0.1232169E+00
         -2   -1    0    0    0  501 -0.00000000000E+00  0.00000000000E+00  0.55376078057E+02  0.55376078057E+02  0.00000000000E+00 0.  1.
         21   -1    0    0  501  502  0.00000000000E+00 -0.00000000000E+00 -0.97010636567E+03  0.97010636567E+03  0.00000000000E+00 0.  1.
         23    2    1    2    0    0  0.29362139259E+02 -0.83465198268E+01 -0.18828468489E+03  0.21256854160E+03  0.93821440512E+02 0.  0.
         23    2    1    2    0    0 -0.11494621262E+03 -0.49826633445E+02 -0.11280153760E+03  0.19060546732E+03  0.88943420731E+02 0.  0.
        -13    1    3    3    0    0  0.59007248778E+01  0.37025015223E+02 -0.12888458533E+03  0.13422707120E+03  0.00000000000E+00 0.  1.
         13    1    3    3    0    0  0.23461414381E+02 -0.45371535050E+02 -0.59400099558E+02  0.78341470404E+02  0.00000000000E+00 0. -1.
        -13    1    4    4    0    0 -0.78858853704E+02 -0.75589926483E+02 -0.77663402580E+02  0.13403044391E+03  0.00000000000E+00 0.  1.
         13    1    4    4    0    0 -0.36087358912E+02  0.25763293038E+02 -0.35138135023E+02  0.56575023414E+02  0.00000000000E+00 0. -1.
         -2    1    1    2    0  502  0.85584073357E+02  0.58173153272E+02 -0.61364406511E+03  0.62230843480E+03  0.00000000000E+00 0.  1.
<scales pt_clust_5="13000.00000" pt_clust_6="13000.00000" pt_clust_7="13000.00000" pt_clust_8="13000.00000" pt_clust_9="105.47230"></scales>
<clustering>
<clus scale="   88.943">  7  8 -1 -1</clus>
<clus scale="   93.821">  5  6 -1 -1</clus>
<clus scale="   98.662">  1  5  2 -1</clus>
<clus scale="  105.472">  2  9  1 -1</clus>
<clus scale="  105.472">  2  5  1 -1</clus>
</clustering>
</event>
<event>
 9    1  0.1321469E-005  0.1001815E+03  0.7546771E-02  0.1281912E+00
          1   -1    0    0  502    0 -0.00000000000E+00  0.00000000000E+00  0.32802966438E+03  0.32802966438E+03  0.00000000000E+00 0. -1.
         21   -1    0    0  501  502  0.00000000000E+00 -0.00000000000E+00 -0.71371944731E+02  0.71371944731E+02  0.00000000000E+00 0. -1.
         23    2    1    2    0    0  0.34457590672E+01  0.19040471526E+02  0.12648189685E+03  0.15889692535E+03  0.94213320947E+02 0.  0.
         23    2    1    2    0    0  0.62081022364E+02 -0.27714040100E+02  0.13279609438E+03  0.17435443282E+03  0.90236047155E+02 0.  0.
        -13    1    3    3    0    0  0.39067313120E+02  0.15113507480E+02  0.11315887236E+03  0.12066318186E+03  0.00000000000E+00 0. -1.
         13    1    3    3    0    0 -0.35621554052E+02  0.39269640455E+01  0.13323024488E+02  0.38233743490E+02  0.00000000000E+00 0.  1.
        -13    1    4    4    0    0 -0.30477086496E+01 -0.44794845201E+02  0.63137801150E+02  0.77474180336E+02  0.00000000000E+00 0.  1.
         13    1    4    4    0    0  0.65128731013E+02  0.17080805102E+02  0.69658293225E+02  0.96880252484E+02  0.00000000000E+00 0. -1.
          1    1    1    2  501    0 -0.65526781431E+02  0.86735685740E+01 -0.26202715748E+01  0.66150250942E+02  0.00000000000E+00 0. -1.
<scales pt_clust_5="13000.00000" pt_clust_6="13000.00000" pt_clust_7="13000.00000" pt_clust_8="13000.00000" pt_clust_9="66.09833"></scales>
<clustering>
<clus scale="   66.098">  2  9  1 -1</clus>
<clus scale="   90.236">  7  8 -1 -1</clus>
<clus scale="   94.213">  5  6 -1 -1</clus>
<clus scale="   96.451">  2  7  1 -1</clus>
<clus scale="   66.098">  2  5  1 -1</clus>
</clustering>
</event>
<event>
 9    1  0.1321469E-005  0.1287768E+03  0.7546771E-02  0.1238962E+00
          1   -1    0    0  502    0 -0.00000000000E+00  0.00000000000E+00  0.18501715351E+03  0.18501715351E+03  0.00000000000E+00 0. -1.
         21   -1    0    0  501  502  0.00000000000E+00 -0.00000000000E+00 -0.24443715442E+03  0.24443715442E+03  0.00000000000E+00 0. -1.
         23    2    1    2    0    0  0.35927617683E+02 -0.33924706625E+02 -0.86272751454E+02  0.13635329835E+03  0.93314280233E+02 0.  0.
         23    2    1    2    0    0  0.74179730540E+02 -0.33428845539E+02 -0.62238188379E+02  0.13626566752E+03  0.89858888899E+02 0.  0.
        -11    1    3    3    0    0  0.21527472448E+02 -0.14465215199E+02 -0.10346188732E+03  0.10666319257E+03  0.00000000000E+00 0. -1.
         11    1    3    3    0    0  0.14400145235E+02 -0.19459491426E+02  0.17189135868E+02  0.29690105781E+02  0.00000000000E+00 0.  1.
        -13    1    4    4    0    0  0.81611086159E+02 -0.54458990613E+02 -0.56565487596E+02  0.11325107253E+03  0.00000000000E+00 0.  1.
         13    1    4    4    0    0 -0.74313556190E+01  0.21030145074E+02 -0.56727007826E+01  0.23014594985E+02  0.00000000000E+00 0. -1.
          1    1    1    2  501    0 -0.11010734822E+03  0.67353552164E+02  0.89090938929E+02  0.15683534207E+03  0.00000000000E+00 0. -1.
<scales pt_clust_5="13000.00000" pt_clust_6="13000.00000" pt_clust_7="13000.00000" pt_clust_8="13000.00000" pt_clust_9="92.24346"></scales>
<clustering>
<clus scale="   89.859">  7  8 -1 -1</clus>
<clus scale="   93.314">  5  6 -1 -1</clus>
<clus scale="  105.590">  1  5  2 -1</clus>
<clus scale="   92.243">  2  9  1 -1</clus>
<clus scale="   92.243">  2  5  1 -1</clus>
</clustering>
</event>
<event>
 9    1  0.1321469E-005  0.1003284E+03  0.7546771E-02  0.1284129E+00
          2   -1    0    0  502    0 -0.00000000000E+00  0.00000000000E+00  0.64246474849E+03  0.64246474849E+03  0.00000000000E+00 0. -1.
         21   -1    0    0  501  502  0.00000000000E+00 -0.00000000000E+00 -0.21020885929E+02  0.21020885929E+02  0.00000000000E+00 0. -1.
         23    2    1    2    0    0  0.20306733121E+02  0.21148528949E+02  0.33864310457E+03  0.35396526234E+03  0.98755409898E+02 0.  0.
         23    2    1    2    0    0  0.67651897567E+01 -0.10899206395E+02  0.24795815550E+03  0.26422197730E+03  0.90362856954E+02 0.  0.
        -13    1    3    3    0    0 -0.17726996606E+01 -0.38136659661E+02  0.15861945930E+03  0.16314925725E+03  0.00000000000E+00 0.  1.
         13    1    3    3    0    0  0.22079432782E+02  0.59285188610E+02  0.18002364527E+03  0.19081600509E+03  0.00000000000E+00 0. -1.
        -13    1    4    4    0    0 -0.23201399017E+02  0.31432545444E+02  0.95447730659E+02  0.10313379232E+03  0.00000000000E+00 0.  1.
         13    1    4    4    0    0  0.29966588774E+02 -0.42331751839E+02  0.15251042484E+03  0.16108818499E+03  0.00000000000E+00 0. -1.
          2    1    1    2  501    0 -0.27071922878E+02 -0.10249322554E+02  0.34842602488E+02  0.45298394775E+02  0.00000000000E+00 0. -1.
<scales pt_clust_5="13000.00000" pt_clust_6="13000.00000" pt_clust_7="13000.00000" pt_clust_8="13000.00000" pt_clust_9="28.94715"></scales>
<clustering>
<clus scale="   28.947">  2  9  1 -1</clus>
<clus scale="   90.363">  7  8 -1 -1</clus>
<clus scale="   92.079">  2  7  1 -1</clus>
<clus scale="   98.755">  5  6 -1 -1</clus>
<clus scale="   28.947">  2  5  1 -1</clus>
</clustering>
</event>
<event>
 9    1  0.1321469E-005  0.1509875E+03  0.7546771E-02  0.1201054E+00
          1   -1    0    0  502    0 -0.00000000000E+00  0.00000000000E+00  0.13103064473E+03  0.13103064473E+03  0.00000000000E+00 0. -1.
         21   -1    0    0  501  502  0.00000000000E+00 -0.00000000000E+00 -0.33825977584E+03  0.33825977584E+03  0.00000000000E+00 0. -1.
         23    2    1    2    0    0  0.10393369941E+03 -0.56345585629E+02  0.45846509588E+02  0.15078156691E+03  0.81585167672E+02 0.  0.
         23    2    1    2    0    0 -0.12297199328E+03  0.39992609906E+02 -0.17277781904E+03  0.23438028176E+03  0.91435341879E+02 0.  0.
        -11    1    4    4    0    0 -0.83471418071E+02  0.53209152789E+02 -0.16438779599E+03  0.19189069557E+03  0.00000000000E+00 0.  1.
         11    1    4    4    0    0 -0.39500575213E+02 -0.13216542883E+02 -0.83900230558E+01  0.42489586192E+02  0.00000000000E+00 0. -1.
        -13    1    3    3    0    0  0.20190300445E+02 -0.51096415255E+02 -0.46296453965E+00  0.54942754028E+02  0.00000000000E+00 0.  1.
         13    1    3    3    0    0  0.83743398966E+02 -0.52491703738E+01  0.46309474127E+02  0.95838812878E+02  0.00000000000E+00 0. -1.
          1    1    1    2  501    0  0.19038293872E+02  0.16352975723E+02 -0.80297821653E+02  0.84128571905E+02  0.00000000000E+00 0. -1.
<scales pt_clust_5="13000.00000" pt_clust_6="13000.00000" pt_clust_7="13000.00000" pt_clust_8="13000.00000" pt_clust_9="25.09734"></scales>
<clustering>
<clus scale="   25.097">  2  9  1 -1</clus>
<clus scale="   81.585">  7  8 -1 -1</clus>
<clus scale="   91.435">  5  6 -1 -1</clus>
<clus scale="  145.234">  1  7  2 -1</clus>
<clus scale="   25.097">  2  5  1 -1</clus>
</clustering>
</event>
<event>
 9    1  0.1321469E-005  0.3512718E+03  0.7546771E-02  0.1062134E+00
          1   -1    0    0  502    0 -0.00000000000E+00  0.00000000000E+00  0.17525392144E+04  0.17525392144E+04  0.00000000000E+00 0. -1.
         21   -1    0    0  501  502  0.00000000000E+00 -0.00000000000E+00 -0.11217510709E+03  0.11217510709E+03  0.00000000000E+00 0. -1.
         23    2    1    2    0    0 -0.32032169148E+03 -0.91064344609E+02  0.94880231190E+03  0.10095797871E+04  0.90148869196E+02 0.  0.
         23    2    1    2    0    0  0.36525611930E+03 -0.25753668941E+02  0.54276322734E+03  0.66069543090E+03  0.88607264377E+02 0.  0.
        -13    1    4    4    0    0  0.23048440814E+03 -0.55013835674E+02  0.37401909666E+03  0.44276389778E+03  0.00000000000E+00 0. -1.
         13    1    4    4    0    0  0.13477171116E+03  0.29260166733E+02  0.16874413069E+03  0.21793153311E+03  0.00000000000E+00 0.  1.
        -13    1    3    3    0    0 -0.13632772922E+03  0.69943976302E+01  0.37435146133E+03  0.39846353403E+03  0.00000000000E+00 0.  1.
         13    1    3    3    0    0 -0.18399396226E+03 -0.98058742239E+02  0.57445085057E+03  0.61111625309E+03  0.00000000000E+00 0. -1.
          1    1    1    2  501    0 -0.44934427816E+02  0.11681801355E+03  0.14879856804E+03  0.19443910343E+03  0.00000000000E+00 0. -1.
<scales pt_clust_5="13000.00000" pt_clust_6="13000.00000" pt_clust_7="13000.00000" pt_clust_8="13000.00000" pt_clust_9="125.16210"></scales>
<clustering>
<clus scale="   88.607">  5  6 -1 -1</clus>
<clus scale="   90.149">  7  8 -1 -1</clus>
<clus scale="  125.162">  2  9  1 -1</clus>
<clus scale="  350.879">  2  5  1 -1</clus>
<clus scale="  125.162">  2  5  1 -1</clus>
</clustering>
</event>
<event>
 9    1  0.1321469E-005  0.1332018E+03  0.7546771E-02  0.1233430E+00
         21   -1    0    0  501  502  0.00000000000E+00  0.00000000000E+00  0.31506518919E+03  0.31506518919E+03  0.00000000000E+00 0. -1.
          3   -1    0    0  502    0 -0.00000000000E+00 -0.00000000000E+00 -0.12623908177E+03  0.12623908177E+03  0.00000000000E+00 0. -1.
         23    2    1    2    0    0  0.54463684170E+02  0.60865162844E+01  0.17193757511E+03  0.20242467323E+03  0.91705398010E+02 0.  0.
         23    2    1    2    0    0  0.59724557734E+02 -0.31476585365E+02 -0.22991562728E+02  0.11529144225E+03  0.90585354643E+02 0.  0.
        -11    1    3    3    0    0  0.26558268594E+02 -0.18643785630E+02  0.16002420973E+03  0.16328098503E+03  0.00000000000E+00 0. -1.
         11    1    3    3    0    0  0.27905415577E+02  0.24730301914E+02  0.11913365381E+02  0.39143688201E+02  0.00000000000E+00 0.  1.
        -13    1    4    4    0    0  0.61303185271E+02 -0.57760995200E+02 -0.70796014833E+01  0.84525344412E+02  0.00000000000E+00 0. -1.
         13    1    4    4    0    0 -0.15786275371E+01  0.26284409835E+02 -0.15911961244E+02  0.30766097834E+02  0.00000000000E+00 0.  1.
          3    1    1    2  501    0 -0.11418824190E+03  0.25390069081E+02  0.39880095034E+02  0.12358815549E+03  0.00000000000E+00 0. -1.
<scales pt_clust_5="13000.00000" pt_clust_6="13000.00000" pt_clust_7="13000.00000" pt_clust_8="13000.00000" pt_clust_9="97.65760"></scales>
<clustering>
<clus scale="   90.585">  7  8 -1 -1</clus>
<clus scale="   91.705">  5  6 -1 -1</clus>
<clus scale="  106.833">  2  5  1 -1</clus>
<clus scale="   97.658">  1  9  2 -1</clus>
<clus scale="   97.658">  1  5  2 -1</clus>
</clustering>
</event>
<event>
 9    1  0.1321469E-005  0.9749009E+02  0.7546771E-02  0.1286605E+00
          1   -1    0    0  502    0 -0.00000000000E+00  0.00000000000E+00  0.19260840687E+03  0.19260840687E+03  0.00000000000E+00 0. -1.
         21   -1    0    0  501  502  0.00000000000E+00 -0.00000000000E+00 -0.70941054430E+02  0.70941054430E+02  0.00000000000E+00 0.  1.
         23    2    1    2    0    0 -0.43935082742E+02 -0.32137133928E+01  0.77496021147E+02  0.12594023528E+03  0.88964544169E+02 0.  0.
         23    2    1    2    0    0  0.19454482540E+02  0.24361929301E+02  0.43105381805E+02  0.10524129327E+03  0.90805701243E+02 0.  0.
        -11    1    3    3    0    0 -0.38805964591E+02 -0.39227666572E+02  0.21614088472E+02  0.59261130035E+02  0.00000000000E+00 0. -1.
         11    1    3    3    0    0 -0.51291181511E+01  0.36013953180E+02  0.55881932674E+02  0.66679105243E+02  0.00000000000E+00 0.  1.
        -13    1    4    4    0    0 -0.17772608960E+02  0.11385386982E+02 -0.21134358117E+02  0.29868943051E+02  0.00000000000E+00 0.  1.
         13    1    4    4    0    0  0.37227091500E+02  0.12976542319E+02  0.64239739922E+02  0.75372350218E+02  0.00000000000E+00 0. -1.
          1    1    1    2  501    0  0.24480600202E+02 -0.21148215909E+02  0.10659494887E+01  0.32367932753E+02  0.00000000000E+00 0. -1.
<scales pt_clust_5="13000.00000" pt_clust_6="13000.00000" pt_clust_7="13000.00000" pt_clust_8="13000.00000" pt_clust_9="32.35038"></scales>
<clustering>
<clus scale="   32.350">  2  9  1 -1</clus>
<clus scale="   88.965">  5  6 -1 -1</clus>
<clus scale="   90.806">  7  8 -1 -1</clus>
<clus scale="   95.778">  1  5  2 -1</clus>
<clus scale="   32.350">  2  5  1 -1</clus>
</clustering>
</event>
<event>
 9    1  0.1321469E-005  0.2561799E+03  0.7546771E-02  0.1109594E+00
         -1   -1    0    0    0  501 -0.00000000000E+00  0.00000000000E+00  0.55855691610E+03  0.55855691610E+03  0.00000000000E+00 0.  1.
         21   -1    0    0  501  502  0.00000000000E+00 -0.00000000000E+00 -0.25942844402E+03  0.25942844402E+03  0.00000000000E+00 0.  1.
         23    2    1    2    0    0  0.19748577430E+03 -0.11967072706E+03  0.27850099643E+03  0.37246304560E+03  0.88567496053E+02 0.  0.
         23    2    1    2    0    0 -0.20747889798E+03  0.14675770225E+03  0.15282259822E+03  0.31021112808E+03  0.91054275982E+02 0.  0.
        -11    1    3    3    0    0  0.37522679269E+02 -0.47436166507E+02  0.28142901647E+02  0.66709551532E+02  0.00000000000E+00 0. -1.
         11    1    3    3    0    0  0.15996309503E+03 -0.72234560558E+02  0.25035809479E+03  0.30575349407E+03  0.00000000000E+00 0.  1.
        -11    1    4    4    0    0 -0.13238163439E+03  0.66585049789E+02  0.41661130217E+02  0.15392893084E+03  0.00000000000E+00 0. -1.
         11    1    4    4    0    0 -0.75097263592E+02  0.80172652465E+02  0.11116146801E+03  0.15628219723E+03  0.00000000000E+00 0.  1.
         -1    1    1    2    0  502  0.99931236835E+01 -0.27086975189E+02 -0.13219512257E+03  0.13531118644E+03  0.00000000000E+00 0.  1.
<scales pt_clust_5="13000.00000" pt_clust_6="13000.00000" pt_clust_7="13000.00000" pt_clust_8="13000.00000" pt_clust_9="28.87156"></scales>
<clustering>
<clus scale="   28.872">  2  9  1 -1</clus>
<clus scale="   88.567">  5  6 -1 -1</clus>
<clus scale="   91.054">  7  8 -1 -1</clus>
<clus scale="  255.307">  1  5  2 -1</clus>
<clus scale="   28.872">  2  5  1 -1</clus>
</clustering>
</event>
<event>
 9    1  0.1321469E-005  0.1050010E+03  0.7546771E-02  0.1276001E+00
         21   -1    0    0  501  502  0.00000000000E+00  0.00000000000E+00  0.20316789964E+03  0.20316789964E+03  0.00000000000E+00 0.  1.
          1   -1    0    0  502    0 -0.00000000000E+00 -0.00000000000E+00 -0.75608495118E+02  0.75608495118E+02  0.00000000000E+00 0. -1.
         23    2    1    2    0    0  0.24171103864E+02 -0.40677101567E+02  0.20009856306E+02  0.10828504123E+03  0.95322541669E+02 0.  0.
         23    2    1    2    0    0  0.77486064556E+01  0.45574344689E+02  0.57368714516E+02  0.11081751531E+03  0.82778563036E+02 0.  0.
        -13    1    4    4    0    0  0.34687546542E+02  0.22838497774E+02  0.62657890587E+02  0.75172030161E+02  0.00000000000E+00 0.  1.
         13    1    4    4    0    0 -0.26938940087E+02  0.22735846915E+02 -0.52891760712E+01  0.35645485148E+02  0.00000000000E+00 0. -1.
        -13    1    3    3    0    0  0.57826433132E+02 -0.38905762020E+02  0.25348984996E+02  0.74162832520E+02  0.00000000000E+00 0.  1.
         13    1    3    3    0    0 -0.33655329267E+02 -0.17713395476E+01 -0.53391286899E+01  0.34122208707E+02  0.00000000000E+00 0. -1.
          1    1    1    2  501    0 -0.31919710320E+02 -0.48972431220E+01  0.50180833697E+02  0.59673838218E+02  0.00000000000E+00 0. -1.
<scales pt_clust_5="13000.00000" pt_clust_6="13000.00000" pt_clust_7="13000.00000" pt_clust_8="13000.00000" pt_clust_9="32.29320"></scales>
<clustering>
<clus scale="   32.293">  1  9  2 -1</clus>
<clus scale="   82.779">  5  6 -1 -1</clus>
<clus scale="   93.761">  1  5  2 -1</clus>
<clus scale="   95.323">  7  8 -1 -1</clus>
<clus scale="   32.293">  1  5  2 -1</clus>
</clustering>
</event>
<event>
 9    1  0.1321469E-005  0.9286406E+02  0.7546771E-02  0.1296470E+00
          1   -1    0    0  502    0 -0.00000000000E+00  0.00000000000E+00  0.23944582572E+03  0.23944582572E+03  0.00000000000E+00 0. -1.
         21   -1    0    0  501  502  0.00000000000E+00 -0.00000000000E+00 -0.12583446507E+03  0.12583446507E+03  0.00000000000E+00 0. -1.
         23    2    1    2    0    0 -0.13492165471E+02 -0.88217039094E+01  0.18431896685E+03  0.20669694065E+03  0.92142730282E+02 0.  0.
         23    2    1    2    0    0 -0.91943534915E+01 -0.29935040823E+02 -0.53677402084E+02  0.11055428335E+03  0.91434912740E+02 0.  0.
        -11    1    4    4    0    0  0.39892572075E+02 -0.15010503320E+01 -0.22327579524E+02  0.45740477328E+02  0.00000000000E+00 0.  1.
         11    1    4    4    0    0 -0.49086925566E+02 -0.28433990491E+02 -0.31349822560E+02  0.64813806024E+02  0.00000000000E+00 0. -1.
        -13    1    3    3    0    0  0.29956525681E+02 -0.15386414530E+02  0.26437226182E+02  0.42814274619E+02  0.00000000000E+00 0.  1.
         13    1    3    3    0    0 -0.43448691152E+02  0.65647106207E+01  0.15788174067E+03  0.16388266603E+03  0.00000000000E+00 0. -1.
          1    1    1    2  501    0  0.22686518962E+02  0.38756744732E+02 -0.17030204115E+02  0.48029066793E+02  0.00000000000E+00 0. -1.
<scales pt_clust_5="13000.00000" pt_clust_6="13000.00000" pt_clust_7="13000.00000" pt_clust_8="13000.00000" pt_clust_9="44.90839"></scales>
<clustering>
<clus scale="   44.908">  2  9  1 -1</clus>
<clus scale="   91.435">  5  6 -1 -1</clus>
<clus scale="   92.143">  7  8 -1 -1</clus>
<clus scale="   92.162">  2  5  1 -1</clus>
<clus scale="   44.908">  2  5  1 -1</clus>
</clustering>
</event>
<event>
 9    1  0.1321469E-005  0.1125207E+03  0.7546771E-02  0.1256591E+00
         21   -1    0    0  501  502  0.00000000000E+00  0.00000000000E+00  0.15283477758E+03  0.15283477758E+03  0.00000000000E+00 0. -1.
          3   -1    0    0  502    0 -0.00000000000E+00 -0.00000000000E+00 -0.11243262306E+03  0.11243262306E+03  0.00000000000E+00 0. -1.
         23    2    1    2    0    0  0.95657746894E+01  0.56261506834E+02 -0.13728862623E+02  0.10707276967E+03  0.89550182243E+02 0.  0.
         23    2    1    2    0    0 -0.20749539526E+02 -0.79358169799E+02  0.40965913318E+02  0.12935277951E+03  0.91245125949E+02 0.  0.
        -11    1    3    3    0    0  0.32632579121E+02 -0.10965673564E+02 -0.10224606936E+02  0.35912028678E+02  0.00000000000E+00 0.  1.
         11    1    3    3    0    0 -0.23066804431E+02  0.67227180398E+02 -0.35042556873E+01  0.71160740994E+02  0.00000000000E+00 0. -1.
        -13    1    4    4    0    0  0.35964105887E+02 -0.34821363297E+02  0.22692812950E+02  0.54962787536E+02  0.00000000000E+00 0.  1.
         13    1    4    4    0    0 -0.56713645413E+02 -0.44536806502E+02  0.18273100368E+02  0.74389991978E+02  0.00000000000E+00 0. -1.
          3    1    1    2  501    0  0.11183764836E+02  0.23096662966E+02  0.13165103825E+02  0.28841851445E+02  0.00000000000E+00 0. -1.
<scales pt_clust_5="13000.00000" pt_clust_6="13000.00000" pt_clust_7="13000.00000" pt_clust_8="13000.00000" pt_clust_9="25.66189"></scales>
<clustering>
<clus scale="   25.662">  1  9  2 -1</clus>
<clus scale="   89.550">  5  6 -1 -1</clus>
<clus scale="   91.245">  7  8 -1 -1</clus>
<clus scale="  111.151">  2  5  1 -1</clus>
<clus scale="   25.662">  1  5  2 -1</clus>
</clustering>
</event>
<event>
 9    1  0.1321469E-005  0.1092338E+03  0.7546771E-02  0.1262318E+00
          1   -1    0    0  502    0 -0.00000000000E+00  0.00000000000E+00  0.36215087823E+03  0.36215087823E+03  0.00000000000E+00 0. -1.
         21   -1    0    0  501  502  0.00000000000E+00 -0.00000000000E+00 -0.78492587150E+02  0.78492587150E+02  0.00000000000E+00 0. -1.
         23    2    1    2    0    0 -0.41082285818E+02  0.93510487087E+01  0.12775272391E+03  0.16298434209E+03  0.92021415875E+02 0.  0.
         23    2    1    2    0    0  0.52349010500E+02 -0.66112558340E+02  0.17685222968E+03  0.21611588052E+03  0.91203472528E+02 0.  0.
        -11    1    4    4    0    0  0.42525538744E+02 -0.87890536873E+02  0.12180507920E+03  0.15610780005E+03  0.00000000000E+00 0. -1.
         11    1    4    4    0    0  0.98234717558E+01  0.21777978532E+02  0.55047150476E+02  0.60008080471E+02  0.00000000000E+00 0.  1.
        -13    1    3    3    0    0 -0.67173069221E+02 -0.48554394542E+00  0.61387267985E+02  0.90999195887E+02  0.00000000000E+00 0. -1.
         13    1    3    3    0    0  0.26090783403E+02  0.98365926541E+01  0.66365455920E+02  0.71985146198E+02  0.00000000000E+00 0.  1.
          1    1    1    2  501    0 -0.11266724682E+02  0.56761509632E+02 -0.20946662504E+02  0.61543242771E+02  0.00000000000E+00 0. -1.
<scales pt_clust_5="13000.00000" pt_clust_6="13000.00000" pt_clust_7="13000.00000" pt_clust_8="13000.00000" pt_clust_9="57.86889"></scales>
<clustering>
<clus scale="   57.869">  2  9  1 -1</clus>
<clus scale="   91.203">  5  6 -1 -1</clus>
<clus scale="   92.021">  7  8 -1 -1</clus>
<clus scale="  108.546">  2  5  1 -1</clus>
<clus scale="   57.869">  2  5  1 -1</clus>
</clustering>
</event>
<event>
 9    1  0.1321469E-005  0.1099788E+03  0.7546771E-02  0.1261965E+00
         21   -1    0    0  501  502  0.00000000000E+00  0.00000000000E+00  0.12311455134E+03  0.12311455134E+03  0.00000000000E+00 0. -1.
          3   -1    0    0  502    0 -0.00000000000E+00 -0.00000000000E+00 -0.20369157365E+03  0.20369157365E+03  0.00000000000E+00 0. -1.
         23    2    1    2    0    0 -0.35942204661E+02  0.50331316497E+02 -0.14197386657E+03  0.17912105349E+03  0.90014940529E+02 0.  0.
         23    2    1    2    0    0  0.65170664086E+01 -0.45855253280E+02  0.43766913892E+02  0.11309188796E+03  0.93429417010E+02 0.  0.
        -11    1    3    3    0    0 -0.58376193848E+02  0.37281657278E+02 -0.55264147281E+02  0.88610540865E+02  0.00000000000E+00 0.  1.
         11    1    3    3    0    0  0.22433989188E+02  0.13049659219E+02 -0.86709719288E+02  0.90510512625E+02  0.00000000000E+00 0. -1.
        -13    1    4    4    0    0  0.34104892631E+02  0.12883922932E+02  0.28882444166E+02  0.46511662542E+02  0.00000000000E+00 0.  1.
         13    1    4    4    0    0 -0.27587826222E+02 -0.58739176212E+02  0.14884469726E+02  0.66580225418E+02  0.00000000000E+00 0. -1.
          3    1    1    2  501    0  0.29425138252E+02 -0.44760632173E+01  0.17629930368E+02  0.34593183546E+02  0.00000000000E+00 0. -1.
<scales pt_clust_5="13000.00000" pt_clust_6="13000.00000" pt_clust_7="13000.00000" pt_clust_8="13000.00000" pt_clust_9="29.76363"></scales>
<clustering>
<clus scale="   29.764">  1  9  2 -1</clus>
<clus scale="   90.015">  5  6 -1 -1</clus>
<clus scale="   93.429">  7  8 -1 -1</clus>
<clus scale="  107.093">  2  5  1 -1</clus>
<clus scale="   29.764">  1  5  2 -1</clus>
</clustering>
</event>
<event>
 9    1  0.1321469E-005  0.2335478E+03  0.7546771E-02  0.1124172E+00
         21   -1    0    0  501  502  0.00000000000E+00  0.00000000000E+00  0.12774485270E+03  0.12774485270E+03  0.00000000000E+00 0.  1.
         -4   -1    0    0    0  501 -0.00000000000E+00 -0.00000000000E+00 -0.11642924313E+04  0.11642924313E+04  0.00000000000E+00 0.  1.
         23    2    1    2    0    0 -0.30709405789E+02  0.22035126435E+03 -0.96096742952E+03  0.99068171504E+03  0.92163510282E+02 0.  0.
         23    2    1    2    0    0  0.91541304581E+02 -0.15958097643E+03 -0.53754181276E+02  0.21264299561E+03  0.92095782160E+02 0.  0.
        -11    1    3    3    0    0  0.59063090404E+01  0.11569162273E+03 -0.32287513542E+03  0.34302738831E+03  0.00000000000E+00 0.  1.
         11    1    3    3    0    0 -0.36615714830E+02  0.10465964162E+03 -0.63809229409E+03  0.64765432673E+03  0.00000000000E+00 0. -1.
        -11    1    4    4    0    0  0.80763515603E+02 -0.79050415185E+02 -0.65388627762E+02  0.13056563956E+03  0.00000000000E+00 0.  1.
         11    1    4    4    0    0  0.10777788978E+02 -0.80530561248E+02  0.11634446486E+02  0.82077356044E+02  0.00000000000E+00 0. -1.
         -4    1    1    2    0  502 -0.60831898792E+02 -0.60770287913E+02 -0.21825967848E+02  0.88712573382E+02  0.00000000000E+00 0.  1.
<scales pt_clust_5="13000.00000" pt_clust_6="13000.00000" pt_clust_7="13000.00000" pt_clust_8="13000.00000" pt_clust_9="85.98574"></scales>
<clustering>
<clus scale="   85.986">  1  9  2 -1</clus>
<clus scale="   92.096">  7  8 -1 -1</clus>
<clus scale="   92.164">  5  6 -1 -1</clus>
<clus scale="  233.521">  1  7  2 -1</clus>
<clus scale="   85.986">  1  5  2 -1</clus>
</clustering>
</event>
<event>
 9    1  0.1321469E-005  0.9389051E+02  0.7546771E-02  0.1293734E+00
         21   -1    0    0  501  502  0.00000000000E+00  0.00000000000E+00  0.19319498890E+03  0.19319498890E+03  0.00000000000E+00 0.  1.
         -4   -1    0    0    0  501 -0.00000000000E+00 -0.00000000000E+00 -0.33415150823E+03  0.33415150823E+03  0.00000000000E+00 0.  1.
         23    2    1    2    0    0  0.29507427516E+02 -0.39837129954E+01 -0.28835172138E+03  0.30372700566E+03  0.90646679454E+02 0.  0.
         23    2    1    2    0    0  0.23841644691E+02 -0.14027002160E+02  0.40909338181E+02  0.10316307376E+03  0.90575189901E+02 0.  0.
        -11    1    4    4    0    0 -0.26844153535E+01 -0.46578602899E+02  0.39528227642E+02  0.61149432658E+02  0.00000000000E+00 0. -1.
         11    1    4    4    0    0  0.26526060045E+02  0.32551600739E+02  0.13811105388E+01  0.42013641100E+02  0.00000000000E+00 0.  1.
        -13    1    3    3    0    0  0.37436806323E+01 -0.37004991439E+02 -0.22317613840E+03  0.22625422269E+03  0.00000000000E+00 0.  1.
         13    1    3    3    0    0  0.25763746884E+02  0.33021278444E+02 -0.65175582982E+02  0.77472782967E+02  0.00000000000E+00 0. -1.
         -4    1    1    2    0  502 -0.53349072207E+02  0.18010715156E+02  0.10648586387E+03  0.12045641772E+03  0.00000000000E+00 0.  1.
<scales pt_clust_5="13000.00000" pt_clust_6="13000.00000" pt_clust_7="13000.00000" pt_clust_8="13000.00000" pt_clust_9="56.30728"></scales>
<clustering>
<clus scale="   56.307">  1  9  2 -1</clus>
<clus scale="   90.575">  5  6 -1 -1</clus>
<clus scale="   90.647">  7  8 -1 -1</clus>
<clus scale="   93.821">  1  5  2 -1</clus>
<clus scale="   56.307">  1  5  2 -1</clus>
</clustering>
</event>
<event>
 9    1  0.1321469E-005  0.1177341E+03  0.7546771E-02  0.1247350E+00
         21   -1    0    0  501  502  0.00000000000E+00  0.00000000000E+00  0.20781037050E+03  0.20781037050E+03  0.00000000000E+00 0.  1.
          1   -1    0    0  502    0 -0.00000000000E+00 -0.00000000000E+00 -0.12844069349E+03  0.12844069349E+03  0.00000000000E+00 0. -1.
         23    2    1    2    0    0  0.21860346560E+02  0.62070972147E+02 -0.46381113004E+02  0.12256414926E+03  0.92412567904E+02 0.  0.
         23    2    1    2    0    0 -0.99876067326E+01 -0.98290669812E+02  0.92364308622E+02  0.16301655268E+03  0.91007817683E+02 0.  0.
        -13    1    4    4    0    0  0.22229125880E+02  0.58584460442E+01  0.28695774267E+02  0.36768232052E+02  0.00000000000E+00 0. -1.
         13    1    4    4    0    0 -0.32216732613E+02 -0.10414911586E+03  0.63668534355E+02  0.12624832063E+03  0.00000000000E+00 0.  1.
        -13    1    3    3    0    0  0.61569163306E+00  0.38460925444E+02 -0.72084429651E+02  0.81705488557E+02  0.00000000000E+00 0. -1.
         13    1    3    3    0    0  0.21244654926E+02  0.23610046702E+02  0.25703316646E+02  0.40858660708E+02  0.00000000000E+00 0.  1.
          1    1    1    2  501    0 -0.11872739827E+02  0.36219697666E+02  0.33386481395E+02  0.50670362046E+02  0.00000000000E+00 0. -1.
<scales pt_clust_5="13000.00000" pt_clust_6="13000.00000" pt_clust_7="13000.00000" pt_clust_8="13000.00000" pt_clust_9="38.11599"></scales>
<clustering>
<clus scale="   38.116">  1  9  2 -1</clus>
<clus scale="   91.008">  5  6 -1 -1</clus>
<clus scale="   92.413">  7  8 -1 -1</clus>
<clus scale="  116.635">  1  5  2 -1</clus>
<clus scale="   38.116">  1  5  2 -1</clus>
</clustering>
</event>
<event>
 9    1  0.1321469E-005  0.9776478E+02  0.7546771E-02  0.1287502E+00
         21   -1    0    0  501  502  0.00000000000E+00  0.00000000000E+00  0.10919727951E+03  0.10919727951E+03  0.00000000000E+00 0. -1.
          1   -1    0    0  502    0 -0.00000000000E+00 -0.00000000000E+00 -0.93288660589E+03  0.93288660589E+03  0.00000000000E+00 0. -1.
         23    2    1    2    0    0  0.22603392044E+02  0.13710949911E+01 -0.36565652448E+03  0.37670449831E+03  0.87685756625E+02 0.  0.
         23    2    1    2    0    0  0.14487865349E+02  0.68610612239E+02 -0.53946339434E+03  0.55178298704E+03  0.92338489235E+02 0.  0.
        -13    1    4    4    0    0 -0.22777303445E+02  0.73450844019E+02 -0.31889235627E+03  0.32803378931E+03  0.00000000000E+00 0.  1.
         13    1    4    4    0    0  0.37265168793E+02 -0.48402317798E+01 -0.22057103807E+03  0.22374919773E+03  0.00000000000E+00 0. -1.
        -13    1    3    3    0    0  0.42524787161E+02 -0.28142267405E+02 -0.26682786738E+03  0.27165687097E+03  0.00000000000E+00 0. -1.
         13    1    3    3    0    0 -0.19921395117E+02  0.29513362396E+02 -0.98828657105E+02  0.10504762733E+03  0.00000000000E+00 0.  1.
          1    1    1    2  501    0 -0.37091257393E+02 -0.69981707230E+02  0.81430592443E+02  0.11359640006E+03  0.00000000000E+00 0. -1.
<scales pt_clust_5="13000.00000" pt_clust_6="13000.00000" pt_clust_7="13000.00000" pt_clust_8="13000.00000" pt_clust_9="79.20354"></scales>
<clustering>
<clus scale="   79.204">  1  9  2 -1</clus>
<clus scale="   87.686">  7  8 -1 -1</clus>
<clus scale="   92.338">  5  6 -1 -1</clus>
<clus scale="   93.383">  2  7  1 -1</clus>
<clus scale="   79.204">  1  5  2 -1</clus>
</clustering>
</event>
<event>
 9    1  0.1321469E-005  0.9495051E+02  0.7546771E-02  0.1292050E+00
         21   -1    0    0  501  502  0.00000000000E+00  0.00000000000E+00  0.74193913098E+02  0.74193913098E+02  0.00000000000E+00 0. -1.
         -1   -1    0    0    0  501 -0.00000000000E+00 -0.00000000000E+00 -0.26905616541E+03  0.26905616541E+03  0.00000000000E+00 0.  1.
         23    2    1    2    0    0  0.30077939395E+02 -0.24233460104E+01 -0.12801517726E+03  0.16055725959E+03  0.92087963124E+02 0.  0.
         23    2    1    2    0    0 -0.11520488465E+01  0.43267347538E+01 -0.10114779962E+03  0.13778324601E+03  0.93452114284E+02 0.  0.
        -11    1    4    4    0    0 -0.33679282064E+02 -0.27186698720E+02 -0.27360213699E+02  0.51205389573E+02  0.00000000000E+00 0. -1.
         11    1    4    4    0    0  0.32527233217E+02  0.31513433474E+02 -0.73787585916E+02  0.86577856438E+02  0.00000000000E+00 0.  1.
        -13    1    3    3    0    0  0.26385163636E+02  0.26340332216E+02 -0.12609812543E+03  0.13149420975E+03  0.00000000000E+00 0.  1.
         13    1    3    3    0    0  0.36927757588E+01 -0.28763678226E+02 -0.19170518316E+01  0.29063049833E+02  0.00000000000E+00 0. -1.
         -1    1    1    2    0  502 -0.28925890548E+02 -0.19033887434E+01  0.34300724569E+02  0.44909572907E+02  0.00000000000E+00 0.  1.
<scales pt_clust_5="13000.00000" pt_clust_6="13000.00000" pt_clust_7="13000.00000" pt_clust_8="13000.00000" pt_clust_9="28.98845"></scales>
<clustering>
<clus scale="   28.988">  1  9  2 -1</clus>
<clus scale="   92.088">  7  8 -1 -1</clus>
<clus scale="   93.452">  5  6 -1 -1</clus>
<clus scale="   93.608">  2  7  1 -1</clus>
<clus scale="   28.988">  1  5  2 -1</clus>
</clustering>
</event>
<event>
 9    1  0.1321469E-005  0.1054254E+03  0.7546771E-02  0.1272844E+00
          2   -1    0    0  502    0 -0.00000000000E+00  0.00000000000E+00  0.15914533816E+03  0.15914533816E+03  0.00000000000E+00 0. -1.
         21   -1    0    0  501  502  0.00000000000E+00 -0.00000000000E+00 -0.12698804204E+03  0.12698804204E+03  0.00000000000E+00 0.  1.
         23    2    1    2    0    0  0.33883180381E+02 -0.21777569587E+02  0.56464723255E+02  0.11403794199E+03  0.90521018499E+02 0.  0.
         23    2    1    2    0    0 -0.15134774325E+02  0.37966621149E+02  0.31669582100E+02  0.11088258268E+03  0.98089036067E+02 0.  0.
        -13    1    4    4    0    0 -0.53831277902E+02  0.31350722149E+01  0.12109009909E+02  0.55265389525E+02  0.00000000000E+00 0.  1.
         13    1    4    4    0    0  0.38696503577E+02  0.34831548934E+02  0.19560572191E+02  0.55617193157E+02  0.00000000000E+00 0. -1.
        -13    1    3    3    0    0  0.50743211146E+02  0.75056844529E+01  0.61270341838E+02  0.79907844205E+02  0.00000000000E+00 0. -1.
         13    1    3    3    0    0 -0.16860030765E+02 -0.29283254040E+02 -0.48056185823E+01  0.34130097781E+02  0.00000000000E+00 0.  1.
          2    1    1    2  501    0 -0.18748406056E+02 -0.16189051562E+02 -0.55977009231E+02  0.61212855533E+02  0.00000000000E+00 0. -1.
<scales pt_clust_5="13000.00000" pt_clust_6="13000.00000" pt_clust_7="13000.00000" pt_clust_8="13000.00000" pt_clust_9="24.77071"></scales>
<clustering>
<clus scale="   24.771">  2  9  1 -1</clus>
<clus scale="   90.521">  7  8 -1 -1</clus>
<clus scale="   98.089">  5  6 -1 -1</clus>
<clus scale="   98.423">  1  7  2 -1</clus>
<clus scale="   24.771">  2  5  1 -1</clus>
</clustering>
</event>
<event>
 9    1  0.1321469E-005  0.1126483E+03  0.7546771E-02  0.1255913E+00
         21   -1    0    0  501  502  0.00000000000E+00  0.00000000000E+00  0.35579049529E+03  0.35579049529E+03  0.00000000000E+00 0. -1.
          2   -1    0    0  502    0 -0.00000000000E+00 -0.00000000000E+00 -0.89895505956E+02  0.89895505956E+02  0.00000000000E+00 0. -1.
         23    2    1    2    0    0 -0.53786047033E+01 -0.69014697607E+02  0.18186941682E+02  0.11743938036E+03  0.93108997080E+02 0.  0.
         23    2    1    2    0    0 -0.49376325471E+02  0.40983383249E+02  0.24139830207E+03  0.26641079104E+03  0.92649393545E+02 0.  0.
        -11    1    3    3    0    0  0.12264342547E+02 -0.85668598451E+02  0.28446995037E+02  0.91097499336E+02  0.00000000000E+00 0.  1.
         11    1    3    3    0    0 -0.17642947250E+02  0.16653900844E+02 -0.10260053355E+02  0.26341881023E+02  0.00000000000E+00 0. -1.
        -11    1    4    4    0    0 -0.27601147370E+02  0.66113121068E+02  0.11316813729E+03  0.13393952147E+03  0.00000000000E+00 0.  1.
         11    1    4    4    0    0 -0.21775178101E+02 -0.25129737819E+02  0.12823016478E+03  0.13247126957E+03  0.00000000000E+00 0. -1.
          2    1    1    2  501    0  0.54754930174E+02  0.28031314358E+02  0.63097455848E+01  0.61835829843E+02  0.00000000000E+00 0. -1.
<scales pt_clust_5="13000.00000" pt_clust_6="13000.00000" pt_clust_7="13000.00000" pt_clust_8="13000.00000" pt_clust_9="61.51309"></scales>
<clustering>
<clus scale="   61.513">  1  9  2 -1</clus>
<clus scale="   92.649">  7  8 -1 -1</clus>
<clus scale="   93.109">  5  6 -1 -1</clus>
<clus scale="  112.269">  1  7  2 -1</clus>
<clus scale="   61.513">  1  5  2 -1</clus>
</clustering>
</event>
<event>
 9    1  0.1321469E-005  0.9955786E+02  0.7546771E-02  0.1283209E+00
         21   -1    0    0  501  502  0.00000000000E+00  0.00000000000E+00  0.10503909564E+03  0.10503909564E+03  0.00000000000E+00 0.  1.
         -4   -1    0    0    0  501 -0.00000000000E+00 -0.00000000000E+00 -0.41134780529E+03  0.41134780529E+03  0.00000000000E+00 0. -1.
         23    2    1    2    0    0 -0.26070557695E+02 -0.36431221196E+02 -0.34469664262E+03  0.35829437757E+03  0.86903266379E+02 0.  0.
         23    2    1    2    0    0 -0.60084229849E+01  0.22256071158E+02 -0.14200884592E+02  0.94881926054E+02  0.90936686317E+02 0.  0.
        -13    1    4    4    0    0  0.29766270934E+02  0.13181363245E+02  0.24995914830E+02  0.41043574169E+02  0.00000000000E+00 0.  1.
         13    1    4    4    0    0 -0.35774693919E+02  0.90747079134E+01 -0.39196799422E+02  0.53838351885E+02  0.00000000000E+00 0. -1.
        -13    1    3    3    0    0  0.31530821105E+02 -0.19110429018E+02 -0.11009883226E+03  0.11610837197E+03  0.00000000000E+00 0.  1.
         13    1    3    3    0    0 -0.57601378800E+02 -0.17320792178E+02 -0.23459781036E+03  0.24218600559E+03  0.00000000000E+00 0. -1.
         -4    1    1    2    0  502  0.32078980680E+02  0.14175150038E+02  0.52588817559E+02  0.63210597310E+02  0.00000000000E+00 0. -1.
<scales pt_clust_5="13000.00000" pt_clust_6="13000.00000" pt_clust_7="13000.00000" pt_clust_8="13000.00000" pt_clust_9="35.07130"></scales>
<clustering>
<clus scale="   35.071">  1  9  2 -1</clus>
<clus scale="   86.903">  7  8 -1 -1</clus>
<clus scale="   90.937">  5  6 -1 -1</clus>
<clus scale="   95.888">  2  7  1 -1</clus>
<clus scale="   35.071">  1  5  2 -1</clus>
</clustering>
</event>
<event>
 9    1  0.1321469E-005  0.1048140E+03  0.7546771E-02  0.1272119E+00
         21   -1    0    0  501  502  0.00000000000E+00  0.00000000000E+00  0.31163279170E+02  0.31163279170E+02  0.00000000000E+00 0. -1.
          1   -1    0    0  502    0 -0.00000000000E+00 -0.00000000000E+00 -0.70261645977E+03  0.70261645977E+03  0.00000000000E+00 0. -1.
         23    2    1    2    0    0 -0.55472194429E+02  0.11019719732E+02 -0.47134651078E+03  0.48340494710E+03  0.91182295901E+02 0.  0.
         23    2    1    2    0    0  0.28258857743E+02 -0.43748882102E+02 -0.17038058201E+03  0.19845751090E+03  0.87426044065E+02 0.  0.
        -11    1    4    4    0    0  0.10003767727E+02 -0.67965668426E+02 -0.95268143738E+02  0.11745393422E+03  0.00000000000E+00 0. -1.
         11    1    4    4    0    0  0.18255090016E+02  0.24216786324E+02 -0.75112438271E+02  0.81003576676E+02  0.00000000000E+00 0.  1.
        -11    1    3    3    0    0  0.40020240915E+01  0.40104932277E+02 -0.20758296487E+03  0.21145947389E+03  0.00000000000E+00 0.  1.
         11    1    3    3    0    0 -0.59474218521E+02 -0.29085212545E+02 -0.26376354590E+03  0.27194547322E+03  0.00000000000E+00 0. -1.
          1    1    1    2  501    0  0.27213336686E+02  0.32729162371E+02 -0.29726087819E+02  0.51917280939E+02  0.00000000000E+00 0. -1.
<scales pt_clust_5="13000.00000" pt_clust_6="13000.00000" pt_clust_7="13000.00000" pt_clust_8="13000.00000" pt_clust_9="42.56482"></scales>
<clustering>
<clus scale="   42.565">  1  9  2 -1</clus>
<clus scale="   87.426">  5  6 -1 -1</clus>
<clus scale="   91.182">  7  8 -1 -1</clus>
<clus scale="  101.563">  1  5  2 -1</clus>
<clus scale="   42.565">  1  5  2 -1</clus>
</clustering>
</event>
<event>
 9    1  0.1321469E-005  0.1087409E+03  0.7546771E-02  0.1269074E+00
         21   -1    0    0  501  502  0.00000000000E+00  0.00000000000E+00  0.35626426508E+03  0.35626426508E+03  0.00000000000E+00 0. -1.
         -4   -1    0    0    0  501 -0.00000000000E+00 -0.00000000000E+00 -0.90101987698E+02  0.90101987698E+02  0.00000000000E+00 0.  1.
         23    2    1    2    0    0 -0.12849494593E+02  0.34967562601E+02 -0.41039745460E+02  0.11715651982E+03  0.10321603307E+03 0.  0.
         23    2    1    2    0    0  0.17050420702E+02 -0.97671950464E+01  0.22748613419E+03  0.24549994137E+03  0.90189605927E+02 0.  0.
        -13    1    4    4    0    0  0.49743213539E+02 -0.17328729213E+01  0.79996818033E+02  0.94217201387E+02  0.00000000000E+00 0.  1.
         13    1    4    4    0    0 -0.32692792836E+02 -0.80343221251E+01  0.14748931616E+03  0.15128273998E+03  0.00000000000E+00 0. -1.
        -13    1    3    3    0    0  0.29852548627E+02  0.41212808396E+02 -0.51867121487E+02  0.72662703822E+02  0.00000000000E+00 0.  1.
         13    1    3    3    0    0 -0.42702043220E+02 -0.62452457950E+01  0.10827376026E+02  0.44493815996E+02  0.00000000000E+00 0. -1.
         -4    1    1    2    0  502 -0.42009261093E+01 -0.25200367554E+02  0.79715888651E+02  0.83709791592E+02  0.00000000000E+00 0.  1.
<scales pt_clust_5="13000.00000" pt_clust_6="13000.00000" pt_clust_7="13000.00000" pt_clust_8="13000.00000" pt_clust_9="25.54812"></scales>
<clustering>
<clus scale="   25.548">  1  9  2 -1</clus>
<clus scale="   90.190">  5  6 -1 -1</clus>
<clus scale="   96.464">  1  5  2 -1</clus>
<clus scale="  103.216">  7  8 -1 -1</clus>
<clus scale="   25.548">  1  5  2 -1</clus>
</clustering>
</event>
<event>
 9    1  0.1321469E-005  0.9827388E+02  0.7546771E-02  0.1285778E+00
          3   -1    0    0  502    0 -0.00000000000E+00  0.00000000000E+00  0.56359248367E+02  0.56359248367E+02  0.00000000000E+00 0. -1.
         21   -1    0    0  501  502  0.00000000000E+00 -0.00000000000E+00 -0.28558768610E+03  0.28558768610E+03  0.00000000000E+00 0. -1.
         23    2    1    2    0    0  0.45269629421E+02 -0.28215267484E+01 -0.43031301336E+02  0.11115148789E+03  0.91900272064E+02 0.  0.
         23    2    1    2    0    0 -0.18584593976E+02 -0.18765490591E+02 -0.90840788870E+02  0.12944988205E+03  0.88361146839E+02 0.  0.
        -11    1    4    4    0    0 -0.31853973373E+02  0.28504706688E+02 -0.48166513332E+02  0.64398811554E+02  0.00000000000E+00 0.  1.
         11    1    4    4    0    0  0.13269379397E+02 -0.47270197279E+02 -0.42674275538E+02  0.65051070499E+02  0.00000000000E+00 0. -1.
        -13    1    3    3    0    0  0.53850795218E+01  0.41894705592E+02 -0.13457467069E+02  0.44331352991E+02  0.00000000000E+00 0.  1.
         13    1    3    3    0    0  0.39884549899E+02 -0.44716232340E+02 -0.29573834267E+02  0.66820134904E+02  0.00000000000E+00 0. -1.
          3    1    1    2  501    0 -0.26685035445E+02  0.21587017339E+02 -0.95356347531E+02  0.10134556452E+03  0.00000000000E+00 0. -1.
<scales pt_clust_5="13000.00000" pt_clust_6="13000.00000" pt_clust_7="13000.00000" pt_clust_8="13000.00000" pt_clust_9="34.32332"></scales>
<clustering>
<clus scale="   34.323">  2  9  1 -1</clus>
<clus scale="   88.361">  5  6 -1 -1</clus>
<clus scale="   91.900">  7  8 -1 -1</clus>
<clus scale="   94.973">  2  5  1 -1</clus>
<clus scale="   34.323">  2  5  1 -1</clus>
</clustering>
</event>
<event>
 9    1  0.1321469E-005  0.1909173E+03  0.7546771E-02  0.1157680E+00
          2   -1    0    0  502    0 -0.00000000000E+00  0.00000000000E+00  0.11951861799E+04  0.11951861799E+04  0.00000000000E+00 0. -1.
         21   -1    0    0  501  502  0.00000000000E+00 -0.00000000000E+00 -0.77598746283E+02  0.77598746283E+02  0.00000000000E+00 0. -1.
         23    2    1    2    0    0  0.14989036822E+03  0.52920923334E+02  0.53330470939E+03  0.56388664395E+03  0.91030146447E+02 0.  0.
         23    2    1    2    0    0 -0.17447273436E+03 -0.32168789277E+02  0.62552317447E+03  0.65659418558E+03  0.91439142005E+02 0.  0.
        -11    1    4    4    0    0 -0.22816081981E+02 -0.41561814093E+02  0.16260761452E+03  0.16937884841E+03  0.00000000000E+00 0.  1.
         11    1    4    4    0    0 -0.15165665238E+03  0.93930248167E+01  0.46291555995E+03  0.48721533717E+03  0.00000000000E+00 0. -1.
        -13    1    3    3    0    0  0.15771704576E+03  0.32596148399E+02  0.45771502997E+03  0.48522182976E+03  0.00000000000E+00 0.  1.
         13    1    3    3    0    0 -0.78266775460E+01  0.20324774935E+02  0.75589679420E+02  0.78664814196E+02  0.00000000000E+00 0. -1.
          2    1    1    2  501    0  0.24582366146E+02 -0.20752134057E+02 -0.41240450229E+02  0.52304096669E+02  0.00000000000E+00 0. -1.
<scales pt_clust_5="13000.00000" pt_clust_6="13000.00000" pt_clust_7="13000.00000" pt_clust_8="13000.00000" pt_clust_9="32.17054"></scales>
<clustering>
<clus scale="   32.171">  2  9  1 -1</clus>
<clus scale="   91.030">  7  8 -1 -1</clus>
<clus scale="   91.439">  5  6 -1 -1</clus>
<clus scale="  190.722">  1  7  2 -1</clus>
<clus scale="   32.171">  2  5  1 -1</clus>
</clustering>
</event>
<event>
 9    1  0.1321469E-005  0.1915040E+03  0.7546771E-02  0.1175567E+00
          4   -1    0    0  502    0 -0.00000000000E+00  0.00000000000E+00  0.53980014339E+03  0.53980014339E+03  0.00000000000E+00 0. -1.
         21   -1    0    0  501  502  0.00000000000E+00 -0.00000000000E+00 -0.11463727890E+03  0.11463727890E+03  0.00000000000E+00 0. -1.
         23    2    1    2    0    0  0.97708889288E+01  0.86201308066E+02  0.83142845775E+02  0.15030415416E+03  0.90291030405E+02 0.  0.
         23    2    1    2    0    0 -0.13617602941E+03  0.61065073152E+02  0.18411490590E+03  0.25393400508E+03  0.91166475272E+02 0.  0.
        -11    1    4    4    0    0 -0.12070059110E+02 -0.15964967822E+02  0.14754539441E+01  0.20068470017E+02  0.00000000000E+00 0.  1.
         11    1    4    4    0    0 -0.12410597030E+03  0.77030040974E+02  0.18263945196E+03  0.23386553506E+03  0.00000000000E+00 0. -1.
        -13    1    3    3    0    0  0.38887070030E+02  0.12990901584E+02  0.50433956705E+02  0.64996551666E+02  0.00000000000E+00 0.  1.
         13    1    3    3    0    0 -0.29116181101E+02  0.73210406483E+02  0.32708889070E+02  0.85307602495E+02  0.00000000000E+00 0. -1.
          4    1    1    2  501    0  0.12640514048E+03 -0.14726638122E+03  0.15790511281E+03  0.25019926305E+03  0.00000000000E+00 0. -1.
<scales pt_clust_5="13000.00000" pt_clust_6="13000.00000" pt_clust_7="13000.00000" pt_clust_8="13000.00000" pt_clust_9="168.41161"></scales>
<clustering>
<clus scale="   90.291">  7  8 -1 -1</clus>
<clus scale="   91.166">  5  6 -1 -1</clus>
<clus scale="  125.214">  1  7  2 -1</clus>
<clus scale="  168.412">  2  9  1 -1</clus>
<clus scale="  168.412">  2  5  1 -1</clus>
</clustering>
</event>
<event>
 9    1  0.1321469E-005  0.9975758E+02  0.7546771E-02  0.1281006E+00
         21   -1    0    0  501  502  0.00000000000E+00  0.00000000000E+00  0.47694012773E+02  0.47694012773E+02  0.00000000000E+00 0. -1.
          1   -1    0    0  502    0 -0.00000000000E+00 -0.00000000000E+00 -0.51602713516E+03  0.51602713516E+03  0.00000000000E+00 0. -1.
         23    2    1    2    0    0 -0.35864045111E+02 -0.96282827017E+01 -0.27851907520E+03  0.29547028774E+03  0.91383161079E+02 0.  0.
         23    2    1    2    0    0  0.26561009640E+02  0.40682904152E+02 -0.20697465576E+03  0.23157085925E+03  0.91793076009E+02 0.  0.
        -11    1    3    3    0    0  0.23905773689E+02 -0.14752238911E+02 -0.16197826127E+03  0.16439608175E+03  0.00000000000E+00 0.  1.
         11    1    3    3    0    0 -0.59769818800E+02  0.51239562095E+01 -0.11654081393E+03  0.13107420599E+03  0.00000000000E+00 0. -1.
        -11    1    4    4    0    0  0.29416851018E+02 -0.24621660686E+02 -0.82208557019E+02  0.90718378215E+02  0.00000000000E+00 0.  1.
         11    1    4    4    0    0 -0.28558413781E+01  0.65304564837E+02 -0.12476609874E+03  0.14085248103E+03  0.00000000000E+00 0. -1.
          1    1    1    2  501    0  0.93030354708E+01 -0.31054621450E+02  0.17160608573E+02  0.36680000940E+02  0.00000000000E+00 0. -1.
<scales pt_clust_5="13000.00000" pt_clust_6="13000.00000" pt_clust_7="13000.00000" pt_clust_8="13000.00000" pt_clust_9="32.41814"></scales>
<clustering>
<clus scale="   32.418">  1  9  2 -1</clus>
<clus scale="   91.383">  5  6 -1 -1</clus>
<clus scale="   91.793">  7  8 -1 -1</clus>
<clus scale="   99.381">  2  5  1 -1</clus>
<clus scale="   32.418">  1  5  2 -1</clus>
</clustering>
</event>
<event>
 9    1  0.1321469E-005  0.1116085E+03  0.7546771E-02  0.1258955E+00
          2   -1    0    0  502    0 -0.00000000000E+00  0.00000000000E+00  0.21066874679E+03  0.21066874679E+03  0.00000000000E+00 0. -1.
         21   -1    0    0  501  502  0.00000000000E+00 -0.00000000000E+00 -0.23087353761E+03  0.23087353761E+03  0.00000000000E+00 0.  1.
         23    2    1    2    0    0  0.43628666760E+02 -0.47175211573E+02  0.17312947595E+03  0.20466598285E+03  0.88234845393E+02 0.  0.
         23    2    1    2    0    0 -0.19966698062E+02  0.56967215657E+02 -0.14222711898E+03  0.17971239106E+03  0.91782664144E+02 0.  0.
        -13    1    3    3    0    0  0.14572285362E+02 -0.66178664169E+02  0.77599421164E+02  0.10302250850E+03  0.00000000000E+00 0. -1.
         13    1    3    3    0    0  0.29056381398E+02  0.19003452596E+02  0.95530054786E+02  0.10164347435E+03  0.00000000000E+00 0.  1.
        -13    1    4    4    0    0 -0.65116403067E+00  0.69871036333E+02 -0.13988470268E+03  0.15636532792E+03  0.00000000000E+00 0.  1.
         13    1    4    4    0    0 -0.19315534032E+02 -0.12903820676E+02 -0.23424162945E+01  0.23347063136E+02  0.00000000000E+00 0. -1.
          2    1    1    2  501    0 -0.23661968697E+02 -0.97920040845E+01 -0.51107147802E+02  0.57163910495E+02  0.00000000000E+00 0. -1.
<scales pt_clust_5="13000.00000" pt_clust_6="13000.00000" pt_clust_7="13000.00000" pt_clust_8="13000.00000" pt_clust_9="25.60805"></scales>
<clustering>
<clus scale="   25.608">  2  9  1 -1</clus>
<clus scale="   88.235">  5  6 -1 -1</clus>
<clus scale="   91.783">  7  8 -1 -1</clus>
<clus scale="  108.710">  1  5  2 -1</clus>
<clus scale="   25.608">  2  5  1 -1</clus>
</clustering>
</event>
<event>
 9    1  0.1321469E-005  0.1182380E+03  0.7546771E-02  0.1246554E+00
         21   -1    0    0  501  502  0.00000000000E+00  0.00000000000E+00  0.28046397890E+03  0.28046397890E+03  0.00000000000E+00 0. -1.
         -4   -1    0    0    0  501 -0.00000000000E+00 -0.00000000000E+00 -0.16867902256E+03  0.16867902256E+03  0.00000000000E+00 0.  1.
         23    2    1    2    0    0 -0.51617449146E+02  0.55616549222E+02 -0.12515436949E+03  0.17208086024E+03  0.90502180397E+02 0.  0.
         23    2    1    2    0    0  0.69567685815E+02 -0.41541618252E+02  0.20725623566E+03  0.23962685680E+03  0.88884837402E+02 0.  0.
        -11    1    4    4    0    0  0.79167200367E+02 -0.49575015386E+01  0.16393930590E+03  0.18212116421E+03  0.00000000000E+00 0. -1.
         11    1    4    4    0    0 -0.95995145525E+01 -0.36584116714E+02  0.43316929768E+02  0.57505692587E+02  0.00000000000E+00 0.  1.
        -13    1    3    3    0    0 -0.85080812854E+01  0.50182278915E+02 -0.14079519270E+02  0.52809861078E+02  0.00000000000E+00 0. -1.
         13    1    3    3    0    0 -0.43109367861E+02  0.54342703072E+01 -0.11107485022E+03  0.11927099916E+03  0.00000000000E+00 0.  1.
         -4    1    1    2    0  502 -0.17950236668E+02 -0.14074930969E+02  0.29683090164E+02  0.37435284425E+02  0.00000000000E+00 0.  1.
<scales pt_clust_5="13000.00000" pt_clust_6="13000.00000" pt_clust_7="13000.00000" pt_clust_8="13000.00000" pt_clust_9="22.81041"></scales>
<clustering>
<clus scale="   22.810">  1  9  2 -1</clus>
<clus scale="   88.885">  5  6 -1 -1</clus>
<clus scale="   90.502">  7  8 -1 -1</clus>
<clus scale="  117.005">  1  5  2 -1</clus>
<clus scale="   22.810">  1  5  2 -1</clus>
</clustering>
</event>
<event>
 9    1  0.1321469E-005  0.1393986E+03  0.7546771E-02  0.1224129E+00
         21   -1    0    0  501  502  0.00000000000E+00  0.00000000000E+00  0.16447892379E+03  0.16447892379E+03  0.00000000000E+00 0. -1.
          1   -1    0    0  502    0 -0.00000000000E+00 -0.00000000000E+00 -0.45825572237E+03  0.45825572237E+03  0.00000000000E+00 0. -1.
         23    2    1    2    0    0 -0.21005211819E+01 -0.59967414514E+02 -0.25137820720E+03  0.27485664324E+03  0.93566384367E+02 0.  0.
         23    2    1    2    0    0  0.24087373950E+02  0.69017624114E+02 -0.16726187007E+03  0.22077109376E+03  0.12417611943E+03 0.  0.
        -11    1    4    4    0    0 -0.16860359550E+02  0.94005906739E+02 -0.12074922020E+03  0.15395374762E+03  0.00000000000E+00 0.  1.
         11    1    4    4    0    0  0.40947733500E+02 -0.24988282625E+02 -0.46512649872E+02  0.66817346142E+02  0.00000000000E+00 0. -1.
        -11    1    3    3    0    0 -0.15689360725E+02  0.20397620720E+02 -0.96114425084E+02  0.99499757186E+02  0.00000000000E+00 0.  1.
         11    1    3    3    0    0  0.13588839543E+02 -0.80365035234E+02 -0.15526378212E+03  0.17535688605E+03  0.00000000000E+00 0. -1.
          1    1    1    2  501    0 -0.21986852768E+02 -0.90502096000E+01  0.12486327870E+03  0.12710690916E+03  0.00000000000E+00 0. -1.
<scales pt_clust_5="13000.00000" pt_clust_6="13000.00000" pt_clust_7="13000.00000" pt_clust_8="13000.00000" pt_clust_9="23.77663"></scales>
<clustering>
<clus scale="   23.777">  1  9  2 -1</clus>
<clus scale="   93.566">  7  8 -1 -1</clus>
<clus scale="  112.991">  2  7  1 -1</clus>
<clus scale="  124.176">  5  6 -1 -1</clus>
<clus scale="   23.777">  1  5  2 -1</clus>
</clustering>
</event>
<event>
 9    1  0.1321469E-005  0.9821113E+02  0.7546771E-02  0.1284106E+00
         21   -1    0    0  501  502  0.00000000000E+00  0.00000000000E+00  0.83202606444E+02  0.83202606444E+02  0.00000000000E+00 0.  1.
         -2   -1    0    0    0  501 -0.00000000000E+00 -0.00000000000E+00 -0.34651435630E+03  0.34651435630E+03  0.00000000000E+00 0.  1.
         23    2    1    2    0    0 -0.27282173160E+02 -0.12619786856E+01 -0.17088439267E+03  0.19540659943E+03  0.90754360123E+02 0.  0.
         23    2    1    2    0    0  0.49474474406E+02  0.19511821432E+02 -0.14217584707E+03  0.17686067019E+03  0.90759519474E+02 0.  0.
        -13    1    3    3    0    0 -0.34759452936E+02  0.33182723371E+02 -0.14176021139E+03  0.14968390104E+03  0.00000000000E+00 0. -1.
         13    1    3    3    0    0  0.74772797761E+01 -0.34444702057E+02 -0.29124181277E+02  0.45722698386E+02  0.00000000000E+00 0.  1.
        -13    1    4    4    0    0  0.19059149451E+02  0.30685548072E+02 -0.13977695682E+03  0.14436915078E+03  0.00000000000E+00 0.  1.
         13    1    4    4    0    0  0.30415324955E+02 -0.11173726641E+02 -0.23988902531E+01  0.32491519411E+02  0.00000000000E+00 0. -1.
         -2    1    1    2    0  502 -0.22192301246E+02 -0.18249842746E+02  0.49748489882E+02  0.57449693127E+02  0.00000000000E+00 0.  1.
<scales pt_clust_5="13000.00000" pt_clust_6="13000.00000" pt_clust_7="13000.00000" pt_clust_8="13000.00000" pt_clust_9="28.73247"></scales>
<clustering>
<clus scale="   28.732">  1  9  2 -1</clus>
<clus scale="   90.754">  5  6 -1 -1</clus>
<clus scale="   90.760">  7  8 -1 -1</clus>
<clus scale="   98.206">  2  5  1 -1</clus>
<clus scale="   28.732">  1  5  2 -1</clus>
</clustering>
</event>
<event>
 9    1  0.1321469E-005  0.1000370E+03  0.7546771E-02  0.1281936E+00
          1   -1    0    0  502    0 -0.00000000000E+00  0.00000000000E+00  0.60550249186E+03  0.60550249186E+03  0.00000000000E+00 0. -1.
         21   -1    0    0  501  502  0.00000000000E+00 -0.00000000000E+00 -0.16056092999E+03  0.16056092999E+03  0.00000000000E+00 0. -1.
         23    2    1    2    0    0 -0.26961004853E+02 -0.34689982007E+02  0.55973669598E+03  0.56883759242E+03  0.91327690718E+02 0.  0.
         23    2    1    2    0    0 -0.41242310224E+01  0.95297163206E+01 -0.14942404538E+02  0.89662366945E+02  0.87796582041E+02 0.  0.
        -11    1    3    3    0    0  0.34022284037E+02 -0.10388452368E+02  0.21047153970E+03  0.21345656415E+03  0.00000000000E+00 0.  1.
         11    1    3    3    0    0 -0.60983288891E+02 -0.24301529640E+02  0.34926515628E+03  0.35538102827E+03  0.00000000000E+00 0. -1.
        -13    1    4    4    0    0 -0.33972671834E+02 -0.91722003955E+01  0.19641007131E+02  0.40299390228E+02  0.00000000000E+00 0. -1.
         13    1    4    4    0    0  0.29848440811E+02  0.18701916716E+02 -0.34583411669E+02  0.49362976717E+02  0.00000000000E+00 0.  1.
          1    1    1    2  501    0  0.31085235876E+02  0.25160265687E+02 -0.99852729568E+02  0.10756346248E+03  0.00000000000E+00 0. -1.
<scales pt_clust_5="13000.00000" pt_clust_6="13000.00000" pt_clust_7="13000.00000" pt_clust_8="13000.00000" pt_clust_9="39.99163"></scales>
<clustering>
<clus scale="   39.992">  2  9  1 -1</clus>
<clus scale="   87.797">  7  8 -1 -1</clus>
<clus scale="   91.328">  5  6 -1 -1</clus>
<clus scale="   96.824">  2  7  1 -1</clus>
<clus scale="   39.992">  2  5  1 -1</clus>
</clustering>
</event>
<event>
 9    1  0.1321469E-005  0.9500087E+02  0.7546771E-02  0.1295254E+00
          1   -1    0    0  502    0 -0.00000000000E+00  0.00000000000E+00  0.11781042778E+03  0.11781042778E+03  0.00000000000E+00 0. -1.
         21   -1    0    0  501  502  0.00000000000E+00 -0.00000000000E+00 -0.20277585638E+03  0.20277585638E+03  0.00000000000E+00 0.  1.
         23    2    1    2    0    0  0.18283196623E+02  0.57282631642E+01  0.74989925056E+02  0.12055748669E+03  0.92431220151E+02 0.  0.
         23    2    1    2    0    0 -0.39162902638E+02  0.32901345787E+01 -0.10674060258E+03  0.14215735933E+03  0.85267817163E+02 0.  0.
        -11    1    4    4    0    0  0.16480453723E+02  0.26933072956E+02 -0.23896268831E+02  0.39598326200E+02  0.00000000000E+00 0. -1.
         11    1    4    4    0    0 -0.55643356360E+02 -0.23642938377E+02 -0.82844333751E+02  0.10255903313E+03  0.00000000000E+00 0.  1.
        -13    1    3    3    0    0 -0.13068321368E+02 -0.37565390012E+02  0.41486452254E+02  0.57472300030E+02  0.00000000000E+00 0.  1.
         13    1    3    3    0    0  0.31351517991E+02  0.43293653176E+02  0.33503472802E+02  0.63085186656E+02  0.00000000000E+00 0. -1.
          1    1    1    2  501    0  0.20879706015E+02 -0.90183977429E+01 -0.53214751069E+02  0.57871438140E+02  0.00000000000E+00 0. -1.
<scales pt_clust_5="13000.00000" pt_clust_6="13000.00000" pt_clust_7="13000.00000" pt_clust_8="13000.00000" pt_clust_9="22.74409"></scales>
<clustering>
<clus scale="   22.744">  2  9  1 -1</clus>
<clus scale="   85.268">  5  6 -1 -1</clus>
<clus scale="   88.047">  2  5  1 -1</clus>
<clus scale="   92.431">  7  8 -1 -1</clus>
<clus scale="   22.744">  2  5  1 -1</clus>
</clustering>
</event>
<event>
 9    1  0.1321469E-005  0.2822932E+03  0.7546771E-02  0.1094626E+00
          2   -1    0    0  502    0 -0.00000000000E+00  0.00000000000E+00  0.17315914299E+04  0.17315914299E+04  0.00000000000E+00 0. -1.
         21   -1    0    0  501  502  0.00000000000E+00 -0.00000000000E+00 -0.88809337728E+03  0.88809337728E+03  0.00000000000E+00 0. -1.
         23    2    1    2    0    0 -0.26152963927E+03 -0.16040385323E+03  0.13112577287E+04  0.13498221743E+04  0.92173330228E+02 0.  0.
         23    2    1    2    0    0  0.16712229355E+03  0.11553026831E+03  0.36698858998E+03  0.42859510508E+03  0.87954732811E+02 0.  0.
        -11    1    3    3    0    0 -0.81784131320E+02 -0.10228788919E+03  0.50098384121E+03  0.51781875745E+03  0.00000000000E+00 0.  1.
         11    1    3    3    0    0 -0.17974550795E+03 -0.58115964041E+02  0.81027388749E+03  0.83200341686E+03  0.00000000000E+00 0. -1.
        -11    1    4    4    0    0  0.15948557654E+02 -0.14060723494E+02  0.24573855609E+02  0.32495150652E+02  0.00000000000E+00 0.  1.
         11    1    4    4    0    0  0.15117373590E+03  0.12959099181E+03  0.34241473437E+03  0.39609995443E+03  0.00000000000E+00 0. -1.
          2    1    1    2  501    0  0.94407345720E+02  0.44873584916E+02 -0.83474826609E+03  0.84126752777E+03  0.00000000000E+00 0. -1.
<scales pt_clust_5="13000.00000" pt_clust_6="13000.00000" pt_clust_7="13000.00000" pt_clust_8="13000.00000" pt_clust_9="104.52935"></scales>
<clustering>
<clus scale="   87.955">  7  8 -1 -1</clus>
<clus scale="   92.173">  5  6 -1 -1</clus>
<clus scale="  104.529">  2  9  1 -1</clus>
<clus scale="  280.944">  2  7  1 -1</clus>
<clus scale="  104.529">  2  5  1 -1</clus>
</clustering>
</event>
<event>
 9    1  0.1321469E-005  0.1058210E+03  0.7546771E-02  0.1269193E+00
         -1   -1    0    0    0  501 -0.00000000000E+00  0.00000000000E+00  0.18522977174E+03  0.18522977174E+03  0.00000000000E+00 0.  1.
         21   -1    0    0  501  502  0.00000000000E+00 -0.00000000000E+00 -0.90319118383E+02  0.90319118383E+02  0.00000000000E+00 0. -1.
         23    2    1    2    0    0  0.15035452246E+02 -0.57954186373E+02  0.61603204318E+02  0.12652353819E+03  0.92889710905E+02 0.  0.
         23    2    1    2    0    0 -0.17615781370E+02  0.31668315832E+02 -0.95387071813E+01  0.98692478066E+02  0.91301808915E+02 0.  0.
        -11    1    3    3    0    0 -0.21717628450E+02  0.16587473606E+02  0.17291218228E+02  0.32338613049E+02  0.00000000000E+00 0. -1.
         11    1    3    3    0    0  0.36753080696E+02 -0.74541659979E+02  0.44311986090E+02  0.94184925143E+02  0.00000000000E+00 0.  1.
        -13    1    4    4    0    0  0.33871124448E+02  0.27889940454E+01 -0.18953001857E+02  0.38913337541E+02  0.00000000000E+00 0.  1.
         13    1    4    4    0    0 -0.51486905819E+02  0.28879321787E+02  0.94142946761E+01  0.59779140525E+02  0.00000000000E+00 0. -1.
         -1    1    1    2    0  502  0.25803291238E+01  0.26285870541E+02  0.42846156216E+02  0.50332873859E+02  0.00000000000E+00 0.  1.
<scales pt_clust_5="13000.00000" pt_clust_6="13000.00000" pt_clust_7="13000.00000" pt_clust_8="13000.00000" pt_clust_9="26.41223"></scales>
<clustering>
<clus scale="   26.412">  2  9  1 -1</clus>
<clus scale="   91.302">  7  8 -1 -1</clus>
<clus scale="   92.890">  5  6 -1 -1</clus>
<clus scale="  104.430">  2  7  1 -1</clus>
<clus scale="   26.412">  2  5  1 -1</clus>
</clustering>
</event>
<event>
 9    1  0.1321469E-005  0.1176006E+03  0.7546771E-02  0.1247608E+00
         21   -1    0    0  501  502  0.00000000000E+00  0.00000000000E+00  0.16198281611E+03  0.16198281611E+03  0.00000000000E+00 0.  1.
         -2   -1    0    0    0  501 -0.00000000000E+00 -0.00000000000E+00 -0.21915866115E+03  0.21915866115E+03  0.00000000000E+00 0.  1.
         23    2    1    2    0    0  0.29898325433E+02 -0.88744342272E+02 -0.13286877724E+03  0.18722116092E+03  0.92888013127E+02 0.  0.
         23    2    1    2    0    0 -0.32787228205E+02  0.13545973154E+02  0.19405914703E+02  0.99944953525E+02  0.91399718203E+02 0.  0.
        -11    1    3    3    0    0  0.89542626545E+01 -0.40007759573E+02  0.32551314427E+01  0.41126579319E+02  0.00000000000E+00 0. -1.
         11    1    3    3    0    0  0.20944062778E+02 -0.48736582699E+02 -0.13612390868E+03  0.14609458160E+03  0.00000000000E+00 0.  1.
        -13    1    4    4    0    0 -0.60151030411E+02  0.10561011019E+02 -0.74063679853E+01  0.61518580120E+02  0.00000000000E+00 0.  1.
         13    1    4    4    0    0  0.27363802206E+02  0.29849621354E+01  0.26812282688E+02  0.38426373405E+02  0.00000000000E+00 0. -1.
         -2    1    1    2    0  502  0.28889027726E+01  0.75198369118E+02  0.56287017493E+02  0.93975362811E+02  0.00000000000E+00 0.  1.
<scales pt_clust_5="13000.00000" pt_clust_6="13000.00000" pt_clust_7="13000.00000" pt_clust_8="13000.00000" pt_clust_9="75.25384"></scales>
<clustering>
<clus scale="   75.254">  1  9  2 -1</clus>
<clus scale="   91.400">  7  8 -1 -1</clus>
<clus scale="   92.888">  5  6 -1 -1</clus>
<clus scale="  116.429">  1  7  2 -1</clus>
<clus scale="   75.254">  1  5  2 -1</clus>
</clustering>
</event>
<event>
 9    1  0.1321469E-005  0.9484076E+02  0.7546771E-02  0.1291544E+00
         -3   -1    0    0    0  501 -0.00000000000E+00  0.00000000000E+00  0.11946158968E+03  0.11946158968E+03  0.00000000000E+00 0.  1.
         21   -1    0    0  501  502  0.00000000000E+00 -0.00000000000E+00 -0.16274841663E+03  0.16274841663E+03  0.00000000000E+00 0.  1.
         23    2    1    2    0    0 -0.30864065257E+02  0.23047746760E+02  0.53076656549E+02  0.11171187543E+03  0.90435736776E+02 0.  0.
         23    2    1    2    0    0  0.13539439755E+02  0.16863798719E+02 -0.45412882302E+02  0.10349784825E+03  0.90453140228E+02 0.  0.
        -11    1    3    3    0    0 -0.10468758822E+02 -0.35106835242E+02  0.21250904161E+02  0.42351926988E+02  0.00000000000E+00 0. -1.
         11    1    3    3    0    0 -0.20395306435E+02  0.58154582002E+02  0.31825752388E+02  0.69359948439E+02  0.00000000000E+00 0.  1.
        -11    1    4    4    0    0  0.24480260036E+02 -0.29050187646E+02 -0.41306963882E+02  0.56120065920E+02  0.00000000000E+00 0. -1.
         11    1    4    4    0    0 -0.10940820281E+02  0.45913986365E+02 -0.41059184198E+01  0.47377782329E+02  0.00000000000E+00 0.  1.
         -3    1    1    2    0  502  0.17324625502E+02 -0.39911545480E+02 -0.50950601194E+02  0.67000282637E+02  0.00000000000E+00 0.  1.
<scales pt_clust_5="13000.00000" pt_clust_6="13000.00000" pt_clust_7="13000.00000" pt_clust_8="13000.00000" pt_clust_9="43.50947"></scales>
<clustering>
<clus scale="   43.509">  2  9  1 -1</clus>
<clus scale="   90.436">  5  6 -1 -1</clus>
<clus scale="   90.453">  7  8 -1 -1</clus>
<clus scale="   94.824">  1  5  2 -1</clus>
<clus scale="   43.509">  2  5  1 -1</clus>
</clustering>
</event>
<event>
 9    1  0.1321469E-005  0.2468902E+03  0.7546771E-02  0.1115330E+00
         21   -1    0    0  501  502  0.00000000000E+00  0.00000000000E+00  0.19959003810E+03  0.19959003810E+03  0.00000000000E+00 0. -1.
          1   -1    0    0  502    0 -0.00000000000E+00 -0.00000000000E+00 -0.17051602421E+04  0.17051602421E+04  0.00000000000E+00 0. -1.
         23    2    1    2    0    0  0.22316489842E+03 -0.66275371583E+02 -0.97862579179E+03  0.10098898148E+04  0.89297261905E+02 0.  0.
         23    2    1    2    0    0 -0.21046414817E+03  0.83743050905E+02 -0.68927135471E+03  0.73110312918E+03  0.90048480533E+02 0.  0.
        -11    1    4    4    0    0 -0.64265268221E+02 -0.92726723797E+01 -0.26437393679E+03  0.27223075801E+03  0.00000000000E+00 0.  1.
         11    1    4    4    0    0 -0.14619887995E+03  0.93015723285E+02 -0.42489741791E+03  0.45887237117E+03  0.00000000000E+00 0. -1.
        -13    1    3    3    0    0  0.14519913448E+03 -0.56171270263E+02 -0.79566406624E+03  0.81075230901E+03  0.00000000000E+00 0. -1.
         13    1    3    3    0    0  0.77965763939E+02 -0.10104101319E+02 -0.18296172554E+03  0.19913750582E+03  0.00000000000E+00 0.  1.
          1    1    1    2  501    0 -0.12700750251E+02 -0.17467679323E+02  0.16232694252E+03  0.16375733616E+03  0.00000000000E+00 0. -1.
<scales pt_clust_5="13000.00000" pt_clust_6="13000.00000" pt_clust_7="13000.00000" pt_clust_8="13000.00000" pt_clust_9="21.59696"></scales>
<clustering>
<clus scale="   21.597">  1  9  2 -1</clus>
<clus scale="   89.297">  7  8 -1 -1</clus>
<clus scale="   90.048">  5  6 -1 -1</clus>
<clus scale="  246.617">  2  7  1 -1</clus>
<clus scale="   21.597">  1  5  2 -1</clus>
</clustering>
</event>
<event>
 9    1  0.1321469E-005  0.1921677E+03  0.7546771E-02  0.1156814E+00
          2   -1    0    0  502    0 -0.00000000000E+00  0.00000000000E+00  0.19304221673E+03  0.19304221673E+03  0.00000000000E+00 0. -1.
         21   -1    0    0  501  502  0.00000000000E+00 -0.00000000000E+00 -0.23349502085E+03  0.23349502085E+03  0.00000000000E+00 0.  1.
         23    2    1    2    0    0 -0.15153814105E+03  0.44417672113E+02  0.19660813899E+02  0.18375583689E+03  0.91885375339E+02 0.  0.
         23    2    1    2    0    0  0.17911537401E+03 -0.34831181789E+02 -0.47319518769E+02  0.21090517835E+03  0.94585035630E+02 0.  0.
        -11    1    3    3    0    0 -0.93804887327E+02  0.70852612979E+02  0.95384097915E+00  0.11756002495E+03  0.00000000000E+00 0.  1.
         11    1    3    3    0    0 -0.57733253719E+02 -0.26434940866E+02  0.18706972920E+02  0.66195811948E+02  0.00000000000E+00 0. -1.
        -13    1    4    4    0    0  0.14788072267E+03 -0.65492495074E+02 -0.38585626357E+02  0.16627334606E+03  0.00000000000E+00 0.  1.
         13    1    4    4    0    0  0.31234651343E+02  0.30661313285E+02 -0.87338924124E+01  0.44631832290E+02  0.00000000000E+00 0. -1.
          2    1    1    2  501    0 -0.27577232967E+02 -0.95864903241E+01 -0.12794099249E+02  0.31876222337E+02  0.00000000000E+00 0. -1.
<scales pt_clust_5="13000.00000" pt_clust_6="13000.00000" pt_clust_7="13000.00000" pt_clust_8="13000.00000" pt_clust_9="29.19597"></scales>
<clustering>
<clus scale="   29.196">  2  9  1 -1</clus>
<clus scale="   91.885">  5  6 -1 -1</clus>
<clus scale="   94.585">  7  8 -1 -1</clus>
<clus scale="  190.853">  1  5  2 -1</clus>
<clus scale="   29.196">  2  5  1 -1</clus>
</clustering>
</event>
<event>
 9    1  0.1321469E-005  0.1413494E+03  0.7546771E-02  0.1212357E+00
          2   -1    0    0  502    0 -0.00000000000E+00  0.00000000000E+00  0.11267172245E+04  0.11267172245E+04  0.00000000000E+00 0. -1.
         21   -1    0    0  501  502  0.00000000000E+00 -0.00000000000E+00 -0.50028365343E+02  0.50028365343E+02  0.00000000000E+00 0. -1.
         23    2    1    2    0    0  0.43703573570E+02  0.56607887637E+02  0.24450473557E+03  0.27187285373E+03  0.94962242999E+02 0.  0.
         23    2    1    2    0    0 -0.14588167979E+03 -0.10739034489E+03  0.31061898229E+03  0.37097253947E+03  0.91226762559E+02 0.  0.
        -11    1    4    4    0    0 -0.11704591878E+03 -0.31906170667E+02  0.17113664888E+03  0.20977488749E+03  0.00000000000E+00 0. -1.
         11    1    4    4    0    0 -0.28835761011E+02 -0.75484174226E+02  0.13948233341E+03  0.16119765199E+03  0.00000000000E+00 0.  1.
        -13    1    3    3    0    0  0.58607944632E+02 -0.70117545903E+00  0.13967899892E+03  0.15147806957E+03  0.00000000000E+00 0.  1.
         13    1    3    3    0    0 -0.14904371062E+02  0.57309063096E+02  0.10482573665E+03  0.12039478416E+03  0.00000000000E+00 0. -1.
          2    1    1    2  501    0  0.10217810622E+03  0.50782457256E+02  0.52156514128E+03  0.53390019663E+03  0.00000000000E+00 0. -1.
<scales pt_clust_5="13000.00000" pt_clust_6="13000.00000" pt_clust_7="13000.00000" pt_clust_8="13000.00000" pt_clust_9="114.10187"></scales>
<clustering>
<clus scale="   91.227">  5  6 -1 -1</clus>
<clus scale="   94.962">  7  8 -1 -1</clus>
<clus scale="  114.102">  2  9  1 -1</clus>
<clus scale="  138.867">  2  5  1 -1</clus>
<clus scale="  114.102">  2  5  1 -1</clus>
</clustering>
</event>
<event>
 9    1  0.1321469E-005  0.9697182E+02  0.7546771E-02  0.1288238E+00
         21   -1    0    0  501  502  0.00000000000E+00  0.00000000000E+00  0.33039444715E+02  0.33039444715E+02  0.00000000000E+00 0. -1.
          1   -1    0    0  502    0 -0.00000000000E+00 -0.00000000000E+00 -0.70292410295E+03  0.70292410295E+03  0.00000000000E+00 0. -1.
         23    2    1    2    0    0 -0.24030827428E+02  0.15968440150E+02 -0.39042155945E+03  0.40190634636E+03  0.90924393929E+02 0.  0.
         23    2    1    2    0    0  0.46513634462E+02 -0.31232467241E+02 -0.76964945988E+02  0.12974379249E+03  0.88152501828E+02 0.  0.
        -11    1    4    4    0    0  0.42978070755E+02 -0.51052542674E+02 -0.20523370309E+02  0.69818947344E+02  0.00000000000E+00 0. -1.
         11    1    4    4    0    0  0.35355637071E+01  0.19820075434E+02 -0.56441575679E+02  0.59924845148E+02  0.00000000000E+00 0.  1.
        -13    1    3    3    0    0  0.69786740001E+01 -0.33999414886E+02 -0.10848990437E+03  0.11390663481E+03  0.00000000000E+00 0. -1.
         13    1    3    3    0    0 -0.31009501428E+02  0.49967855035E+02 -0.28193165508E+03  0.28799971155E+03  0.00000000000E+00 0.  1.
          1    1    1    2  501    0 -0.22482807035E+02  0.15264027091E+02 -0.20249815280E+03  0.20431340882E+03  0.00000000000E+00 0. -1.
<scales pt_clust_5="13000.00000" pt_clust_6="13000.00000" pt_clust_7="13000.00000" pt_clust_8="13000.00000" pt_clust_9="27.17477"></scales>
<clustering>
<clus scale="   27.175">  1  9  2 -1</clus>
<clus scale="   88.153">  5  6 -1 -1</clus>
<clus scale="   90.924">  7  8 -1 -1</clus>
<clus scale="   94.378">  1  5  2 -1</clus>
<clus scale="   27.175">  1  5  2 -1</clus>
</clustering>
</event>
<event>
 9    1  0.1321469E-005  0.1294193E+03  0.7546771E-02  0.1241602E+00
         21   -1    0    0  501  502  0.00000000000E+00  0.00000000000E+00  0.54306283406E+02  0.54306283406E+02  0.00000000000E+00 0. -1.
          1   -1    0    0  502    0 -0.00000000000E+00 -0.00000000000E+00 -0.71803980780E+03  0.71803980780E+03  0.00000000000E+00 0. -1.
         23    2    1    2    0    0  0.31335535854E+02  0.42626324864E+01 -0.43591492687E+03  0.44692617838E+03  0.93386827827E+02 0.  0.
         23    2    1    2    0    0  0.36334119332E+02  0.73067298875E+02 -0.87673339948E+02  0.15163903431E+03  0.92998837600E+02 0.  0.
        -11    1    3    3    0    0 -0.57425029019E+01 -0.40203833031E+02 -0.17052355556E+03  0.17529291923E+03  0.00000000000E+00 0.  1.
         11    1    3    3    0    0  0.37078038756E+02  0.44466465517E+02 -0.26539137131E+03  0.27163325915E+03  0.00000000000E+00 0. -1.
        -11    1    4    4    0    0  0.60539769157E+02  0.18916357783E+02 -0.35745646310E+02  0.72805518139E+02  0.00000000000E+00 0.  1.
         11    1    4    4    0    0 -0.24205649825E+02  0.54150941093E+02 -0.51927693639E+02  0.78833516167E+02  0.00000000000E+00 0. -1.
          1    1    1    2  501    0 -0.67669655186E+02 -0.77329931362E+02 -0.14014525758E+03  0.17378087852E+03  0.00000000000E+00 0. -1.
<scales pt_clust_5="13000.00000" pt_clust_6="13000.00000" pt_clust_7="13000.00000" pt_clust_8="13000.00000" pt_clust_9="90.00325"></scales>
<clustering>
<clus scale="   92.999">  7  8 -1 -1</clus>
<clus scale="   93.387">  5  6 -1 -1</clus>
<clus scale="   98.596">  2  5  1 -1</clus>
<clus scale="   90.003">  1  9  2 -1</clus>
<clus scale="   90.003">  1  5  2 -1</clus>
</clustering>
</event>
<event>
 9    1  0.1321469E-005  0.9555415E+02  0.7546771E-02  0.1291917E+00
          2   -1    0    0  502    0 -0.00000000000E+00  0.00000000000E+00  0.11039288975E+03  0.11039288975E+03  0.00000000000E+00 0. -1.
         21   -1    0    0  501  502  0.00000000000E+00 -0.00000000000E+00 -0.22179924912E+03  0.22179924912E+03  0.00000000000E+00 0.  1.
         23    2    1    2    0    0  0.19444571602E+02 -0.15378453571E+01  0.67568111946E+02  0.11376992157E+03  0.89429799105E+02 0.  0.
         23    2    1    2    0    0 -0.40207386775E+02 -0.68512630277E+01 -0.15743988726E+03  0.18735438919E+03  0.93009544101E+02 0.  0.
        -13    1    4    4    0    0 -0.45478695947E+02  0.21341637332E+02 -0.34084636341E+02  0.60708646036E+02  0.00000000000E+00 0.  1.
         13    1    4    4    0    0  0.52713091711E+01 -0.28192900360E+02 -0.12335525092E+03  0.12664574316E+03  0.00000000000E+00 0. -1.
        -13    1    3    3    0    0  0.22685015644E+02 -0.36050701952E+02  0.66644080465E+02  0.79092961172E+02  0.00000000000E+00 0. -1.
         13    1    3    3    0    0 -0.32404440419E+01  0.34512856595E+02  0.92403148045E+00  0.34676960393E+02  0.00000000000E+00 0.  1.
          2    1    1    2  501    0  0.20762815173E+02  0.83891083848E+01 -0.21534584053E+02  0.31067828114E+02  0.00000000000E+00 0. -1.
<scales pt_clust_5="13000.00000" pt_clust_6="13000.00000" pt_clust_7="13000.00000" pt_clust_8="13000.00000" pt_clust_9="22.39356"></scales>
<clustering>
<clus scale="   22.394">  2  9  1 -1</clus>
<clus scale="   89.430">  7  8 -1 -1</clus>
<clus scale="   92.073">  1  7  2 -1</clus>
<clus scale="   93.010">  5  6 -1 -1</clus>
<clus scale="   22.394">  2  5  1 -1</clus>
</clustering>
</event>
<event>
 9    1  0.2018361E-005  0.9158318E+02  0.7546771E-02  0.1299852E+00
         21   -1    0    0  501  502  0.00000000000E+00  0.00000000000E+00  0.14313874686E+03  0.14313874686E+03  0.00000000000E+00 0. -1.
          1   -1    0    0  502    0 -0.00000000000E+00 -0.00000000000E+00 -0.28919180370E+03  0.28919180370E+03  0.00000000000E+00 0. -1.
         23    2    1    2    0    0  0.59448621338E+01  0.21193417817E+02 -0.23701479568E+03  0.25381466806E+03  0.88098637930E+02 0.  0.
         23    2    1    2    0    0  0.14623694236E+02 -0.89046698316E+01  0.71646733915E+01  0.91360693222E+02  0.89455565189E+02 0.  0.
        -11    1    3    3    0    0  0.14201139187E+01 -0.33170209405E+02 -0.59856692831E+02  0.68447813641E+02  0.00000000000E+00 0.  1.
         11    1    3    3    0    0  0.45247482151E+01  0.54363627222E+02 -0.17715810285E+03  0.18536685442E+03  0.00000000000E+00 0. -1.
        -13    1    4    4    0    0  0.36293670010E+02 -0.37126602848E+02 -0.82729238940E+01  0.52574294019E+02  0.00000000000E+00 0. -1.
         13    1    4    4    0    0 -0.21669975774E+02  0.28221933016E+02  0.15437597286E+02  0.38786399203E+02  0.00000000000E+00 0.  1.
          1    1    1    2  501    0 -0.20568556370E+02 -0.12288747985E+02  0.83797065454E+02  0.87155189271E+02  0.00000000000E+00 0. -1.
<scales pt_clust_5="13000.00000" pt_clust_6="13000.00000" pt_clust_7="13000.00000" pt_clust_8="13000.00000" pt_clust_9="23.95994"></scales>
<clustering>
<clus scale="   23.960">  1  9  2 -1</clus>
<clus scale="   88.099">  5  6 -1 -1</clus>
<clus scale="   89.456">  7  8 -1 -1</clus>
<clus scale="   90.258">  2  5  1 -1</clus>
<clus scale="   23.960">  1  5  2 -1</clus>
</clustering>
</event>
<event>
 9    1  0.1321469E-005  0.2177308E+03  0.7546771E-02  0.1135609E+00
         21   -1    0    0  501  502  0.00000000000E+00  0.00000000000E+00  0.30222100346E+03  0.30222100346E+03  0.00000000000E+00 0.  1.
          3   -1    0    0  502    0 -0.00000000000E+00 -0.00000000000E+00 -0.44967924451E+03  0.44967924451E+03  0.00000000000E+00 0. -1.
         23    2    1    2    0    0  0.18629682147E+03 -0.75750144561E+02 -0.37104822972E+03  0.43252852161E+03  0.94654863264E+02 0.  0.
         23    2    1    2    0    0 -0.14847107513E+03  0.60306235070E+02  0.17168168920E+03  0.25331286639E+03  0.94933154031E+02 0.  0.
        -11    1    3    3    0    0  0.12513824810E+03 -0.59762962786E+01 -0.25355889658E+03  0.28282045770E+03  0.00000000000E+00 0. -1.
         11    1    3    3    0    0  0.61158573368E+02 -0.69773848283E+02 -0.11748933313E+03  0.14970806391E+03  0.00000000000E+00 0.  1.
        -13    1    4    4    0    0 -0.67294614349E+02  0.17698803437E+02  0.13995678971E+03  0.15630008237E+03  0.00000000000E+00 0.  1.
         13    1    4    4    0    0 -0.81176460780E+02  0.42607431633E+02  0.31724899487E+02  0.97012784016E+02  0.00000000000E+00 0. -1.
          3    1    1    2  501    0 -0.37825746340E+02  0.15443909491E+02  0.51908299470E+02  0.66058859969E+02  0.00000000000E+00 0. -1.
<scales pt_clust_5="13000.00000" pt_clust_6="13000.00000" pt_clust_7="13000.00000" pt_clust_8="13000.00000" pt_clust_9="40.85709"></scales>
<clustering>
<clus scale="   40.857">  1  9  2 -1</clus>
<clus scale="   94.655">  5  6 -1 -1</clus>
<clus scale="   94.933">  7  8 -1 -1</clus>
<clus scale="  217.610">  2  5  1 -1</clus>
<clus scale="   40.857">  1  5  2 -1</clus>
</clustering>
</event>
<event>
 9    1  0.1321469E-005  0.1197932E+03  0.7546771E-02  0.1244538E+00
          1   -1    0    0  502    0 -0.00000000000E+00  0.00000000000E+00  0.58667483385E+03  0.58667483385E+03  0.00000000000E+00 0. -1.
         21   -1    0    0  501  502  0.00000000000E+00 -0.00000000000E+00 -0.41752982809E+02  0.41752982809E+02  0.00000000000E+00 0. -1.
         23    2    1    2    0    0 -0.10652951859E+02  0.71681745904E+02  0.28814708132E+03  0.31118549528E+03  0.92498183331E+02 0.  0.
         23    2    1    2    0    0 -0.95909428943E+01 -0.72156711956E+02  0.26822754881E+03  0.29397846495E+03  0.95805754777E+02 0.  0.
        -11    1    3    3    0    0 -0.46373067688E+02  0.59501379535E+02  0.14896312110E+03  0.16697570788E+03  0.00000000000E+00 0.  1.
         11    1    3    3    0    0  0.35720115830E+02  0.12180366369E+02  0.13918396022E+03  0.14420978740E+03  0.00000000000E+00 0. -1.
        -11    1    4    4    0    0 -0.38145116391E+02 -0.65989348536E+02  0.11483218687E+03  0.13782624992E+03  0.00000000000E+00 0.  1.
         11    1    4    4    0    0  0.28554173497E+02 -0.61673634199E+01  0.15339536194E+03  0.15615221503E+03  0.00000000000E+00 0. -1.
          1    1    1    2  501    0  0.20243894753E+02  0.47496605174E+00 -0.11452779082E+02  0.23263856435E+02  0.00000000000E+00 0. -1.
<scales pt_clust_5="13000.00000" pt_clust_6="13000.00000" pt_clust_7="13000.00000" pt_clust_8="13000.00000" pt_clust_9="20.24947"></scales>
<clustering>
<clus scale="   20.249">  2  9  1 -1</clus>
<clus scale="   92.498">  5  6 -1 -1</clus>
<clus scale="   95.806">  7  8 -1 -1</clus>
<clus scale="  117.165">  1  5  2 -1</clus>
<clus scale="   20.249">  2  5  1 -1</clus>
</clustering>
</event>
<event>
 9    1  0.1321469E-005  0.1434143E+03  0.7546771E-02  0.1210152E+00
         21   -1    0    0  501  502  0.00000000000E+00  0.00000000000E+00  0.25771817045E+03  0.25771817045E+03  0.00000000000E+00 0.  1.
         -1   -1    0    0    0  501 -0.00000000000E+00 -0.00000000000E+00 -0.41064166006E+03  0.41064166006E+03  0.00000000000E+00 0.  1.
         23    2    1    2    0    0 -0.10374085241E+03  0.48163601622E+02 -0.35594880202E+03  0.38518209001E+03  0.92648776705E+02 0.  0.
         23    2    1    2    0    0  0.32024292772E+02 -0.23314957543E+02  0.62119061357E+02  0.12312996131E+03  0.98656307529E+02 0.  0.
        -11    1    4    4    0    0 -0.20747480427E+02 -0.21025226974E+02 -0.12194382992E+02  0.31956550032E+02  0.00000000000E+00 0.  1.
         11    1    4    4    0    0  0.52771773199E+02 -0.22897305685E+01  0.74313444350E+02  0.91173411277E+02  0.00000000000E+00 0. -1.
        -13    1    3    3    0    0 -0.12612670264E+02 -0.25633444870E+02 -0.50861493379E+02  0.58335619101E+02  0.00000000000E+00 0. -1.
         13    1    3    3    0    0 -0.91128182141E+02  0.73797046492E+02 -0.30508730864E+03  0.32684647091E+03  0.00000000000E+00 0.  1.
         -1    1    1    2    0  502  0.71716559633E+02 -0.24848644079E+02  0.14090625105E+03  0.16004777919E+03  0.00000000000E+00 0.  1.
<scales pt_clust_5="13000.00000" pt_clust_6="13000.00000" pt_clust_7="13000.00000" pt_clust_8="13000.00000" pt_clust_9="75.89941"></scales>
<clustering>
<clus scale="   75.899">  1  9  2 -1</clus>
<clus scale="   92.649">  7  8 -1 -1</clus>
<clus scale="   98.656">  5  6 -1 -1</clus>
<clus scale="  139.350">  2  7  1 -1</clus>
<clus scale="   75.899">  1  5  2 -1</clus>
</clustering>
</event>
<event>
 9    1  0.1321469E-005  0.1319893E+03  0.7546771E-02  0.1224842E+00
         21   -1    0    0  501  502  0.00000000000E+00  0.00000000000E+00  0.22382823503E+03  0.22382823503E+03  0.00000000000E+00 0. -1.
          1   -1    0    0  502    0 -0.00000000000E+00 -0.00000000000E+00 -0.49542837235E+03  0.49542837235E+03  0.00000000000E+00 0. -1.
         23    2    1    2    0    0  0.66028131926E+02 -0.75980608820E+02 -0.42863401537E+03  0.44974543857E+03  0.91711903590E+02 0.  0.
         23    2    1    2    0    0 -0.58930681297E+02  0.30931152169E+02  0.68303483118E+01  0.11253687889E+03  0.90489414189E+02 0.  0.
        -11    1    3    3    0    0  0.20314297078E+02 -0.12384253829E+02 -0.13637817987E+02  0.27423174290E+02  0.00000000000E+00 0.  1.
         11    1    3    3    0    0  0.45713834847E+02 -0.63596354991E+02 -0.41499619739E+03  0.42232226428E+03  0.00000000000E+00 0. -1.
        -13    1    4    4    0    0 -0.73778044284E+02  0.10310033495E+02 -0.18394444775E+02  0.76732341341E+02  0.00000000000E+00 0.  1.
         13    1    4    4    0    0  0.14847362987E+02  0.20621118674E+02  0.25224793087E+02  0.35804537552E+02  0.00000000000E+00 0. -1.
          1    1    1    2  501    0 -0.70974506284E+01  0.45049456650E+02  0.15020352974E+03  0.15697428992E+03  0.00000000000E+00 0. -1.
<scales pt_clust_5="13000.00000" pt_clust_6="13000.00000" pt_clust_7="13000.00000" pt_clust_8="13000.00000" pt_clust_9="45.60512"></scales>
<clustering>
<clus scale="   45.605">  1  9  2 -1</clus>
<clus scale="   90.489">  7  8 -1 -1</clus>
<clus scale="   91.712">  5  6 -1 -1</clus>
<clus scale="  131.143">  1  7  2 -1</clus>
<clus scale="   45.605">  1  5  2 -1</clus>
</clustering>
</event>
<event>
 9    1  0.1321469E-005  0.3086396E+03  0.7546771E-02  0.1113448E+00
          1   -1    0    0  502    0 -0.00000000000E+00  0.00000000000E+00  0.35927774565E+03  0.35927774565E+03  0.00000000000E+00 0. -1.
         21   -1    0    0  501  502  0.00000000000E+00 -0.00000000000E+00 -0.47812706322E+03  0.47812706322E+03  0.00000000000E+00 0. -1.
         23    2    1    2    0    0 -0.49293192824E+02  0.81812663357E+02  0.25031258456E+02  0.13472741243E+03  0.91661229629E+02 0.  0.
         23    2    1    2    0    0 -0.54604874074E+02 -0.34064939681E+03  0.53248196666E+02  0.36113528204E+03  0.92518201819E+02 0.  0.
        -11    1    4    4    0    0 -0.52341025238E+02 -0.75774672581E+02  0.83436334690E+01  0.92471618063E+02  0.00000000000E+00 0.  1.
         11    1    4    4    0    0 -0.22638488357E+01 -0.26487472422E+03  0.44904563197E+02  0.26866366397E+03  0.00000000000E+00 0. -1.
        -11    1    3    3    0    0  0.90330028862E+00  0.70984799126E+02 -0.11217308865E+02  0.71871313307E+02  0.00000000000E+00 0.  1.
         11    1    3    3    0    0 -0.50196493113E+02  0.10827864231E+02  0.36248567322E+02  0.62856099128E+02  0.00000000000E+00 0. -1.
          1    1    1    2  501    0  0.10389806690E+03  0.25883673345E+03 -0.19712877269E+03  0.34154211440E+03  0.00000000000E+00 0. -1.
<scales pt_clust_5="13000.00000" pt_clust_6="13000.00000" pt_clust_7="13000.00000" pt_clust_8="13000.00000" pt_clust_9="294.44660"></scales>
<clustering>
<clus scale="   91.661">  7  8 -1 -1</clus>
<clus scale="   92.518">  5  6 -1 -1</clus>
<clus scale="  132.382">  1  7  2 -1</clus>
<clus scale="  294.447">  2  9  1 -1</clus>
<clus scale="  294.447">  2  5  1 -1</clus>
</clustering>
</event>
<event>
 9    1  0.1321469E-005  0.9665590E+02  0.7546771E-02  0.1289171E+00
         21   -1    0    0  501  502  0.00000000000E+00  0.00000000000E+00  0.16702974464E+03  0.16702974464E+03  0.00000000000E+00 0. -1.
          1   -1    0    0  502    0 -0.00000000000E+00 -0.00000000000E+00 -0.29973573228E+03  0.29973573228E+03  0.00000000000E+00 0. -1.
         23    2    1    2    0    0  0.30364500420E+02 -0.15437585525E+02 -0.23394868906E+03  0.25374708240E+03  0.92169793203E+02 0.  0.
         23    2    1    2    0    0 -0.12665245199E+02 -0.20900634463E+01 -0.17558867717E+02  0.91633490429E+02  0.89014638861E+02 0.  0.
        -13    1    3    3    0    0  0.54801847603E+02  0.89980411061E+01 -0.90390875251E+02  0.10608825370E+03  0.00000000000E+00 0.  1.
         13    1    3    3    0    0 -0.24437347183E+02 -0.24435626631E+02 -0.14355781381E+03  0.14765882870E+03  0.00000000000E+00 0. -1.
        -13    1    4    4    0    0  0.17160921643E+02  0.36057408123E+02 -0.16475021409E+02  0.43197919425E+02  0.00000000000E+00 0. -1.
         13    1    4    4    0    0 -0.29826166842E+02 -0.38147471570E+02 -0.10838463078E+01  0.48435571004E+02  0.00000000000E+00 0.  1.
          1    1    1    2  501    0 -0.17699255221E+02  0.17527648971E+02  0.11880156914E+03  0.12138490410E+03  0.00000000000E+00 0. -1.
<scales pt_clust_5="13000.00000" pt_clust_6="13000.00000" pt_clust_7="13000.00000" pt_clust_8="13000.00000" pt_clust_9="24.90948"></scales>
<clustering>
<clus scale="   24.909">  1  9  2 -1</clus>
<clus scale="   89.015">  7  8 -1 -1</clus>
<clus scale="   92.170">  5  6 -1 -1</clus>
<clus scale="   93.652">  1  7  2 -1</clus>
<clus scale="   24.909">  1  5  2 -1</clus>
</clustering>
</event>
<event>
 9    1  0.1321469E-005  0.1132923E+03  0.7546771E-02  0.1254742E+00
         -2   -1    0    0    0  501 -0.00000000000E+00  0.00000000000E+00  0.48216298547E+03  0.48216298547E+03  0.00000000000E+00 0.  1.
         21   -1    0    0  501  502  0.00000000000E+00 -0.00000000000E+00 -0.41131069857E+02  0.41131069857E+02  0.00000000000E+00 0. -1.
         23    2    1    2    0    0  0.29863758061E+02 -0.73411622614E+02  0.20546946619E+03  0.23859138013E+03  0.91798882110E+02 0.  0.
         23    2    1    2    0    0 -0.35356320502E+02  0.37520943644E+02  0.10214140707E+03  0.14642945428E+03  0.91382861804E+02 0.  0.
        -11    1    3    3    0    0  0.20985461438E+02 -0.22577887723E+02  0.45591780263E+01  0.31159857350E+02  0.00000000000E+00 0.  1.
         11    1    3    3    0    0  0.88782966225E+01 -0.50833734891E+02  0.20091028816E+03  0.20743152278E+03  0.00000000000E+00 0. -1.
        -13    1    4    4    0    0 -0.65848158621E+02  0.20257201420E+02  0.57901281139E+02  0.89993847349E+02  0.00000000000E+00 0.  1.
         13    1    4    4    0    0  0.30491838119E+02  0.17263742224E+02  0.44240125929E+02  0.56435606931E+02  0.00000000000E+00 0. -1.
         -2    1    1    2    0  502  0.54925624414E+01  0.35890678970E+02  0.13342104236E+03  0.13827322092E+03  0.00000000000E+00 0.  1.
<scales pt_clust_5="13000.00000" pt_clust_6="13000.00000" pt_clust_7="13000.00000" pt_clust_8="13000.00000" pt_clust_9="36.30854"></scales>
<clustering>
<clus scale="   36.309">  2  9  1 -1</clus>
<clus scale="   91.383">  7  8 -1 -1</clus>
<clus scale="   91.799">  5  6 -1 -1</clus>
<clus scale="  112.955">  2  7  1 -1</clus>
<clus scale="   36.309">  2  5  1 -1</clus>
</clustering>
</event>
<event>
 9    1  0.1321469E-005  0.9233511E+02  0.7546771E-02  0.1297848E+00
          1   -1    0    0  502    0 -0.00000000000E+00  0.00000000000E+00  0.26099826896E+03  0.26099826896E+03  0.00000000000E+00 0. -1.
         21   -1    0    0  501  502  0.00000000000E+00 -0.00000000000E+00 -0.10998373861E+03  0.10998373861E+03  0.00000000000E+00 0. -1.
         23    2    1    2    0    0  0.16859034403E+02 -0.10301914976E+02  0.17668561729E+03  0.20016417712E+03  0.91964851720E+02 0.  0.
         23    2    1    2    0    0  0.32385742529E+02 -0.65653289150E+01  0.23032579975E+02  0.99532494356E+02  0.91018008270E+02 0.  0.
        -11    1    4    4    0    0  0.15151252813E+02 -0.42414064910E+02  0.36039737782E+02  0.57683412377E+02  0.00000000000E+00 0. -1.
         11    1    4    4    0    0  0.17234489716E+02  0.35848735995E+02 -0.13007157807E+02  0.41849081979E+02  0.00000000000E+00 0.  1.
        -13    1    3    3    0    0  0.69250850864E+01 -0.42176992962E+02  0.15394453726E+03  0.15976788191E+03  0.00000000000E+00 0. -1.
         13    1    3    3    0    0  0.99339493164E+01  0.31875077986E+02  0.22741080032E+02  0.40396295210E+02  0.00000000000E+00 0.  1.
          1    1    1    2  501    0 -0.49244776931E+02  0.16867243891E+02 -0.48703666918E+02  0.71285336099E+02  0.00000000000E+00 0. -1.
<scales pt_clust_5="13000.00000" pt_clust_6="13000.00000" pt_clust_7="13000.00000" pt_clust_8="13000.00000" pt_clust_9="52.05336"></scales>
<clustering>
<clus scale="   52.053">  2  9  1 -1</clus>
<clus scale="   91.018">  5  6 -1 -1</clus>
<clus scale="   91.392">  2  5  1 -1</clus>
<clus scale="   91.965">  7  8 -1 -1</clus>
<clus scale="   52.053">  2  5  1 -1</clus>
</clustering>
</event>
<event>
 9    1  0.1321469E-005  0.1675703E+03  0.7546771E-02  0.1202941E+00
         -1   -1    0    0    0  501 -0.00000000000E+00  0.00000000000E+00  0.31815177676E+03  0.31815177676E+03  0.00000000000E+00 0.  1.
         21   -1    0    0  501  502  0.00000000000E+00 -0.00000000000E+00 -0.13116786594E+03  0.13116786594E+03  0.00000000000E+00 0.  1.
         23    2    1    2    0    0  0.20748268769E+02  0.44822702983E+02  0.10813123693E+03  0.14864272852E+03  0.89234135751E+02 0.  0.
         23    2    1    2    0    0  0.85363802964E+02  0.81176651625E+01  0.95228233366E+02  0.18096637456E+03  0.12777925085E+03 0.  0.
        -11    1    3    3    0    0  0.36071581919E+02  0.64629121237E+02  0.94807354398E+02  0.12027683394E+03  0.00000000000E+00 0.  1.
         11    1    3    3    0    0 -0.15323313150E+02 -0.19806418254E+02  0.13323882529E+02  0.28365894584E+02  0.00000000000E+00 0. -1.
        -13    1    4    4    0    0  0.11166423078E+03  0.27805144934E+02  0.93145349471E+02  0.14804756887E+03  0.00000000000E+00 0.  1.
         13    1    4    4    0    0 -0.26300427812E+02 -0.19687479772E+02  0.20828838949E+01  0.32918805692E+02  0.00000000000E+00 0. -1.
         -1    1    1    2    0  502 -0.10611207173E+03 -0.52940368146E+02 -0.16375559468E+02  0.11971053961E+03  0.00000000000E+00 0.  1.
<scales pt_clust_5="13000.00000" pt_clust_6="13000.00000" pt_clust_7="13000.00000" pt_clust_8="13000.00000" pt_clust_9="108.40782"></scales>
<clustering>
<clus scale="   89.234">  5  6 -1 -1</clus>
<clus scale="  101.992">  1  5  2 -1</clus>
<clus scale="  108.408">  2  9  1 -1</clus>
<clus scale="  127.779">  7  8 -1 -1</clus>
<clus scale="  108.408">  2  5  1 -1</clus>
</clustering>
</event>
<event>
 9    1  0.1321469E-005  0.1179665E+03  0.7546771E-02  0.1246930E+00
         21   -1    0    0  501  502  0.00000000000E+00  0.00000000000E+00  0.11652934599E+03  0.11652934599E+03  0.00000000000E+00 0. -1.
          4   -1    0    0  502    0 -0.00000000000E+00 -0.00000000000E+00 -0.37247098702E+03  0.37247098702E+03  0.00000000000E+00 0. -1.
         23    2    1    2    0    0 -0.82622403857E+01  0.41762686215E+02 -0.11276881280E+03  0.15196993445E+03  0.92550900914E+02 0.  0.
         23    2    1    2    0    0  0.93764173490E+02 -0.88866211093E+02 -0.17354623271E+03  0.23479602899E+03  0.91224758916E+02 0.  0.
        -11    1    4    4    0    0 -0.65354050214E+01 -0.50118580676E+02 -0.59040571675E+02  0.77719834994E+02  0.00000000000E+00 0.  1.
         11    1    4    4    0    0  0.10029957851E+03 -0.38747630417E+02 -0.11450566104E+03  0.15707619400E+03  0.00000000000E+00 0. -1.
        -13    1    3    3    0    0  0.23694336098E+02 -0.20021528098E+02 -0.46494162657E+02  0.55892667781E+02  0.00000000000E+00 0.  1.
         13    1    3    3    0    0 -0.31956576484E+02  0.61784214313E+02 -0.66274650142E+02  0.96077266667E+02  0.00000000000E+00 0. -1.
          4    1    1    2  501    0 -0.85501933105E+02  0.47103524878E+02  0.30373404481E+02  0.10223436957E+03  0.00000000000E+00 0. -1.
<scales pt_clust_5="13000.00000" pt_clust_6="13000.00000" pt_clust_7="13000.00000" pt_clust_8="13000.00000" pt_clust_9="97.61825"></scales>
<clustering>
<clus scale="   91.225">  5  6 -1 -1</clus>
<clus scale="   92.551">  7  8 -1 -1</clus>
<clus scale="   97.618">  1  9  2 -1</clus>
<clus scale="  116.929">  1  5  2 -1</clus>
<clus scale="   97.618">  1  5  2 -1</clus>
</clustering>
</event>
<event>
 9    1  0.1321469E-005  0.1100385E+03  0.7546771E-02  0.1264289E+00
          3   -1    0    0  502    0 -0.00000000000E+00  0.00000000000E+00  0.19970273744E+03  0.19970273744E+03  0.00000000000E+00 0. -1.
         21   -1    0    0  501  502  0.00000000000E+00 -0.00000000000E+00 -0.17249518646E+03  0.17249518646E+03  0.00000000000E+00 0. -1.
         23    2    1    2    0    0  0.28498509107E+02 -0.21774828933E+02  0.69486256720E+02  0.12741626266E+03  0.10059948270E+03 0.  0.
         23    2    1    2    0    0 -0.61686252997E+02 -0.11973363468E+02  0.64005624537E+02  0.12843422596E+03  0.91924290506E+02 0.  0.
        -11    1    4    4    0    0 -0.44480940336E+02  0.26873454062E+02  0.68197286273E+02  0.85741509442E+02  0.00000000000E+00 0.  1.
         11    1    4    4    0    0 -0.17205312661E+02 -0.38846817530E+02 -0.41916617352E+01  0.42692716523E+02  0.00000000000E+00 0. -1.
        -13    1    3    3    0    0 -0.18869348949E+02 -0.11113505458E+02  0.75389696058E+02  0.78505850769E+02  0.00000000000E+00 0. -1.
         13    1    3    3    0    0  0.47367858056E+02 -0.10661323475E+02 -0.59034393380E+01  0.48910411888E+02  0.00000000000E+00 0.  1.
          3    1    1    2  501    0  0.33187743890E+02  0.33748192401E+02 -0.10628433028E+03  0.11634743528E+03  0.00000000000E+00 0. -1.
<scales pt_clust_5="13000.00000" pt_clust_6="13000.00000" pt_clust_7="13000.00000" pt_clust_8="13000.00000" pt_clust_9="47.33251"></scales>
<clustering>
<clus scale="   47.333">  2  9  1 -1</clus>
<clus scale="   91.924">  5  6 -1 -1</clus>
<clus scale="  100.599">  7  8 -1 -1</clus>
<clus scale="  102.168">  2  5  1 -1</clus>
<clus scale="   47.333">  2  5  1 -1</clus>
</clustering>
</event>
<event>
 9    1  0.1321469E-005  0.1092341E+03  0.7546771E-02  0.1263918E+00
         21   -1    0    0  501  502  0.00000000000E+00  0.00000000000E+00  0.21460751045E+02  0.21460751045E+02  0.00000000000E+00 0. -1.
          1   -1    0    0  502    0 -0.00000000000E+00 -0.00000000000E+00 -0.79760052437E+03  0.79760052437E+03  0.00000000000E+00 0. -1.
         23    2    1    2    0    0 -0.48913315859E+02  0.32268630614E+02 -0.46551793373E+03  0.47806092608E+03  0.91659835424E+02 0.  0.
         23    2    1    2    0    0  0.16890163076E+02 -0.42032556559E+02 -0.25113113965E+03  0.27273645006E+03  0.96261666678E+02 0.  0.
        -11    1    3    3    0    0 -0.57623855036E+02 -0.12404726927E+02 -0.32661421546E+03  0.33189039103E+03  0.00000000000E+00 0. -1.
         11    1    3    3    0    0  0.87105391764E+01  0.44673357541E+02 -0.13890371827E+03  0.14617053505E+03  0.00000000000E+00 0.  1.
        -13    1    4    4    0    0  0.35918226639E+02 -0.55146390428E+02 -0.23626162351E+03  0.24525659650E+03  0.00000000000E+00 0. -1.
         13    1    4    4    0    0 -0.19028063563E+02  0.13113833869E+02 -0.14869516137E+02  0.27479853563E+02  0.00000000000E+00 0.  1.
          1    1    1    2  501    0  0.32023152783E+02  0.97639259452E+01 -0.59490699950E+02  0.68263899277E+02  0.00000000000E+00 0. -1.
<scales pt_clust_5="13000.00000" pt_clust_6="13000.00000" pt_clust_7="13000.00000" pt_clust_8="13000.00000" pt_clust_9="33.47860"></scales>
<clustering>
<clus scale="   33.479">  1  9  2 -1</clus>
<clus scale="   91.660">  5  6 -1 -1</clus>
<clus scale="   96.262">  7  8 -1 -1</clus>
<clus scale="  105.201">  2  5  1 -1</clus>
<clus scale="   33.479">  1  5  2 -1</clus>
</clustering>
</event>
<event>
 9    1  0.1321469E-005  0.9405376E+02  0.7546771E-02  0.1294379E+00
         21   -1    0    0  501  502  0.00000000000E+00  0.00000000000E+00  0.44336936621E+02  0.44336936621E+02  0.00000000000E+00 0. -1.
          2   -1    0    0  502    0 -0.00000000000E+00 -0.00000000000E+00 -0.45759934934E+03  0.45759934934E+03  0.00000000000E+00 0. -1.
         23    2    1    2    0    0 -0.20143809686E+02 -0.23879780971E+02 -0.26938982087E+03  0.28651951992E+03  0.92447513215E+02 0.  0.
         23    2    1    2    0    0 -0.80433909558E+01  0.20451018908E+01 -0.15355165569E+03  0.17847145826E+03  0.90581851761E+02 0.  0.
        -11    1    3    3    0    0 -0.48646126203E+02  0.12197001680E+02 -0.11575245390E+03  0.12615008137E+03  0.00000000000E+00 0. -1.
         11    1    3    3    0    0  0.28502316518E+02 -0.36076782651E+02 -0.15363736696E+03  0.16036943855E+03  0.00000000000E+00 0.  1.
        -13    1    4    4    0    0 -0.46098463478E+01  0.41365550550E+02 -0.11880962641E+03  0.12588918454E+03  0.00000000000E+00 0.  1.
         13    1    4    4    0    0 -0.34335446081E+01 -0.39320448659E+02 -0.34742029275E+02  0.52582273719E+02  0.00000000000E+00 0. -1.
          2    1    1    2  501    0  0.28187200642E+02  0.21834679080E+02  0.96790638361E+01  0.36945307784E+02  0.00000000000E+00 0. -1.
<scales pt_clust_5="13000.00000" pt_clust_6="13000.00000" pt_clust_7="13000.00000" pt_clust_8="13000.00000" pt_clust_9="35.65489"></scales>
<clustering>
<clus scale="   35.655">  1  9  2 -1</clus>
<clus scale="   90.582">  7  8 -1 -1</clus>
<clus scale="   92.221">  1  7  2 -1</clus>
<clus scale="   92.448">  5  6 -1 -1</clus>
<clus scale="   35.655">  1  5  2 -1</clus>
</clustering>
</event>
<event>
 9    1  0.1321469E-005  0.1606394E+03  0.7546771E-02  0.1187988E+00
         21   -1    0    0  501  502  0.00000000000E+00  0.00000000000E+00  0.67169482348E+02  0.67169482348E+02  0.00000000000E+00 0.  1.
         -3   -1    0    0    0  501 -0.00000000000E+00 -0.00000000000E+00 -0.57105376600E+03  0.57105376600E+03  0.00000000000E+00 0.  1.
         23    2    1    2    0    0  0.12943546992E+03  0.56519115141E+02 -0.39546995206E+03  0.42955421304E+03  0.90401259452E+02 0.  0.
         23    2    1    2    0    0 -0.96194382606E+02 -0.59713649530E+02 -0.85937349774E+02  0.16841497156E+03  0.90328818080E+02 0.  0.
        -11    1    3    3    0    0  0.71243832177E+02  0.67464293259E+02 -0.16847867319E+03  0.19496711981E+03  0.00000000000E+00 0. -1.
         11    1    3    3    0    0  0.58191637747E+02 -0.10945178118E+02 -0.22699127887E+03  0.23458709323E+03  0.00000000000E+00 0.  1.
        -13    1    4    4    0    0 -0.80592319663E+02 -0.33073309560E+02 -0.10156893631E+03  0.13381036812E+03  0.00000000000E+00 0. -1.
         13    1    4    4    0    0 -0.15602062943E+02 -0.26640339970E+02  0.15631586535E+02  0.34604603443E+02  0.00000000000E+00 0.  1.
         -3    1    1    2    0  502 -0.33241087317E+02  0.31945343890E+01 -0.22476981822E+02  0.40254063743E+02  0.00000000000E+00 0.  1.
<scales pt_clust_5="13000.00000" pt_clust_6="13000.00000" pt_clust_7="13000.00000" pt_clust_8="13000.00000" pt_clust_9="33.39424"></scales>
<clustering>
<clus scale="   33.394">  1  9  2 -1</clus>
<clus scale="   90.329">  7  8 -1 -1</clus>
<clus scale="   90.401">  5  6 -1 -1</clus>
<clus scale="  160.599">  1  7  2 -1</clus>
<clus scale="   33.394">  1  5  2 -1</clus>
</clustering>
</event>
<event>
 9    1  0.1321469E-005  0.9465423E+02  0.7546771E-02  0.1293746E+00
         21   -1    0    0  501  502  0.00000000000E+00  0.00000000000E+00  0.35863325259E+03  0.35863325259E+03  0.00000000000E+00 0.  1.
          1   -1    0    0  502    0 -0.00000000000E+00 -0.00000000000E+00 -0.61835393646E+02  0.61835393646E+02  0.00000000000E+00 0. -1.
         23    2    1    2    0    0  0.16481822413E+02 -0.21184861362E+02  0.21795890264E+01  0.96210834349E+02  0.92365173181E+02 0.  0.
         23    2    1    2    0    0  0.20052448541E+02  0.10762235918E+02  0.16215798469E+03  0.18645682772E+03  0.89179651207E+02 0.  0.
        -11    1    3    3    0    0  0.15272880753E+02  0.15329826970E+02  0.38835365668E+02  0.44457284083E+02  0.00000000000E+00 0.  1.
         11    1    3    3    0    0  0.12089416601E+01 -0.36514688333E+02 -0.36655776642E+02  0.51753550267E+02  0.00000000000E+00 0. -1.
        -11    1    4    4    0    0 -0.87295346966E+01  0.45831798861E+02  0.83821995604E+02  0.95931671048E+02  0.00000000000E+00 0.  1.
         11    1    4    4    0    0  0.28781983237E+02 -0.35069562943E+02  0.78335989085E+02  0.90525156669E+02  0.00000000000E+00 0. -1.
          1    1    1    2  501    0 -0.36534270954E+02  0.10422625444E+02  0.13246028523E+03  0.13780098417E+03  0.00000000000E+00 0. -1.
<scales pt_clust_5="13000.00000" pt_clust_6="13000.00000" pt_clust_7="13000.00000" pt_clust_8="13000.00000" pt_clust_9="37.99189"></scales>
<clustering>
<clus scale="   37.992">  1  9  2 -1</clus>
<clus scale="   89.180">  7  8 -1 -1</clus>
<clus scale="   91.548">  1  7  2 -1</clus>
<clus scale="   92.365">  5  6 -1 -1</clus>
<clus scale="   37.992">  1  5  2 -1</clus>
</clustering>
</event>
<event>
 9    1  0.1321469E-005  0.1740658E+03  0.7546771E-02  0.1173736E+00
         21   -1    0    0  501  502  0.00000000000E+00  0.00000000000E+00  0.48975988134E+03  0.48975988134E+03  0.00000000000E+00 0. -1.
          1   -1    0    0  502    0 -0.00000000000E+00 -0.00000000000E+00 -0.27389293892E+03  0.27389293892E+03  0.00000000000E+00 0. -1.
         23    2    1    2    0    0 -0.91916822856E+02  0.11515365969E+03 -0.21832183339E+03  0.27886980420E+03  0.91623561914E+02 0.  0.
         23    2    1    2    0    0  0.12156962157E+03 -0.10285346471E+03  0.36622899171E+03  0.40962241785E+03  0.91152853728E+02 0.  0.
        -13    1    4    4    0    0  0.15888782183E+02 -0.71494031765E+02  0.14844339985E+03  0.16552731780E+03  0.00000000000E+00 0.  1.
         13    1    4    4    0    0  0.10568083939E+03 -0.31359432948E+02  0.21778559186E+03  0.24409510005E+03  0.00000000000E+00 0. -1.
        -13    1    3    3    0    0 -0.28113783505E+02  0.62008008882E+02 -0.16921507602E+03  0.18239824544E+03  0.00000000000E+00 0.  1.
         13    1    3    3    0    0 -0.63803039351E+02  0.53145650806E+02 -0.49106757371E+02  0.96471558759E+02  0.00000000000E+00 0. -1.
          1    1    1    2  501    0 -0.29652798715E+02 -0.12300194975E+02  0.67959784102E+02  0.75160598210E+02  0.00000000000E+00 0. -1.
<scales pt_clust_5="13000.00000" pt_clust_6="13000.00000" pt_clust_7="13000.00000" pt_clust_8="13000.00000" pt_clust_9="32.10270"></scales>
<clustering>
<clus scale="   32.103">  1  9  2 -1</clus>
<clus scale="   91.153">  5  6 -1 -1</clus>
<clus scale="   91.624">  7  8 -1 -1</clus>
<clus scale="  173.818">  1  5  2 -1</clus>
<clus scale="   32.103">  1  5  2 -1</clus>
</clustering>
</event>
<event>
 9    1  0.1321469E-005  0.1232167E+03  0.7546771E-02  0.1240292E+00
         -2   -1    0    0    0  501 -0.00000000000E+00  0.00000000000E+00  0.31821548210E+02  0.31821548210E+02  0.00000000000E+00 0.  1.
         21   -1    0    0  501  502  0.00000000000E+00 -0.00000000000E+00 -0.88366193514E+03  0.88366193514E+03  0.00000000000E+00 0. -1.
         23    2    1    2    0    0 -0.39840003373E+02 -0.48234884201E+02 -0.25023521354E+03  0.27452913882E+03  0.93993382971E+02 0.  0.
         23    2    1    2    0    0  0.11088847846E+03  0.40492738073E+02 -0.45437053803E+03  0.47729046798E+03  0.86126003624E+02 0.  0.
        -11    1    4    4    0    0  0.11872480539E+03  0.17524091213E+02 -0.40274092899E+03  0.42024151279E+03  0.00000000000E+00 0. -1.
         11    1    4    4    0    0 -0.78363269311E+01  0.22968646860E+02 -0.51629609045E+02  0.57048955192E+02  0.00000000000E+00 0.  1.
        -13    1    3    3    0    0  0.18734930533E+02 -0.50630428459E+02 -0.12998587532E+03  0.14075072181E+03  0.00000000000E+00 0. -1.
         13    1    3    3    0    0 -0.58574933905E+02  0.23955442582E+01 -0.12024933823E+03  0.13377841701E+03  0.00000000000E+00 0.  1.
         -2    1    1    2    0  502 -0.71048475089E+02  0.77421461276E+01 -0.14723463536E+03  0.16366387655E+03  0.00000000000E+00 0.  1.
<scales pt_clust_5="13000.00000" pt_clust_6="13000.00000" pt_clust_7="13000.00000" pt_clust_8="13000.00000" pt_clust_9="71.46910"></scales>
<clustering>
<clus scale="   71.469">  2  9  1 -1</clus>
<clus scale="   86.126">  5  6 -1 -1</clus>
<clus scale="   93.993">  7  8 -1 -1</clus>
<clus scale="  117.326">  2  5  1 -1</clus>
<clus scale="   71.469">  2  5  1 -1</clus>
</clustering>
</event>
<event>
 9    1  0.1321469E-005  0.9511824E+02  0.7546771E-02  0.1294208E+00
         21   -1    0    0  501  502  0.00000000000E+00  0.00000000000E+00  0.20238948659E+03  0.20238948659E+03  0.00000000000E+00 0. -1.
          1   -1    0    0  502    0 -0.00000000000E+00 -0.00000000000E+00 -0.18136777391E+03  0.18136777391E+03  0.00000000000E+00 0. -1.
         23    2    1    2    0    0  0.31903250347E+02 -0.10214648514E+02 -0.82864184933E+02  0.12595878816E+03  0.88752390064E+02 0.  0.
         23    2    1    2    0    0  0.35338802013E+02 -0.36221422246E+02 -0.20361824960E+02  0.10908633821E+03  0.94469057952E+02 0.  0.
        -11    1    3    3    0    0 -0.12550623965E+02 -0.36933800778E+02 -0.18146156619E+02  0.43022166402E+02  0.00000000000E+00 0.  1.
         11    1    3    3    0    0  0.44453874312E+02  0.26719152264E+02 -0.64718028314E+02  0.82936621754E+02  0.00000000000E+00 0. -1.
        -11    1    4    4    0    0 -0.23904195931E+02  0.10738429807E+02  0.94016233855E+01  0.27840886841E+02  0.00000000000E+00 0.  1.
         11    1    4    4    0    0  0.59242997944E+02 -0.46959852053E+02 -0.29763448345E+02  0.81245451365E+02  0.00000000000E+00 0. -1.
          1    1    1    2  501    0 -0.67242052360E+02  0.46436070761E+02  0.12424772258E+03  0.14871213414E+03  0.00000000000E+00 0. -1.
<scales pt_clust_5="13000.00000" pt_clust_6="13000.00000" pt_clust_7="13000.00000" pt_clust_8="13000.00000" pt_clust_9="81.71782"></scales>
<clustering>
<clus scale="   81.718">  1  9  2 -1</clus>
<clus scale="   88.752">  5  6 -1 -1</clus>
<clus scale="   89.443">  2  5  1 -1</clus>
<clus scale="   94.469">  7  8 -1 -1</clus>
<clus scale="   81.718">  1  5  2 -1</clus>
</clustering>
</event>
<event>
 9    1  0.1321469E-005  0.1829709E+03  0.7546771E-02  0.1176807E+00
         21   -1    0    0  501  502  0.00000000000E+00  0.00000000000E+00  0.11150365008E+04  0.11150365008E+04  0.00000000000E+00 0. -1.
          1   -1    0    0  502    0 -0.00000000000E+00 -0.00000000000E+00 -0.10615859242E+04  0.10615859242E+04  0.00000000000E+00 0. -1.
         23    2    1    2    0    0  0.56469720005E+01 -0.10614716986E+03 -0.34790058053E+03  0.37486028801E+03  0.90478238439E+02 0.  0.
         23    2    1    2    0    0  0.12717216043E+03  0.18792282890E+03 -0.67279337913E+03  0.71635223060E+03  0.94983363146E+02 0.  0.
        -13    1    4    4    0    0  0.66677426104E+02  0.38181550992E+02 -0.14099136838E+03  0.16056860199E+03  0.00000000000E+00 0.  1.
         13    1    4    4    0    0  0.60494734321E+02  0.14974127790E+03 -0.53180201075E+03  0.55578362860E+03  0.00000000000E+00 0. -1.
        -13    1    3    3    0    0 -0.30282546996E+02 -0.42263271352E+02 -0.68446406568E+02  0.85954216476E+02  0.00000000000E+00 0.  1.
         13    1    3    3    0    0  0.35929518997E+02 -0.63883898509E+02 -0.27945417396E+03  0.28890607153E+03  0.00000000000E+00 0. -1.
          1    1    1    2  501    0 -0.13281913243E+03 -0.81775659035E+02  0.10741445362E+04  0.10854099064E+04  0.00000000000E+00 0. -1.
<scales pt_clust_5="13000.00000" pt_clust_6="13000.00000" pt_clust_7="13000.00000" pt_clust_8="13000.00000" pt_clust_9="156.38574"></scales>
<clustering>
<clus scale="   90.478">  7  8 -1 -1</clus>
<clus scale="   94.983">  5  6 -1 -1</clus>
<clus scale="  139.590">  2  7  1 -1</clus>
<clus scale="  156.386">  1  9  2 -1</clus>
<clus scale="  156.386">  1  5  2 -1</clus>
</clustering>
</event>
<event>
 9    1  0.1321469E-005  0.1339286E+03  0.7546771E-02  0.1222082E+00
         21   -1    0    0  501  502  0.00000000000E+00  0.00000000000E+00  0.67688673257E+02  0.67688673257E+02  0.00000000000E+00 0.  1.
          1   -1    0    0  502    0 -0.00000000000E+00 -0.00000000000E+00 -0.64722752861E+03  0.64722752861E+03  0.00000000000E+00 0. -1.
         23    2    1    2    0    0 -0.77978633810E+02 -0.63878113855E+02 -0.52286764067E+03  0.54051304105E+03  0.92750725732E+02 0.  0.
         23    2    1    2    0    0  0.45637730238E+02  0.68493053388E+02 -0.67131149184E+02  0.14010094602E+03  0.91365108778E+02 0.  0.
        -11    1    4    4    0    0  0.33052564940E+02 -0.73824054151E+01 -0.51466506076E+02  0.61609846668E+02  0.00000000000E+00 0. -1.
         11    1    4    4    0    0  0.12585165298E+02  0.75875458803E+02 -0.15664643108E+02  0.78491099354E+02  0.00000000000E+00 0.  1.
        -13    1    3    3    0    0 -0.58054393921E+02 -0.83153309997E+02 -0.47001334576E+03  0.48082983560E+03  0.00000000000E+00 0. -1.
         13    1    3    3    0    0 -0.19924239889E+02  0.19275196142E+02 -0.52854294910E+02  0.59683205443E+02  0.00000000000E+00 0.  1.
          1    1    1    2  501    0  0.32340903572E+02 -0.46149395334E+01  0.10459934494E+02  0.34302214802E+02  0.00000000000E+00 0. -1.
<scales pt_clust_5="13000.00000" pt_clust_6="13000.00000" pt_clust_7="13000.00000" pt_clust_8="13000.00000" pt_clust_9="32.66851"></scales>
<clustering>
<clus scale="   32.669">  1  9  2 -1</clus>
<clus scale="   91.365">  5  6 -1 -1</clus>
<clus scale="   92.751">  7  8 -1 -1</clus>
<clus scale="  132.973">  1  5  2 -1</clus>
<clus scale="   32.669">  1  5  2 -1</clus>
</clustering>
</event>
<event>
 9    1  0.1321469E-005  0.9359424E+02  0.7546771E-02  0.1295235E+00
          3   -1    0    0  502    0 -0.00000000000E+00  0.00000000000E+00  0.29197591151E+03  0.29197591151E+03  0.00000000000E+00 0. -1.
         21   -1    0    0  501  502  0.00000000000E+00 -0.00000000000E+00 -0.11873525398E+03  0.11873525398E+03  0.00000000000E+00 0. -1.
         23    2    1    2    0    0 -0.38544965961E+02 -0.65175830107E+01  0.18155831552E+03  0.20581389050E+03  0.88700294795E+02 0.  0.
         23    2    1    2    0    0 -0.28454863976E+01  0.76343561768E+01  0.71206062158E+02  0.11523993398E+03  0.90241669475E+02 0.  0.
        -13    1    3    3    0    0 -0.10827834017E+02 -0.45216399383E+02  0.65060535501E+02  0.79966480743E+02  0.00000000000E+00 0. -1.
         13    1    3    3    0    0 -0.27717131944E+02  0.38698816372E+02  0.11649778002E+03  0.12584740975E+03  0.00000000000E+00 0.  1.
        -13    1    4    4    0    0 -0.76323167305E+01 -0.24663580541E+02 -0.10022600823E+02  0.27694710525E+02  0.00000000000E+00 0.  1.
         13    1    4    4    0    0  0.47868303329E+01  0.32297936718E+02  0.81228662982E+02  0.87545223460E+02  0.00000000000E+00 0. -1.
          3    1    1    2  501    0  0.41390452358E+02 -0.11167731661E+01 -0.79523720153E+02  0.89657341003E+02  0.00000000000E+00 0. -1.
<scales pt_clust_5="13000.00000" pt_clust_6="13000.00000" pt_clust_7="13000.00000" pt_clust_8="13000.00000" pt_clust_9="41.40552"></scales>
<clustering>
<clus scale="   41.406">  2  9  1 -1</clus>
<clus scale="   88.700">  5  6 -1 -1</clus>
<clus scale="   90.242">  7  8 -1 -1</clus>
<clus scale="   92.109">  1  5  2 -1</clus>
<clus scale="   41.406">  2  5  1 -1</clus>
</clustering>
</event>
<event>
 9    1  0.1321469E-005  0.1083700E+03  0.7546771E-02  0.1263670E+00
         -3   -1    0    0    0  501 -0.00000000000E+00  0.00000000000E+00  0.92153825564E+02  0.92153825564E+02  0.00000000000E+00 0.  1.
         21   -1    0    0  501  502  0.00000000000E+00 -0.00000000000E+00 -0.27269427030E+03  0.27269427030E+03  0.00000000000E+00 0.  1.
         23    2    1    2    0    0 -0.55561032617E+02 -0.15080184371E+02  0.24596415151E+02  0.11094118888E+03  0.91588882764E+02 0.  0.
         23    2    1    2    0    0  0.49041354203E+02  0.37164586135E+02 -0.10946040106E+03  0.15549851414E+03  0.91716670327E+02 0.  0.
        -11    1    4    4    0    0 -0.20110436058E+02  0.35343344193E+02 -0.48533468507E+02  0.63317289760E+02  0.00000000000E+00 0.  1.
         11    1    4    4    0    0  0.69151790261E+02  0.18212419419E+01 -0.60926932554E+02  0.92181224384E+02  0.00000000000E+00 0. -1.
        -11    1    3    3    0    0 -0.25279601855E+02 -0.48374511075E+02 -0.82808213435E+01  0.55206191625E+02  0.00000000000E+00 0.  1.
         11    1    3    3    0    0 -0.30281430762E+02  0.33294326703E+02  0.32877236494E+02  0.55734997256E+02  0.00000000000E+00 0. -1.
         -3    1    1    2    0  502  0.65196784138E+01 -0.22084401764E+02 -0.95676458824E+02  0.98408392838E+02  0.00000000000E+00 0.  1.
<scales pt_clust_5="13000.00000" pt_clust_6="13000.00000" pt_clust_7="13000.00000" pt_clust_8="13000.00000" pt_clust_9="23.02666"></scales>
<clustering>
<clus scale="   23.027">  2  9  1 -1</clus>
<clus scale="   91.589">  7  8 -1 -1</clus>
<clus scale="   91.717">  5  6 -1 -1</clus>
<clus scale="  108.262">  1  7  2 -1</clus>
<clus scale="   23.027">  2  5  1 -1</clus>
</clustering>
</event>
<event>
 9    1  0.1321469E-005  0.1128527E+03  0.7546771E-02  0.1262229E+00
         21   -1    0    0  501  502  0.00000000000E+00  0.00000000000E+00  0.42673598851E+02  0.42673598851E+02  0.00000000000E+00 0.  1.
          2   -1    0    0  502    0 -0.00000000000E+00 -0.00000000000E+00 -0.34952394222E+03  0.34952394222E+03  0.00000000000E+00 0. -1.
         23    2    1    2    0    0  0.26967257839E+02  0.61902114477E+02 -0.17637202849E+03  0.20284126041E+03  0.74016077447E+02 0.  0.
         23    2    1    2    0    0 -0.21196120451E+01 -0.63869281983E+02 -0.11022487712E+03  0.15723966516E+03  0.92146681054E+02 0.  0.
        -13    1    3    3    0    0  0.49699793013E+02  0.40427132855E+02 -0.86199801302E+02  0.10740031769E+03  0.00000000000E+00 0.  1.
         13    1    3    3    0    0 -0.22732535174E+02  0.21474981622E+02 -0.90172227187E+02  0.95440942719E+02  0.00000000000E+00 0. -1.
        -13    1    4    4    0    0 -0.56726600508E+01  0.22641351514E+02 -0.11810312016E+02  0.26159001135E+02  0.00000000000E+00 0.  1.
         13    1    4    4    0    0  0.35530480057E+01 -0.86510633497E+02 -0.98414565103E+02  0.13108066403E+03  0.00000000000E+00 0. -1.
          2    1    1    2  501    0 -0.24847645793E+02  0.19671675062E+01 -0.20253437758E+02  0.32116615489E+02  0.00000000000E+00 0. -1.
<scales pt_clust_5="13000.00000" pt_clust_6="13000.00000" pt_clust_7="13000.00000" pt_clust_8="13000.00000" pt_clust_9="24.92539"></scales>
<clustering>
<clus scale="   24.925">  1  9  2 -1</clus>
<clus scale="   74.016">  5  6 -1 -1</clus>
<clus scale="   92.147">  7  8 -1 -1</clus>
<clus scale="   98.606">  2  5  1 -1</clus>
<clus scale="   24.925">  1  5  2 -1</clus>
</clustering>
</event>
<event>
 9    1  0.1321469E-005  0.9325110E+02  0.7546771E-02  0.1295470E+00
         21   -1    0    0  501  502  0.00000000000E+00  0.00000000000E+00  0.21647508800E+03  0.21647508800E+03  0.00000000000E+00 0. -1.
          2   -1    0    0  502    0 -0.00000000000E+00 -0.00000000000E+00 -0.12018243018E+03  0.12018243018E+03  0.00000000000E+00 0. -1.
         23    2    1    2    0    0  0.23120741122E+02  0.12667187113E+02 -0.66441257229E+02  0.11547875390E+03  0.90696613173E+02 0.  0.
         23    2    1    2    0    0 -0.11462955339E+02  0.67193125158E+01  0.45637884915E+02  0.10191761969E+03  0.90154512683E+02 0.  0.
        -11    1    4    4    0    0  0.50197035482E+01  0.46742173360E+02  0.16873231729E+02  0.49947313672E+02  0.00000000000E+00 0.  1.
         11    1    4    4    0    0 -0.16482658887E+02 -0.40022860844E+02  0.28764653186E+02  0.51970306013E+02  0.00000000000E+00 0. -1.
        -13    1    3    3    0    0 -0.78740067716E+01 -0.35939092046E+02 -0.25011651430E+02  0.44488212226E+02  0.00000000000E+00 0. -1.
         13    1    3    3    0    0  0.30994747894E+02  0.48606279160E+02 -0.41429605799E+02  0.70990541676E+02  0.00000000000E+00 0.  1.
          2    1    1    2  501    0 -0.11657785784E+02 -0.19386499629E+02  0.11709603013E+03  0.11926114459E+03  0.00000000000E+00 0. -1.
<scales pt_clust_5="13000.00000" pt_clust_6="13000.00000" pt_clust_7="13000.00000" pt_clust_8="13000.00000" pt_clust_9="22.62168"></scales>
<clustering>
<clus scale="   22.622">  1  9  2 -1</clus>
<clus scale="   90.155">  5  6 -1 -1</clus>
<clus scale="   90.697">  7  8 -1 -1</clus>
<clus scale="   92.724">  1  5  2 -1</clus>
<clus scale="   22.622">  1  5  2 -1</clus>
</clustering>
</event>
<event>
 9    1  0.1321469E-005  0.9577249E+02  0.7546771E-02  0.1290548E+00
         21   -1    0    0  501  502  0.00000000000E+00  0.00000000000E+00  0.24903312482E+03  0.24903312482E+03  0.00000000000E+00 0. -1.
          2   -1    0    0  502    0 -0.00000000000E+00 -0.00000000000E+00 -0.29432020349E+03  0.29432020349E+03  0.00000000000E+00 0. -1.
         23    2    1    2    0    0  0.39531145057E+00 -0.27189787044E+02 -0.26914061497E+03  0.28570058093E+03  0.91916867462E+02 0.  0.
         23    2    1    2    0    0  0.29452845365E+02  0.20365539486E+02  0.16357225069E+03  0.19004123790E+03  0.89875278075E+02 0.  0.
        -11    1    3    3    0    0  0.34250069262E+01 -0.61401318641E+02 -0.17490905630E+03  0.18540504464E+03  0.00000000000E+00 0. -1.
         11    1    3    3    0    0 -0.30296954757E+01  0.34211531596E+02 -0.94231558672E+02  0.10029553628E+03  0.00000000000E+00 0.  1.
        -11    1    4    4    0    0  0.52967640702E+02  0.39786022744E+02  0.11266720288E+03  0.13069964488E+03  0.00000000000E+00 0.  1.
         11    1    4    4    0    0 -0.23514795337E+02 -0.19420483258E+02  0.50905047814E+02  0.59341593024E+02  0.00000000000E+00 0. -1.
          2    1    1    2  501    0 -0.29848156816E+02  0.68242475585E+01  0.60281285607E+02  0.67611509482E+02  0.00000000000E+00 0. -1.
<scales pt_clust_5="13000.00000" pt_clust_6="13000.00000" pt_clust_7="13000.00000" pt_clust_8="13000.00000" pt_clust_9="30.61834"></scales>
<clustering>
<clus scale="   30.618">  1  9  2 -1</clus>
<clus scale="   89.875">  7  8 -1 -1</clus>
<clus scale="   91.917">  5  6 -1 -1</clus>
<clus scale="   93.815">  1  7  2 -1</clus>
<clus scale="   30.618">  1  5  2 -1</clus>
</clustering>
</event>
<event>
 9    1  0.1321469E-005  0.1104066E+03  0.7546771E-02  0.1260843E+00
          2   -1    0    0  502    0 -0.00000000000E+00  0.00000000000E+00  0.27377719757E+03  0.27377719757E+03  0.00000000000E+00 0. -1.
         21   -1    0    0  501  502  0.00000000000E+00 -0.00000000000E+00 -0.58285425667E+02  0.58285425667E+02  0.00000000000E+00 0. -1.
         23    2    1    2    0    0  0.19597972378E+02 -0.64847697863E+02  0.14296124667E+03  0.18256384612E+03  0.91117152175E+02 0.  0.
         23    2    1    2    0    0 -0.28444404261E+02  0.45881574609E+02  0.40520282070E+02  0.11125444609E+03  0.88438993063E+02 0.  0.
        -11    1    4    4    0    0 -0.46864891610E+02  0.60687974165E+01 -0.56196763181E+01  0.47589170298E+02  0.00000000000E+00 0. -1.
         11    1    4    4    0    0  0.18420487349E+02  0.39812777192E+02  0.46139958388E+02  0.63665275795E+02  0.00000000000E+00 0.  1.
        -13    1    3    3    0    0  0.23351953252E+02 -0.85336330378E+02  0.13231990498E+03  0.15917336541E+03  0.00000000000E+00 0. -1.
         13    1    3    3    0    0 -0.37539808747E+01  0.20488632515E+02  0.10641341696E+02  0.23390480710E+02  0.00000000000E+00 0.  1.
          2    1    1    2  501    0  0.88464318834E+01  0.18966123254E+02  0.32010243163E+02  0.38244331028E+02  0.00000000000E+00 0. -1.
<scales pt_clust_5="13000.00000" pt_clust_6="13000.00000" pt_clust_7="13000.00000" pt_clust_8="13000.00000" pt_clust_9="20.92782"></scales>
<clustering>
<clus scale="   20.928">  2  9  1 -1</clus>
<clus scale="   88.439">  5  6 -1 -1</clus>
<clus scale="   91.117">  7  8 -1 -1</clus>
<clus scale="  108.207">  2  5  1 -1</clus>
<clus scale="   20.928">  2  5  1 -1</clus>
</clustering>
</event>
<event>
 9    1  0.1321469E-005  0.2501818E+03  0.7546771E-02  0.1113436E+00
         21   -1    0    0  501  502  0.00000000000E+00  0.00000000000E+00  0.11406063501E+03  0.11406063501E+03  0.00000000000E+00 0.  1.
          1   -1    0    0  502    0 -0.00000000000E+00 -0.00000000000E+00 -0.95122982517E+03  0.95122982517E+03  0.00000000000E+00 0. -1.
         23    2    1    2    0    0 -0.39360374009E+01  0.19762249984E+03 -0.38877369816E+03  0.44644912506E+03  0.95402767500E+02 0.  0.
         23    2    1    2    0    0 -0.15730528036E+02 -0.28634124588E+03 -0.43201972320E+03  0.52650523439E+03  0.91257668197E+02 0.  0.
        -11    1    3    3    0    0 -0.25612536619E+02  0.18807010773E+03 -0.30365658173E+03  0.35809731510E+03  0.00000000000E+00 0.  1.
         11    1    3    3    0    0  0.21676499218E+02  0.95523921178E+01 -0.85117116426E+02  0.88351809954E+02  0.00000000000E+00 0. -1.
        -11    1    4    4    0    0  0.16909106018E-01 -0.10998874599E+03 -0.24718917966E+03  0.27055501303E+03  0.00000000000E+00 0.  1.
         11    1    4    4    0    0 -0.15747437142E+02 -0.17635249989E+03 -0.18483054353E+03  0.25595022136E+03  0.00000000000E+00 0. -1.
          1    1    1    2  501    0  0.19666565437E+02  0.88718746039E+02 -0.16375768800E+02  0.92336100733E+02  0.00000000000E+00 0. -1.
<scales pt_clust_5="13000.00000" pt_clust_6="13000.00000" pt_clust_7="13000.00000" pt_clust_8="13000.00000" pt_clust_9="90.87238"></scales>
<clustering>
<clus scale="   90.872">  1  9  2 -1</clus>
<clus scale="   91.258">  7  8 -1 -1</clus>
<clus scale="   95.403">  5  6 -1 -1</clus>
<clus scale="  248.631">  1  7  2 -1</clus>
<clus scale="   90.872">  1  5  2 -1</clus>
</clustering>
</event>
<event>
 9    1  0.1321469E-005  0.1636317E+03  0.7546771E-02  0.1204626E+00
         21   -1    0    0  501  502  0.00000000000E+00  0.00000000000E+00  0.50048422888E+03  0.50048422888E+03  0.00000000000E+00 0. -1.
          2   -1    0    0  502    0 -0.00000000000E+00 -0.00000000000E+00 -0.16214794634E+03  0.16214794634E+03  0.00000000000E+00 0. -1.
         23    2    1    2    0    0 -0.31490740143E+02 -0.17601562817E+02 -0.68723832479E+02  0.12601294411E+03  0.99271421889E+02 0.  0.
         23    2    1    2    0    0  0.10903063448E+01  0.14086239246E+03  0.36706514931E+03  0.40351395029E+03  0.90792520974E+02 0.  0.
        -11    1    4    4    0    0 -0.30829677184E+02  0.61180177068E+02  0.24424278484E+03  0.25366911717E+03  0.00000000000E+00 0. -1.
         11    1    4    4    0    0  0.31919983529E+02  0.79682215392E+02  0.12282236447E+03  0.14984483312E+03  0.00000000000E+00 0.  1.
        -11    1    3    3    0    0 -0.46338130896E+02 -0.75861837033E-01  0.70163992576E+01  0.46866384419E+02  0.00000000000E+00 0.  1.
         11    1    3    3    0    0  0.14847390753E+02 -0.17525700980E+02 -0.75740231737E+02  0.79146559689E+02  0.00000000000E+00 0. -1.
          2    1    1    2  501    0  0.30400433798E+02 -0.12326082964E+03  0.39994965713E+02  0.13310528082E+03  0.00000000000E+00 0. -1.
<scales pt_clust_5="13000.00000" pt_clust_6="13000.00000" pt_clust_7="13000.00000" pt_clust_8="13000.00000" pt_clust_9="136.13249"></scales>
<clustering>
<clus scale="   90.793">  5  6 -1 -1</clus>
<clus scale="   99.271">  7  8 -1 -1</clus>
<clus scale="  105.623">  2  7  1 -1</clus>
<clus scale="  136.132">  1  9  2 -1</clus>
<clus scale="  136.132">  1  5  2 -1</clus>
</clustering>
</event>
<event>
 9    1  0.1321469E-005  0.1791825E+03  0.7546771E-02  0.1168932E+00
         21   -1    0    0  501  502  0.00000000000E+00  0.00000000000E+00  0.32299405614E+03  0.32299405614E+03  0.00000000000E+00 0. -1.
          3   -1    0    0  502    0 -0.00000000000E+00 -0.00000000000E+00 -0.51404159581E+03  0.51404159581E+03  0.00000000000E+00 0. -1.
         23    2    1    2    0    0  0.16473651180E+03  0.36989961028E+02 -0.42041054864E+03  0.46234041650E+03  0.92234786168E+02 0.  0.
         23    2    1    2    0    0 -0.10491606315E+03  0.39961192895E+01  0.41001863952E+01  0.13804848587E+03  0.89538950446E+02 0.  0.
        -11    1    3    3    0    0  0.43996090892E+02  0.28047441018E+02 -0.23627785692E+03  0.24197012343E+03  0.00000000000E+00 0.  1.
         11    1    3    3    0    0  0.12074042091E+03  0.89425200106E+01 -0.18413269172E+03  0.22037029306E+03  0.00000000000E+00 0. -1.
        -13    1    4    4    0    0 -0.34217371727E+02  0.25124325748E+02  0.37881307084E+02  0.56895111377E+02  0.00000000000E+00 0. -1.
         13    1    4    4    0    0 -0.70698691426E+02 -0.21128206458E+02 -0.33781120688E+02  0.81153374498E+02  0.00000000000E+00 0.  1.
          3    1    1    2  501    0 -0.59820448651E+02 -0.40986080318E+02  0.22526282257E+03  0.23664674959E+03  0.00000000000E+00 0. -1.
<scales pt_clust_5="13000.00000" pt_clust_6="13000.00000" pt_clust_7="13000.00000" pt_clust_8="13000.00000" pt_clust_9="72.51445"></scales>
<clustering>
<clus scale="   72.514">  1  9  2 -1</clus>
<clus scale="   89.539">  7  8 -1 -1</clus>
<clus scale="   92.235">  5  6 -1 -1</clus>
<clus scale="  177.810">  1  7  2 -1</clus>
<clus scale="   72.514">  1  5  2 -1</clus>
</clustering>
</event>
<event>
 9    1  0.1321469E-005  0.1238475E+03  0.7546771E-02  0.1237172E+00
          2   -1    0    0  502    0 -0.00000000000E+00  0.00000000000E+00  0.56213626162E+03  0.56213626162E+03  0.00000000000E+00 0. -1.
         21   -1    0    0  501  502  0.00000000000E+00 -0.00000000000E+00 -0.12248210732E+03  0.12248210732E+03  0.00000000000E+00 0. -1.
         23    2    1    2    0    0  0.16569756710E+02 -0.85856297860E+02  0.28912526421E+03  0.31527098352E+03  0.90313420538E+02 0.  0.
         23    2    1    2    0    0 -0.55357783197E+02  0.65012668384E+02  0.23945052722E+03  0.27012024478E+03  0.91308600048E+02 0.  0.
        -11    1    4    4    0    0  0.22197045473E+02  0.13439954648E+01  0.25672447304E+02  0.33964535947E+02  0.00000000000E+00 0.  1.
         11    1    4    4    0    0 -0.77554828670E+02  0.63668672919E+02  0.21377807992E+03  0.23615570883E+03  0.00000000000E+00 0. -1.
        -13    1    3    3    0    0 -0.22981767847E+02  0.42506079314E+01  0.29592584337E+02  0.37708757191E+02  0.00000000000E+00 0.  1.
         13    1    3    3    0    0  0.39551524556E+02 -0.90106905791E+02  0.25953267987E+03  0.27756222633E+03  0.00000000000E+00 0. -1.
          2    1    1    2  501    0  0.38788026488E+02  0.20843629476E+02 -0.88921637130E+02  0.99227140634E+02  0.00000000000E+00 0. -1.
<scales pt_clust_5="13000.00000" pt_clust_6="13000.00000" pt_clust_7="13000.00000" pt_clust_8="13000.00000" pt_clust_9="44.03371"></scales>
<clustering>
<clus scale="   44.034">  2  9  1 -1</clus>
<clus scale="   90.313">  7  8 -1 -1</clus>
<clus scale="   91.309">  5  6 -1 -1</clus>
<clus scale="  123.116">  1  7  2 -1</clus>
<clus scale="   44.034">  2  5  1 -1</clus>
</clustering>
</event>
<event>
 9    1  0.2982690E-005  0.1323886E+03  0.7546771E-02  0.1236170E+00
         21   -1    0    0  501  502  0.00000000000E+00  0.00000000000E+00  0.41971143594E+03  0.41971143594E+03  0.00000000000E+00 0. -1.
         -1   -1    0    0    0  501 -0.00000000000E+00 -0.00000000000E+00 -0.18424208754E+03  0.18424208754E+03  0.00000000000E+00 0.  1.
         23    2    1    2    0    0  0.22984996947E+02  0.43097616699E+02 -0.15286220600E+03  0.18453652255E+03  0.91110699041E+02 0.  0.
         23    2    1    2    0    0 -0.27579057312E+02 -0.16868215520E+02  0.27769939299E+03  0.30562525249E+03  0.12346943344E+03 0.  0.
        -11    1    3    3    0    0  0.56528312868E+02  0.40835799709E+02 -0.10493276556E+03  0.12599165838E+03  0.00000000000E+00 0. -1.
         11    1    3    3    0    0 -0.33543315920E+02  0.22618169908E+01 -0.47929440449E+02  0.58544864171E+02  0.00000000000E+00 0.  1.
        -11    1    4    4    0    0  0.32711423108E+02 -0.48154812238E+02  0.10517713577E+03  0.12021294869E+03  0.00000000000E+00 0. -1.
         11    1    4    4    0    0 -0.60290480420E+02  0.31286596718E+02  0.17252225722E+03  0.18541230380E+03  0.00000000000E+00 0.  1.
         -1    1    1    2    0  502  0.45940603646E+01 -0.26229401179E+02  0.11063216141E+03  0.11379174845E+03  0.00000000000E+00 0.  1.
<scales pt_clust_5="13000.00000" pt_clust_6="13000.00000" pt_clust_7="13000.00000" pt_clust_8="13000.00000" pt_clust_9="26.62869"></scales>
<clustering>
<clus scale="   26.629">  1  9  2 -1</clus>
<clus scale="   91.111">  5  6 -1 -1</clus>
<clus scale="  102.875">  2  5  1 -1</clus>
<clus scale="  123.469">  7  8 -1 -1</clus>
<clus scale="   26.629">  1  5  2 -1</clus>
</clustering>
</event>
<event>
 9    1  0.1321469E-005  0.1510687E+03  0.7546771E-02  0.1201632E+00
         -1   -1    0    0    0  501 -0.00000000000E+00  0.00000000000E+00  0.77705020073E+03  0.77705020073E+03  0.00000000000E+00 0.  1.
         21   -1    0    0  501  502  0.00000000000E+00 -0.00000000000E+00 -0.11545890945E+03  0.11545890945E+03  0.00000000000E+00 0.  1.
         23    2    1    2    0    0  0.97095334239E+02  0.89618385892E+02  0.55195068796E+03  0.57300986757E+03  0.78941670713E+02 0.  0.
         23    2    1    2    0    0  0.32658129235E+02 -0.12111369983E+03  0.10099382440E+03  0.18569833503E+03  0.92461004612E+02 0.  0.
        -13    1    4    4    0    0  0.22218557075E+02 -0.92463240749E+02  0.17344105954E+02  0.96664022158E+02  0.00000000000E+00 0.  1.
         13    1    4    4    0    0  0.10439572159E+02 -0.28650459082E+02  0.83649718446E+02  0.89034312872E+02  0.00000000000E+00 0. -1.
        -13    1    3    3    0    0  0.11763809252E+02  0.24035403776E+02  0.30527337017E+02  0.40595641984E+02  0.00000000000E+00 0. -1.
         13    1    3    3    0    0  0.85331524988E+02  0.65582982117E+02  0.52142335094E+03  0.53241422559E+03  0.00000000000E+00 0.  1.
         -1    1    1    2    0  502 -0.12975346347E+03  0.31495313939E+02  0.86467789199E+01  0.13380090758E+03  0.00000000000E+00 0.  1.
<scales pt_clust_5="13000.00000" pt_clust_6="13000.00000" pt_clust_7="13000.00000" pt_clust_8="13000.00000" pt_clust_9="133.52122"></scales>
<clustering>
<clus scale="   78.942">  7  8 -1 -1</clus>
<clus scale="   92.461">  5  6 -1 -1</clus>
<clus scale="  133.521">  2  9  1 -1</clus>
<clus scale="  143.194">  1  7  2 -1</clus>
<clus scale="  133.521">  2  5  1 -1</clus>
</clustering>
</event>
<event>
 9    1  0.1321469E-005  0.9361917E+02  0.7546771E-02  0.1294781E+00
         21   -1    0    0  501  502  0.00000000000E+00  0.00000000000E+00  0.22627508981E+02  0.22627508981E+02  0.00000000000E+00 0. -1.
          2   -1    0    0  502    0 -0.00000000000E+00 -0.00000000000E+00 -0.69394211326E+03  0.69394211326E+03  0.00000000000E+00 0. -1.
         23    2    1    2    0    0  0.68798237196E+01  0.10811727303E+02 -0.36222547577E+03  0.37341298694E+03  0.89809454420E+02 0.  0.
         23    2    1    2    0    0 -0.14519914709E+02 -0.47024596119E+02 -0.27359611187E+03  0.29187801316E+03  0.88970790546E+02 0.  0.
        -11    1    4    4    0    0 -0.42226635071E+02  0.34705563359E+01 -0.90305229134E+02  0.99750528217E+02  0.00000000000E+00 0.  1.
         11    1    4    4    0    0  0.27706720363E+02 -0.50495152455E+02 -0.18329088274E+03  0.19212748494E+03  0.00000000000E+00 0. -1.
        -13    1    3    3    0    0  0.37132230157E+02  0.29112405260E+02 -0.27940466134E+03  0.28336072316E+03  0.00000000000E+00 0. -1.
         13    1    3    3    0    0 -0.30252406437E+02 -0.18300677957E+02 -0.82820814430E+02  0.90052263780E+02  0.00000000000E+00 0.  1.
          2    1    1    2  501    0  0.76400909891E+01  0.36212868816E+02 -0.35493016642E+02  0.51278622140E+02  0.00000000000E+00 0. -1.
<scales pt_clust_5="13000.00000" pt_clust_6="13000.00000" pt_clust_7="13000.00000" pt_clust_8="13000.00000" pt_clust_9="37.01004"></scales>
<clustering>
<clus scale="   37.010">  1  9  2 -1</clus>
<clus scale="   88.971">  5  6 -1 -1</clus>
<clus scale="   89.809">  7  8 -1 -1</clus>
<clus scale="   92.815">  1  5  2 -1</clus>
<clus scale="   37.010">  1  5  2 -1</clus>
</clustering>
</event>
<event>
 9    1  0.1321469E-005  0.1507877E+03  0.7546771E-02  0.1201014E+00
          2   -1    0    0  502    0 -0.00000000000E+00  0.00000000000E+00  0.80799727556E+03  0.80799727556E+03  0.00000000000E+00 0. -1.
         21   -1    0    0  501  502  0.00000000000E+00 -0.00000000000E+00 -0.55738973817E+02  0.55738973817E+02  0.00000000000E+00 0.  1.
         23    2    1    2    0    0  0.66627763473E+02 -0.23010445024E+02  0.14208326201E+03  0.18239257586E+03  0.90059196854E+02 0.  0.
         23    2    1    2    0    0 -0.17247133249E+03  0.30302298036E+01  0.44435499141E+03  0.48361062487E+03  0.81684363719E+02 0.  0.
        -11    1    4    4    0    0 -0.16397140359E+03 -0.20108370521E+02  0.36810863314E+03  0.40347854162E+03  0.00000000000E+00 0.  1.
         11    1    4    4    0    0 -0.84999289019E+01  0.23138600325E+02  0.76246358269E+02  0.80132083248E+02  0.00000000000E+00 0. -1.
        -13    1    3    3    0    0  0.65386570793E+01  0.21094942170E+02  0.86866732847E+02  0.89630239859E+02  0.00000000000E+00 0. -1.
         13    1    3    3    0    0  0.60089106393E+02 -0.44105387194E+02  0.55216529163E+02  0.92762335996E+02  0.00000000000E+00 0.  1.
          2    1    1    2  501    0  0.10584356902E+03  0.19980215220E+02  0.16582004832E+03  0.19773304865E+03  0.00000000000E+00 0. -1.
<scales pt_clust_5="13000.00000" pt_clust_6="13000.00000" pt_clust_7="13000.00000" pt_clust_8="13000.00000" pt_clust_9="107.71291"></scales>
<clustering>
<clus scale="   81.684">  5  6 -1 -1</clus>
<clus scale="   90.059">  7  8 -1 -1</clus>
<clus scale="  107.713">  2  9  1 -1</clus>
<clus scale="  145.940">  2  5  1 -1</clus>
<clus scale="  107.713">  2  5  1 -1</clus>
</clustering>
</event>
<event>
 9    1  0.1321469E-005  0.1283214E+03  0.7546771E-02  0.1237622E+00
         21   -1    0    0  501  502  0.00000000000E+00  0.00000000000E+00  0.47614774125E+03  0.47614774125E+03  0.00000000000E+00 0. -1.
          3   -1    0    0  502    0 -0.00000000000E+00 -0.00000000000E+00 -0.97367914838E+02  0.97367914838E+02  0.00000000000E+00 0. -1.
         23    2    1    2    0    0 -0.54477725441E+02  0.30921323938E+02  0.16937683254E+01  0.12901966284E+03  0.11277966884E+03 0.  0.
         23    2    1    2    0    0  0.71433095576E+02  0.30081201061E+02  0.87674788915E+02  0.14823989567E+03  0.90997979402E+02 0.  0.
        -11    1    3    3    0    0 -0.24201087088E+02  0.48100312594E+02 -0.45417929936E+02  0.70442324263E+02  0.00000000000E+00 0. -1.
         11    1    3    3    0    0 -0.30276638354E+02 -0.17178988656E+02  0.47111698262E+02  0.58577338573E+02  0.00000000000E+00 0.  1.
        -11    1    4    4    0    0  0.32301668173E+02  0.16827771202E+02  0.98928090029E+02  0.10541982094E+03  0.00000000000E+00 0.  1.
         11    1    4    4    0    0  0.39131427403E+02  0.13253429860E+02 -0.11253301114E+02  0.42820074726E+02  0.00000000000E+00 0. -1.
          3    1    1    2  501    0 -0.16955370135E+02 -0.61002525000E+02  0.28941126917E+03  0.29625609758E+03  0.00000000000E+00 0. -1.
<scales pt_clust_5="13000.00000" pt_clust_6="13000.00000" pt_clust_7="13000.00000" pt_clust_8="13000.00000" pt_clust_9="63.31503"></scales>
<clustering>
<clus scale="   63.315">  1  9  2 -1</clus>
<clus scale="   90.998">  7  8 -1 -1</clus>
<clus scale="  109.671">  1  7  2 -1</clus>
<clus scale="  112.780">  5  6 -1 -1</clus>
<clus scale="   63.315">  1  5  2 -1</clus>
</clustering>
</event>
<event>
 9    1  0.1321469E-005  0.9914190E+02  0.7546771E-02  0.1284395E+00
         21   -1    0    0  501  502  0.00000000000E+00  0.00000000000E+00  0.41520311516E+02  0.41520311516E+02  0.00000000000E+00 0. -1.
          2   -1    0    0  502    0 -0.00000000000E+00 -0.00000000000E+00 -0.69894143712E+03  0.69894143712E+03  0.00000000000E+00 0.  1.
         23    2    1    2    0    0  0.54658999854E+01 -0.12710931377E+02 -0.27776764133E+03  0.29123827747E+03  0.86448989900E+02 0.  0.
         23    2    1    2    0    0 -0.95324157486E+01  0.73688154954E+02 -0.36891034560E+03  0.38717370586E+03  0.91037488383E+02 0.  0.
        -11    1    3    3    0    0  0.37635845785E+02 -0.21297473602E+02 -0.22291635711E+03  0.22707210647E+03  0.00000000000E+00 0.  1.
         11    1    3    3    0    0 -0.32169945800E+02  0.85865422246E+01 -0.54851284217E+02  0.64166170997E+02  0.00000000000E+00 0. -1.
        -13    1    4    4    0    0  0.73169394130E+01  0.91952233633E+02 -0.30323333565E+03  0.31695300396E+03  0.00000000000E+00 0. -1.
         13    1    4    4    0    0 -0.16849355162E+02 -0.18264078679E+02 -0.65677009955E+02  0.70220701904E+02  0.00000000000E+00 0.  1.
          2    1    1    2  501    0  0.40665157632E+01 -0.60977223577E+02 -0.10743138676E+02  0.62049765304E+02  0.00000000000E+00 0.  1.
<scales pt_clust_5="13000.00000" pt_clust_6="13000.00000" pt_clust_7="13000.00000" pt_clust_8="13000.00000" pt_clust_9="61.11267"></scales>
<clustering>
<clus scale="   61.113">  1  9  2 -1</clus>
<clus scale="   86.449">  5  6 -1 -1</clus>
<clus scale="   91.037">  7  8 -1 -1</clus>
<clus scale="   94.946">  2  5  1 -1</clus>
<clus scale="   61.113">  1  5  2 -1</clus>
</clustering>
</event>
<event>
 9    1  0.1321469E-005  0.1112305E+03  0.7546771E-02  0.1270138E+00
          2   -1    0    0  502    0 -0.00000000000E+00  0.00000000000E+00  0.50135787774E+03  0.50135787774E+03  0.00000000000E+00 0. -1.
         21   -1    0    0  501  502  0.00000000000E+00 -0.00000000000E+00 -0.45478027362E+02  0.45478027362E+02  0.00000000000E+00 0. -1.
         23    2    1    2    0    0  0.12621862420E+02  0.42263989701E+02  0.17204065940E+03  0.19293927815E+03  0.75379177031E+02 0.  0.
         23    2    1    2    0    0 -0.78506248153E+02 -0.15639356818E+01  0.21491597848E+03  0.25022572505E+03  0.10128355629E+03 0.  0.
        -11    1    3    3    0    0  0.35636351575E+02  0.33321504688E+02  0.55869634286E+02  0.74173366268E+02  0.00000000000E+00 0. -1.
         11    1    3    3    0    0 -0.23014489154E+02  0.89424850130E+01  0.11617102512E+03  0.11876591188E+03  0.00000000000E+00 0.  1.
        -11    1    4    4    0    0 -0.81350311523E+02  0.27584626693E+02  0.10092042826E+03  0.13252817683E+03  0.00000000000E+00 0. -1.
         11    1    4    4    0    0  0.28440633695E+01 -0.29148562375E+02  0.11399555023E+03  0.11769754822E+03  0.00000000000E+00 0.  1.
          2    1    1    2  501    0  0.65884385733E+02 -0.40700054019E+02  0.68923212494E+02  0.10367090190E+03  0.00000000000E+00 0. -1.
<scales pt_clust_5="13000.00000" pt_clust_6="13000.00000" pt_clust_7="13000.00000" pt_clust_8="13000.00000" pt_clust_9="77.44189"></scales>
<clustering>
<clus scale="   75.379">  5  6 -1 -1</clus>
<clus scale="   77.442">  2  9  1 -1</clus>
<clus scale="   88.294">  1  5  2 -1</clus>
<clus scale="  101.284">  7  8 -1 -1</clus>
<clus scale="   77.442">  2  5  1 -1</clus>
</clustering>
</event>
<event>
 9    1  0.1321469E-005  0.1027282E+03  0.7546771E-02  0.1279601E+00
          2   -1    0    0  502    0 -0.00000000000E+00  0.00000000000E+00  0.99323647200E+02  0.99323647200E+02  0.00000000000E+00 0. -1.
         21   -1    0    0  501  502  0.00000000000E+00 -0.00000000000E+00 -0.15976532292E+03  0.15976532292E+03  0.00000000000E+00 0.  1.
         23    2    1    2    0    0 -0.31810915990E+02 -0.13426934719E+02  0.13492091264E+02  0.10044592933E+03  0.93354867254E+02 0.  0.
         23    2    1    2    0    0  0.59769431990E+02 -0.37979943342E+01 -0.36172835247E+02  0.10860041133E+03  0.83058807902E+02 0.  0.
        -11    1    4    4    0    0 -0.11475872969E+02  0.18116339788E+02  0.68789028916E+01  0.22521472702E+02  0.00000000000E+00 0.  1.
         11    1    4    4    0    0  0.71245304958E+02 -0.21914334122E+02 -0.43051738139E+02  0.86078938628E+02  0.00000000000E+00 0. -1.
        -11    1    3    3    0    0  0.19431281595E+02  0.25989908577E+02  0.15067203758E+02  0.35778075428E+02  0.00000000000E+00 0. -1.
         11    1    3    3    0    0 -0.51242197585E+02 -0.39416843296E+02 -0.15751124935E+01  0.64667853901E+02  0.00000000000E+00 0.  1.
          2    1    1    2  501    0 -0.27958516000E+02  0.17224929053E+02 -0.37760931739E+02  0.50042629463E+02  0.00000000000E+00 0. -1.
<scales pt_clust_5="13000.00000" pt_clust_6="13000.00000" pt_clust_7="13000.00000" pt_clust_8="13000.00000" pt_clust_9="32.83865"></scales>
<clustering>
<clus scale="   32.839">  2  9  1 -1</clus>
<clus scale="   83.059">  5  6 -1 -1</clus>
<clus scale="   93.355">  7  8 -1 -1</clus>
<clus scale="   93.470">  2  5  1 -1</clus>
<clus scale="   32.839">  2  5  1 -1</clus>
</clustering>
</event>
<event>
 9    1  0.1321469E-005  0.1147356E+03  0.7546771E-02  0.1252872E+00
         21   -1    0    0  501  502  0.00000000000E+00  0.00000000000E+00  0.66992094528E+02  0.66992094528E+02  0.00000000000E+00 0. -1.
          2   -1    0    0  502    0 -0.00000000000E+00 -0.00000000000E+00 -0.80807253675E+03  0.80807253675E+03  0.00000000000E+00 0. -1.
         23    2    1    2    0    0 -0.62994513211E+02 -0.29941192476E+02 -0.41689066556E+03  0.43268240102E+03  0.92474047304E+02 0.  0.
         23    2    1    2    0    0  0.45175516278E+02  0.52168008508E+02 -0.37078211618E+03  0.38777093011E+03  0.90136497481E+02 0.  0.
        -11    1    3    3    0    0 -0.41698543137E+02 -0.61830679011E+02 -0.31773933511E+03  0.32637415100E+03  0.00000000000E+00 0.  1.
         11    1    3    3    0    0 -0.21295970074E+02  0.31889486536E+02 -0.99151330449E+02  0.10630825002E+03  0.00000000000E+00 0. -1.
        -13    1    4    4    0    0  0.71408249647E+02  0.29197345544E+02 -0.22431426741E+03  0.23720985154E+03  0.00000000000E+00 0. -1.
         13    1    4    4    0    0 -0.26232733369E+02  0.22970662964E+02 -0.14646784877E+03  0.15056107857E+03  0.00000000000E+00 0.  1.
          2    1    1    2  501    0  0.17818996933E+02 -0.22226816032E+02  0.46592339511E+02  0.54611300147E+02  0.00000000000E+00 0. -1.
<scales pt_clust_5="13000.00000" pt_clust_6="13000.00000" pt_clust_7="13000.00000" pt_clust_8="13000.00000" pt_clust_9="28.48768"></scales>
<clustering>
<clus scale="   28.488">  1  9  2 -1</clus>
<clus scale="   90.136">  7  8 -1 -1</clus>
<clus scale="   92.474">  5  6 -1 -1</clus>
<clus scale="  112.860">  1  7  2 -1</clus>
<clus scale="   28.488">  1  5  2 -1</clus>
</clustering>
</event>
<event>
 9    1  0.1321469E-005  0.2010100E+03  0.7546771E-02  0.1148995E+00
          2   -1    0    0  502    0 -0.00000000000E+00  0.00000000000E+00  0.10198864636E+04  0.10198864636E+04  0.00000000000E+00 0. -1.
         21   -1    0    0  501  502  0.00000000000E+00 -0.00000000000E+00 -0.64404144954E+02  0.64404144954E+02  0.00000000000E+00 0.  1.
         23    2    1    2    0    0 -0.12863540681E+03  0.13099924472E+03  0.79363363329E+03  0.81963551184E+03  0.90775318032E+02 0.  0.
         23    2    1    2    0    0  0.11580760351E+03 -0.11398003774E+03  0.15382388854E+03  0.24188223328E+03  0.91882403429E+02 0.  0.
        -13    1    4    4    0    0  0.93672827361E+02 -0.11146468135E+03  0.16230879014E+03  0.21804384222E+03  0.00000000000E+00 0. -1.
         13    1    4    4    0    0  0.22134776154E+02 -0.25153563897E+01 -0.84849016063E+01  0.23838391062E+02  0.00000000000E+00 0.  1.
        -13    1    3    3    0    0 -0.63554764630E+02  0.10807742949E+03  0.37634016375E+03  0.39667601102E+03  0.00000000000E+00 0. -1.
         13    1    3    3    0    0 -0.65080642180E+02  0.22921815230E+02  0.41729346955E+03  0.42295950081E+03  0.00000000000E+00 0.  1.
          2    1    1    2  501    0  0.12827803295E+02 -0.17019206987E+02  0.80247967758E+01  0.22772863393E+02  0.00000000000E+00 0. -1.
<scales pt_clust_5="13000.00000" pt_clust_6="13000.00000" pt_clust_7="13000.00000" pt_clust_8="13000.00000" pt_clust_9="21.31211"></scales>
<clustering>
<clus scale="   21.312">  2  9  1 -1</clus>
<clus scale="   90.775">  7  8 -1 -1</clus>
<clus scale="   91.882">  5  6 -1 -1</clus>
<clus scale="  200.506">  1  7  2 -1</clus>
<clus scale="   21.312">  2  5  1 -1</clus>
</clustering>
</event>
<event>
 9    1  0.1321469E-005  0.1474610E+03  0.7546771E-02  0.1204782E+00
          3   -1    0    0  502    0 -0.00000000000E+00  0.00000000000E+00  0.11305814990E+03  0.11305814990E+03  0.00000000000E+00 0. -1.
         21   -1    0    0  501  502  0.00000000000E+00 -0.00000000000E+00 -0.39523429972E+03  0.39523429972E+03  0.00000000000E+00 0. -1.
         23    2    1    2    0    0  0.96947411442E+02 -0.51156391437E+02 -0.23886865721E+02  0.14139081942E+03  0.86052335776E+02 0.  0.
         23    2    1    2    0    0 -0.12903729784E+03  0.11070300730E+02 -0.73353526251E+02  0.17496963701E+03  0.91980749448E+02 0.  0.
        -11    1    4    4    0    0 -0.94542400849E+02  0.47876594777E+02 -0.35010270382E+02  0.11160713650E+03  0.00000000000E+00 0. -1.
         11    1    4    4    0    0 -0.34494896991E+02 -0.36806294047E+02 -0.38343255868E+02  0.63362500507E+02  0.00000000000E+00 0.  1.
        -13    1    3    3    0    0  0.52179715429E+02 -0.35869979384E+02  0.29676074346E+02  0.69928874665E+02  0.00000000000E+00 0. -1.
         13    1    3    3    0    0  0.44767696013E+02 -0.15286412052E+02 -0.53562940067E+02  0.71461944757E+02  0.00000000000E+00 0.  1.
          3    1    1    2  501    0  0.32089886398E+02  0.40086090707E+02 -0.18493575785E+03  0.19193199319E+03  0.00000000000E+00 0. -1.
<scales pt_clust_5="13000.00000" pt_clust_6="13000.00000" pt_clust_7="13000.00000" pt_clust_8="13000.00000" pt_clust_9="51.34837"></scales>
<clustering>
<clus scale="   51.348">  2  9  1 -1</clus>
<clus scale="   86.052">  7  8 -1 -1</clus>
<clus scale="   91.981">  5  6 -1 -1</clus>
<clus scale="  143.838">  1  7  2 -1</clus>
<clus scale="   51.348">  2  5  1 -1</clus>
</clustering>
</event>
<event>
 9    1  0.1321469E-005  0.8769951E+02  0.7546771E-02  0.1309062E+00
         -2   -1    0    0    0  501 -0.00000000000E+00  0.00000000000E+00  0.16722299902E+02  0.16722299902E+02  0.00000000000E+00 0.  1.
         21   -1    0    0  501  502  0.00000000000E+00 -0.00000000000E+00 -0.68947275613E+03  0.68947275613E+03  0.00000000000E+00 0. -1.
         23    2    1    2    0    0 -0.76911012098E+01 -0.38545512722E+01 -0.23555370976E+03  0.25114878317E+03  0.86695735189E+02 0.  0.
         23    2    1    2    0    0 -0.17820517912E+02 -0.23413804310E+01 -0.23989336533E+03  0.25600392439E+03  0.87556436951E+02 0.  0.
        -11    1    3    3    0    0  0.15655979769E+01 -0.42903150378E+02 -0.83523292048E+02  0.93910977655E+02  0.00000000000E+00 0.  1.
         11    1    3    3    0    0 -0.92566991867E+01  0.39048599106E+02 -0.15203041771E+03  0.15723780551E+03  0.00000000000E+00 0. -1.
        -11    1    4    4    0    0  0.31134235930E+02 -0.16677554715E+02 -0.13225636682E+03  0.13689130010E+03  0.00000000000E+00 0.  1.
         11    1    4    4    0    0 -0.48954753842E+02  0.14336174284E+02 -0.10763699851E+03  0.11911262429E+03  0.00000000000E+00 0. -1.
         -2    1    1    2    0  502  0.25511619121E+02  0.61959317032E+01 -0.19730338114E+03  0.19904234848E+03  0.00000000000E+00 0.  1.
<scales pt_clust_5="13000.00000" pt_clust_6="13000.00000" pt_clust_7="13000.00000" pt_clust_8="13000.00000" pt_clust_9="26.25323"></scales>
<clustering>
<clus scale="   26.253">  2  9  1 -1</clus>
<clus scale="   86.696">  5  6 -1 -1</clus>
<clus scale="   86.840">  1  5  2 -1</clus>
<clus scale="   87.556">  7  8 -1 -1</clus>
<clus scale="   26.253">  2  5  1 -1</clus>
</clustering>
</event>
<event>
 9    1  0.1321469E-005  0.9609947E+02  0.7546771E-02  0.1291459E+00
         -3   -1    0    0    0  501 -0.00000000000E+00  0.00000000000E+00  0.37056646059E+03  0.37056646059E+03  0.00000000000E+00 0.  1.
         21   -1    0    0  501  502  0.00000000000E+00 -0.00000000000E+00 -0.35089757160E+02  0.35089757160E+02  0.00000000000E+00 0. -1.
         23    2    1    2    0    0  0.15972807202E+00  0.17083426035E+01  0.19097518750E+03  0.21155751863E+03  0.91006139896E+02 0.  0.
         23    2    1    2    0    0  0.47508013896E+01  0.19975629054E+02  0.14081532290E+03  0.17156215224E+03  0.95828080679E+02 0.  0.
        -11    1    3    3    0    0 -0.38568359322E+02 -0.18250465460E+02  0.60748473350E+02  0.74235940384E+02  0.00000000000E+00 0.  1.
         11    1    3    3    0    0  0.38728087394E+02  0.19958808063E+02  0.13022671415E+03  0.13732157825E+03  0.00000000000E+00 0. -1.
        -13    1    4    4    0    0  0.38843380725E+02 -0.18258828177E+02  0.40936622021E+02  0.59312730969E+02  0.00000000000E+00 0. -1.
         13    1    4    4    0    0 -0.34092579335E+02  0.38234457231E+02  0.99878700883E+02  0.11224942127E+03  0.00000000000E+00 0.  1.
         -3    1    1    2    0  502 -0.49105294616E+01 -0.21683971657E+02  0.36861930253E+01  0.22536546884E+02  0.00000000000E+00 0.  1.
<scales pt_clust_5="13000.00000" pt_clust_6="13000.00000" pt_clust_7="13000.00000" pt_clust_8="13000.00000" pt_clust_9="22.23304"></scales>
<clustering>
<clus scale="   22.233">  2  9  1 -1</clus>
<clus scale="   91.006">  5  6 -1 -1</clus>
<clus scale="   91.292">  1  5  2 -1</clus>
<clus scale="   95.828">  7  8 -1 -1</clus>
<clus scale="   22.233">  2  5  1 -1</clus>
</clustering>
</event>
<event>
 9    1  0.1321469E-005  0.9485379E+02  0.7546771E-02  0.1292902E+00
          2   -1    0    0  502    0 -0.00000000000E+00  0.00000000000E+00  0.11462758837E+03  0.11462758837E+03  0.00000000000E+00 0. -1.
         21   -1    0    0  501  502  0.00000000000E+00 -0.00000000000E+00 -0.13388840027E+03  0.13388840027E+03  0.00000000000E+00 0. -1.
         23    2    1    2    0    0  0.21398619634E+01 -0.98491822563E-01  0.21803758649E+02  0.93556408836E+02  0.90954983553E+02 0.  0.
         23    2    1    2    0    0 -0.35623372058E+02 -0.27549532564E+01  0.23489904492E+01  0.10005944432E+03  0.93433185954E+02 0.  0.
        -11    1    3    3    0    0 -0.26338561859E+02 -0.24946909143E+02  0.37911218135E+02  0.52472169548E+02  0.00000000000E+00 0. -1.
         11    1    3    3    0    0  0.28478423822E+02  0.24848417321E+02 -0.16107459486E+02  0.41084239288E+02  0.00000000000E+00 0.  1.
        -13    1    4    4    0    0  0.63627516310E+01 -0.37163264384E+02 -0.18388481753E+02  0.41949125011E+02  0.00000000000E+00 0.  1.
         13    1    4    4    0    0 -0.41986123689E+02  0.34408311127E+02  0.20737472202E+02  0.58110319310E+02  0.00000000000E+00 0. -1.
          2    1    1    2  501    0  0.33483510094E+02  0.28534450790E+01 -0.43413560995E+02  0.54900135476E+02  0.00000000000E+00 0. -1.
<scales pt_clust_5="13000.00000" pt_clust_6="13000.00000" pt_clust_7="13000.00000" pt_clust_8="13000.00000" pt_clust_9="33.60487"></scales>
<clustering>
<clus scale="   33.605">  2  9  1 -1</clus>
<clus scale="   90.955">  5  6 -1 -1</clus>
<clus scale="   92.414">  1  5  2 -1</clus>
<clus scale="   93.433">  7  8 -1 -1</clus>
<clus scale="   33.605">  2  5  1 -1</clus>
</clustering>
</event>
<event>
 9    1  0.1321469E-005  0.1073767E+03  0.7546771E-02  0.1266875E+00
         -1   -1    0    0    0  501 -0.00000000000E+00  0.00000000000E+00  0.30647030709E+03  0.30647030709E+03  0.00000000000E+00 0.  1.
         21   -1    0    0  501  502  0.00000000000E+00 -0.00000000000E+00 -0.56059706056E+02  0.56059706056E+02  0.00000000000E+00 0. -1.
         23    2    1    2    0    0 -0.10652813137E+02  0.53434830816E+02  0.16891009094E+03  0.19841285187E+03  0.88703311080E+02 0.  0.
         23    2    1    2    0    0 -0.11784808923E+02 -0.58603697680E+02  0.87478575354E+02  0.14032848051E+03  0.92012532805E+02 0.  0.
        -11    1    3    3    0    0 -0.41064595585E+02  0.57247246907E+02  0.93971765483E+02  0.11744888674E+03  0.00000000000E+00 0.  1.
         11    1    3    3    0    0  0.30411782449E+02 -0.38124160903E+01  0.74938325453E+02  0.80963965132E+02  0.00000000000E+00 0. -1.
        -13    1    4    4    0    0  0.25508523949E+02 -0.57168711060E+02  0.24707884028E+02  0.67301009289E+02  0.00000000000E+00 0. -1.
         13    1    4    4    0    0 -0.37293332871E+02 -0.14349866206E+01  0.62770691327E+02  0.73027471221E+02  0.00000000000E+00 0.  1.
         -1    1    1    2    0  502  0.22437622060E+02  0.51688668637E+01 -0.59780652545E+01  0.23788680765E+02  0.00000000000E+00 0.  1.
<scales pt_clust_5="13000.00000" pt_clust_6="13000.00000" pt_clust_7="13000.00000" pt_clust_8="13000.00000" pt_clust_9="23.02529"></scales>
<clustering>
<clus scale="   23.025">  2  9  1 -1</clus>
<clus scale="   88.703">  5  6 -1 -1</clus>
<clus scale="   92.013">  7  8 -1 -1</clus>
<clus scale="  104.555">  1  5  2 -1</clus>
<clus scale="   23.025">  2  5  1 -1</clus>
</clustering>
</event>
<event>
 9    1  0.1321469E-005  0.9546626E+02  0.7546771E-02  0.1290773E+00
         21   -1    0    0  501  502  0.00000000000E+00  0.00000000000E+00  0.41570084517E+03  0.41570084517E+03  0.00000000000E+00 0. -1.
         -1   -1    0    0    0  501 -0.00000000000E+00 -0.00000000000E+00 -0.36776628513E+02  0.36776628513E+02  0.00000000000E+00 0.  1.
         23    2    1    2    0    0  0.24488471883E+02 -0.15464911855E+01  0.16337419922E+03  0.18906842086E+03  0.91943797538E+02 0.  0.
         23    2    1    2    0    0 -0.10962170581E+02 -0.40300636391E+02  0.18369710418E+03  0.20910664959E+03  0.90756015471E+02 0.  0.
        -11    1    4    4    0    0 -0.91930996741E+01 -0.68383053371E+02  0.15067773825E+03  0.16572427666E+03  0.00000000000E+00 0.  1.
         11    1    4    4    0    0 -0.17690709065E+01  0.28082416980E+02  0.33019365931E+02  0.43382372938E+02  0.00000000000E+00 0. -1.
        -11    1    3    3    0    0  0.20077775301E+02 -0.45800288044E+02  0.75135984880E+02  0.90256299890E+02  0.00000000000E+00 0.  1.
         11    1    3    3    0    0  0.44106965826E+01  0.44253796859E+02  0.88238214339E+02  0.98812120970E+02  0.00000000000E+00 0. -1.
         -1    1    1    2    0  502 -0.13526301302E+02  0.41847127577E+02  0.31852913264E+02  0.54302403232E+02  0.00000000000E+00 0.  1.
<scales pt_clust_5="13000.00000" pt_clust_6="13000.00000" pt_clust_7="13000.00000" pt_clust_8="13000.00000" pt_clust_9="43.97891"></scales>
<clustering>
<clus scale="   43.979">  1  9  2 -1</clus>
<clus scale="   90.756">  5  6 -1 -1</clus>
<clus scale="   91.944">  7  8 -1 -1</clus>
<clus scale="   94.323">  1  5  2 -1</clus>
<clus scale="   43.979">  1  5  2 -1</clus>
</clustering>
</event>
<event>
 9    1  0.1321469E-005  0.1743762E+03  0.7546771E-02  0.1188918E+00
          3   -1    0    0  502    0 -0.00000000000E+00  0.00000000000E+00  0.22035175734E+03  0.22035175734E+03  0.00000000000E+00 0. -1.
         21   -1    0    0  501  502  0.00000000000E+00 -0.00000000000E+00 -0.43589527837E+03  0.43589527837E+03  0.00000000000E+00 0. -1.
         23    2    1    2    0    0 -0.15351553449E+02 -0.81020961620E+02  0.86019069692E+02  0.15009150870E+03  0.91258502163E+02 0.  0.
         23    2    1    2    0    0  0.52862765743E+02 -0.77155453400E+02  0.32804528310E+02  0.13436494133E+03  0.90721355752E+02 0.  0.
        -11    1    3    3    0    0  0.24587720333E+01 -0.54326269982E+02  0.10097406305E+03  0.11468718577E+03  0.00000000000E+00 0. -1.
         11    1    3    3    0    0 -0.17810325483E+02 -0.26694691638E+02 -0.14954993363E+02  0.35404322927E+02  0.00000000000E+00 0.  1.
        -11    1    4    4    0    0  0.34482100006E+01 -0.78437855882E+02  0.32389160568E+02  0.84932002860E+02  0.00000000000E+00 0. -1.
         11    1    4    4    0    0  0.49414555742E+02  0.12824024822E+01  0.41536774215E+00  0.49432938469E+02  0.00000000000E+00 0.  1.
          3    1    1    2  501    0 -0.37511212293E+02  0.15817641502E+03 -0.33436711903E+03  0.37179058569E+03  0.00000000000E+00 0. -1.
<scales pt_clust_5="13000.00000" pt_clust_6="13000.00000" pt_clust_7="13000.00000" pt_clust_8="13000.00000" pt_clust_9="148.91837"></scales>
<clustering>
<clus scale="   90.721">  7  8 -1 -1</clus>
<clus scale="   91.259">  5  6 -1 -1</clus>
<clus scale="  122.997">  1  5  2 -1</clus>
<clus scale="  148.918">  2  9  1 -1</clus>
<clus scale="  148.918">  2  5  1 -1</clus>
</clustering>
</event>
<event>
 9    1  0.1321469E-005  0.2280055E+03  0.7546771E-02  0.1128121E+00
         21   -1    0    0  501  502  0.00000000000E+00  0.00000000000E+00  0.41386421649E+03  0.41386421649E+03  0.00000000000E+00 0.  1.
         -3   -1    0    0    0  501 -0.00000000000E+00 -0.00000000000E+00 -0.31418673689E+03  0.31418673689E+03  0.00000000000E+00 0.  1.
         23    2    1    2    0    0 -0.13139822967E+03 -0.11599344465E+03 -0.24079069772E+02  0.19905241853E+03  0.91225488518E+02 0.  0.
         23    2    1    2    0    0  0.21916879184E+03  0.22674031702E+03  0.18264864692E+03  0.37590764526E+03  0.92194896068E+02 0.  0.
        -13    1    3    3    0    0 -0.11503843895E+02 -0.58961273220E+02  0.12452812334E+02  0.61350164622E+02  0.00000000000E+00 0. -1.
         13    1    3    3    0    0 -0.11989438578E+03 -0.57032171434E+02 -0.36531882105E+02  0.13770225390E+03  0.00000000000E+00 0.  1.
        -13    1    4    4    0    0  0.20187382014E+02  0.78026716885E+01  0.44307033644E+02  0.49310498967E+02  0.00000000000E+00 0. -1.
         13    1    4    4    0    0  0.19898140983E+03  0.21893764534E+03  0.13834161327E+03  0.32659714629E+03  0.00000000000E+00 0.  1.
         -3    1    1    2    0  502 -0.87770562167E+02 -0.11074687237E+03 -0.58892097549E+02  0.15309088959E+03  0.00000000000E+00 0.  1.
<scales pt_clust_5="13000.00000" pt_clust_6="13000.00000" pt_clust_7="13000.00000" pt_clust_8="13000.00000" pt_clust_9="141.31016"></scales>
<clustering>
<clus scale="   91.225">  5  6 -1 -1</clus>
<clus scale="   92.195">  7  8 -1 -1</clus>
<clus scale="  141.310">  1  9  2 -1</clus>
<clus scale="  227.615">  2  5  1 -1</clus>
<clus scale="  141.310">  1  5  2 -1</clus>
</clustering>
</event>
<event>
 9    1  0.1321469E-005  0.1111286E+03  0.7546771E-02  0.1258926E+00
          1   -1    0    0  502    0 -0.00000000000E+00  0.00000000000E+00  0.20641452548E+03  0.20641452548E+03  0.00000000000E+00 0. -1.
         21   -1    0    0  501  502  0.00000000000E+00 -0.00000000000E+00 -0.25097149781E+03  0.25097149781E+03  0.00000000000E+00 0. -1.
         23    2    1    2    0    0 -0.35453049313E+02 -0.38117213393E+02  0.88566691767E+02  0.13722362929E+03  0.90974858518E+02 0.  0.
         23    2    1    2    0    0  0.56470998040E+02  0.61590377640E+02  0.51367588224E+02  0.13299998914E+03  0.89822156250E+02 0.  0.
        -13    1    3    3    0    0 -0.57155142803E+02 -0.22955076861E+02  0.21694279838E+02  0.65301513613E+02  0.00000000000E+00 0.  1.
         13    1    3    3    0    0  0.21702093490E+02 -0.15162136533E+02  0.66872411929E+02  0.71922115676E+02  0.00000000000E+00 0. -1.
        -13    1    4    4    0    0  0.16629167965E+02  0.68359708912E+02  0.59065821814E+02  0.91860493883E+02  0.00000000000E+00 0. -1.
         13    1    4    4    0    0  0.39841830074E+02 -0.67693312721E+01 -0.76982335895E+01  0.41139495256E+02  0.00000000000E+00 0.  1.
          1    1    1    2  501    0 -0.21017948726E+02 -0.23473164247E+02 -0.18449125233E+03  0.18716240486E+03  0.00000000000E+00 0. -1.
<scales pt_clust_5="13000.00000" pt_clust_6="13000.00000" pt_clust_7="13000.00000" pt_clust_8="13000.00000" pt_clust_9="31.50783"></scales>
<clustering>
<clus scale="   31.508">  2  9  1 -1</clus>
<clus scale="   89.822">  7  8 -1 -1</clus>
<clus scale="   90.975">  5  6 -1 -1</clus>
<clus scale="  110.187">  2  7  1 -1</clus>
<clus scale="   31.508">  2  5  1 -1</clus>
</clustering>
</event>
<event>
 9    1  0.1321469E-005  0.1660765E+03  0.7546771E-02  0.1182345E+00
         21   -1    0    0  501  502  0.00000000000E+00  0.00000000000E+00  0.31328290374E+03  0.31328290374E+03  0.00000000000E+00 0. -1.
          4   -1    0    0  502    0 -0.00000000000E+00 -0.00000000000E+00 -0.52758759267E+03  0.52758759267E+03  0.00000000000E+00 0. -1.
         23    2    1    2    0    0  0.80094070636E+02 -0.11794383991E+03 -0.45926850639E+03  0.48930154880E+03  0.90347303092E+02 0.  0.
         23    2    1    2    0    0 -0.95885485574E+02  0.17010877556E+02  0.19755792467E+03  0.23894501433E+03  0.92640109974E+02 0.  0.
        -11    1    3    3    0    0  0.46056097525E+02 -0.11586753619E+03 -0.41556923081E+03  0.43387122013E+03  0.00000000000E+00 0. -1.
         11    1    3    3    0    0  0.34037973111E+02 -0.20763037267E+01 -0.43699275579E+02  0.55430328673E+02  0.00000000000E+00 0.  1.
        -13    1    4    4    0    0 -0.53328200565E+02  0.49129173970E+02  0.15355949571E+03  0.16981781836E+03  0.00000000000E+00 0.  1.
         13    1    4    4    0    0 -0.42557285009E+02 -0.32118296414E+02  0.43998428959E+02  0.69127195971E+02  0.00000000000E+00 0. -1.
          4    1    1    2  501    0  0.15791414939E+02  0.10093296236E+03  0.47405892794E+02  0.11262393328E+03  0.00000000000E+00 0. -1.
<scales pt_clust_5="13000.00000" pt_clust_6="13000.00000" pt_clust_7="13000.00000" pt_clust_8="13000.00000" pt_clust_9="102.16081"></scales>
<clustering>
<clus scale="   90.347">  5  6 -1 -1</clus>
<clus scale="   92.640">  7  8 -1 -1</clus>
<clus scale="  102.161">  1  9  2 -1</clus>
<clus scale="  164.809">  2  5  1 -1</clus>
<clus scale="  102.161">  1  5  2 -1</clus>
</clustering>
</event>
<event>
 9    1  0.1321469E-005  0.9592519E+02  0.7546771E-02  0.1297023E+00
         -1   -1    0    0    0  501 -0.00000000000E+00  0.00000000000E+00  0.31677215777E+03  0.31677215777E+03  0.00000000000E+00 0.  1.
         21   -1    0    0  501  502  0.00000000000E+00 -0.00000000000E+00 -0.42091273253E+02  0.42091273253E+02  0.00000000000E+00 0.  1.
         23    2    1    2    0    0 -0.41074771500E+02 -0.25486019840E+00  0.15499443803E+03  0.17815769478E+03  0.77651056546E+02 0.  0.
         23    2    1    2    0    0  0.11608641119E+02 -0.38809877630E+01  0.11939231008E+03  0.15094931518E+03  0.91549710168E+02 0.  0.
        -11    1    3    3    0    0  0.21445372965E+02 -0.10999502785E+02  0.36260106200E+02  0.43539503727E+02  0.00000000000E+00 0. -1.
         11    1    3    3    0    0 -0.62520144465E+02  0.10744642587E+02  0.11873433183E+03  0.13461819106E+03  0.00000000000E+00 0.  1.
        -13    1    4    4    0    0  0.40488747083E+02  0.65371643402E+01  0.17603901742E+02  0.44631496888E+02  0.00000000000E+00 0. -1.
         13    1    4    4    0    0 -0.28880105964E+02 -0.10418152103E+02  0.10178840834E+03  0.10631781829E+03  0.00000000000E+00 0.  1.
         -1    1    1    2    0  502  0.29466130382E+02  0.41358479614E+01  0.29413640323E+00  0.29756421059E+02  0.00000000000E+00 0.  1.
<scales pt_clust_5="13000.00000" pt_clust_6="13000.00000" pt_clust_7="13000.00000" pt_clust_8="13000.00000" pt_clust_9="29.75497"></scales>
<clustering>
<clus scale="   29.755">  2  9  1 -1</clus>
<clus scale="   77.651">  5  6 -1 -1</clus>
<clus scale="   82.765">  1  5  2 -1</clus>
<clus scale="   91.550">  7  8 -1 -1</clus>
<clus scale="   29.755">  2  5  1 -1</clus>
</clustering>
</event>
<event>
 9    1  0.1321469E-005  0.1360736E+03  0.7546771E-02  0.1219122E+00
         21   -1    0    0  501  502  0.00000000000E+00  0.00000000000E+00  0.80777502154E+02  0.80777502154E+02  0.00000000000E+00 0. -1.
          2   -1    0    0  502    0 -0.00000000000E+00 -0.00000000000E+00 -0.43211112817E+03  0.43211112817E+03  0.00000000000E+00 0. -1.
         23    2    1    2    0    0 -0.86226557142E+02  0.14646963207E+02 -0.17377986129E+03  0.21582474877E+03  0.93441582289E+02 0.  0.
         23    2    1    2    0    0  0.10641511866E+03 -0.33869874482E+02 -0.20959720096E+03  0.25459177142E+03  0.91731333491E+02 0.  0.
        -11    1    3    3    0    0 -0.73849530254E+02  0.35863908907E+02 -0.17272023092E+03  0.19123872843E+03  0.00000000000E+00 0.  1.
         11    1    3    3    0    0 -0.12377026888E+02 -0.21216945701E+02 -0.10596303701E+01  0.24586020336E+02  0.00000000000E+00 0. -1.
        -13    1    4    4    0    0  0.63106279601E+02 -0.16350149706E+02 -0.19505831529E+03  0.20566350256E+03  0.00000000000E+00 0. -1.
         13    1    4    4    0    0  0.43308839061E+02 -0.17519724776E+02 -0.14538885675E+02  0.48928268861E+02  0.00000000000E+00 0.  1.
          2    1    1    2  501    0 -0.20188561520E+02  0.19222911276E+02  0.32043436239E+02  0.42472110145E+02  0.00000000000E+00 0. -1.
<scales pt_clust_5="13000.00000" pt_clust_6="13000.00000" pt_clust_7="13000.00000" pt_clust_8="13000.00000" pt_clust_9="27.87648"></scales>
<clustering>
<clus scale="   27.876">  1  9  2 -1</clus>
<clus scale="   91.731">  7  8 -1 -1</clus>
<clus scale="   93.442">  5  6 -1 -1</clus>
<clus scale="  134.905">  1  7  2 -1</clus>
<clus scale="   27.876">  1  5  2 -1</clus>
</clustering>
</event>
<event>
 9    1  0.1321469E-005  0.1165404E+03  0.7546771E-02  0.1249958E+00
         -1   -1    0    0    0  501 -0.00000000000E+00  0.00000000000E+00  0.59279095842E+03  0.59279095842E+03  0.00000000000E+00 0.  1.
         21   -1    0    0  501  502  0.00000000000E+00 -0.00000000000E+00 -0.58114745377E+02  0.58114745377E+02  0.00000000000E+00 0. -1.
         23    2    1    2    0    0 -0.16785168393E+02  0.67691835004E+02  0.45833836470E+03  0.47277056160E+03  0.92596009372E+02 0.  0.
         23    2    1    2    0    0  0.41396965171E+02 -0.66078147684E+02  0.90856853204E+02  0.14951441493E+03  0.89552008193E+02 0.  0.
        -11    1    3    3    0    0 -0.31588071274E+02  0.84066528870E+02  0.40862149155E+03  0.41837364984E+03  0.00000000000E+00 0.  1.
         11    1    3    3    0    0  0.14802902881E+02 -0.16374693865E+02  0.49716873151E+02  0.54396911758E+02  0.00000000000E+00 0. -1.
        -13    1    4    4    0    0  0.26951709026E+02 -0.49283101880E+01  0.81508138413E+02  0.85989880150E+02  0.00000000000E+00 0.  1.
         13    1    4    4    0    0  0.14445256144E+02 -0.61149837496E+02  0.93487147911E+01  0.63524534781E+02  0.00000000000E+00 0. -1.
         -1    1    1    2    0  502 -0.24611796777E+02 -0.16136873200E+01 -0.14519004860E+02  0.28620727270E+02  0.00000000000E+00 0.  1.
<scales pt_clust_5="13000.00000" pt_clust_6="13000.00000" pt_clust_7="13000.00000" pt_clust_8="13000.00000" pt_clust_9="24.66464"></scales>
<clustering>
<clus scale="   24.665">  2  9  1 -1</clus>
<clus scale="   89.552">  7  8 -1 -1</clus>
<clus scale="   92.596">  5  6 -1 -1</clus>
<clus scale="  114.137">  2  7  1 -1</clus>
<clus scale="   24.665">  2  5  1 -1</clus>
</clustering>
</event>
<event>
 9    1  0.1321469E-005  0.1144049E+03  0.7546771E-02  0.1254346E+00
         21   -1    0    0  501  502  0.00000000000E+00  0.00000000000E+00  0.27777906687E+03  0.27777906687E+03  0.00000000000E+00 0. -1.
          4   -1    0    0  502    0 -0.00000000000E+00 -0.00000000000E+00 -0.21013208744E+03  0.21013208744E+03  0.00000000000E+00 0. -1.
         23    2    1    2    0    0  0.41992490782E+02  0.71778369971E+02 -0.13631198504E+03  0.18419577079E+03  0.91823858739E+02 0.  0.
         23    2    1    2    0    0 -0.28603248135E+02  0.22394919638E+02  0.33210009572E+02  0.10825928644E+03  0.96423493684E+02 0.  0.
        -13    1    3    3    0    0  0.19769767200E+02 -0.15922448010E+02 -0.69193296868E+01  0.26310552428E+02  0.00000000000E+00 0.  1.
         13    1    3    3    0    0  0.22222723582E+02  0.87700817981E+02 -0.12939265535E+03  0.15788521836E+03  0.00000000000E+00 0. -1.
        -13    1    4    4    0    0  0.10928542971E+02  0.52023947425E+02  0.12006619575E+02  0.54498468518E+02  0.00000000000E+00 0. -1.
         13    1    4    4    0    0 -0.39531791107E+02 -0.29629027788E+02  0.21203389997E+02  0.53760817917E+02  0.00000000000E+00 0.  1.
          4    1    1    2  501    0 -0.13389242646E+02 -0.94173289609E+02  0.17074895489E+03  0.19545609709E+03  0.00000000000E+00 0. -1.
<scales pt_clust_5="13000.00000" pt_clust_6="13000.00000" pt_clust_7="13000.00000" pt_clust_8="13000.00000" pt_clust_9="95.12035"></scales>
<clustering>
<clus scale="   91.824">  5  6 -1 -1</clus>
<clus scale="   95.120">  1  9  2 -1</clus>
<clus scale="   96.423">  7  8 -1 -1</clus>
<clus scale="  110.556">  2  5  1 -1</clus>
<clus scale="   95.120">  1  5  2 -1</clus>
</clustering>
</event>
<event>
 9    1  0.1321469E-005  0.1072725E+03  0.7546771E-02  0.1265948E+00
          2   -1    0    0  502    0 -0.00000000000E+00  0.00000000000E+00  0.46743716840E+03  0.46743716840E+03  0.00000000000E+00 0. -1.
         21   -1    0    0  501  502  0.00000000000E+00 -0.00000000000E+00 -0.40016692750E+02  0.40016692750E+02  0.00000000000E+00 0. -1.
         23    2    1    2    0    0 -0.18116332068E+02 -0.38591300894E+02  0.20122923033E+03  0.22544763151E+03  0.92281858572E+02 0.  0.
         23    2    1    2    0    0  0.45760318805E+02  0.49844637172E+02  0.22439914288E+03  0.25210574116E+03  0.92864604497E+02 0.  0.
        -13    1    3    3    0    0  0.33297665678E+02 -0.35662705908E+02  0.11637710920E+03  0.12619110380E+03  0.00000000000E+00 0. -1.
         13    1    3    3    0    0 -0.51413997746E+02 -0.29285949866E+01  0.84852121130E+02  0.99256527710E+02  0.00000000000E+00 0.  1.
        -13    1    4    4    0    0  0.49354767463E+02 -0.20119247427E+01  0.50654242179E+02  0.70751630111E+02  0.00000000000E+00 0.  1.
         13    1    4    4    0    0 -0.35944486584E+01  0.51856561914E+02  0.17374490070E+03  0.18135411105E+03  0.00000000000E+00 0. -1.
          2    1    1    2  501    0 -0.27643986737E+02 -0.11253336277E+02  0.17921024355E+01  0.29900488478E+02  0.00000000000E+00 0. -1.
<scales pt_clust_5="13000.00000" pt_clust_6="13000.00000" pt_clust_7="13000.00000" pt_clust_8="13000.00000" pt_clust_9="29.84673"></scales>
<clustering>
<clus scale="   29.847">  2  9  1 -1</clus>
<clus scale="   92.282">  5  6 -1 -1</clus>
<clus scale="   92.865">  7  8 -1 -1</clus>
<clus scale="  106.768">  1  5  2 -1</clus>
<clus scale="   29.847">  2  5  1 -1</clus>
</clustering>
</event>
<event>
 9    1  0.1321469E-005  0.1392714E+03  0.7546771E-02  0.1217403E+00
         21   -1    0    0  501  502  0.00000000000E+00  0.00000000000E+00  0.45646752496E+02  0.45646752496E+02  0.00000000000E+00 0. -1.
          1   -1    0    0  502    0 -0.00000000000E+00 -0.00000000000E+00 -0.57765692261E+03  0.57765692261E+03  0.00000000000E+00 0. -1.
         23    2    1    2    0    0  0.10299848529E+03 -0.24336567614E+02 -0.36495584859E+03  0.39416361827E+03  0.10474363966E+03 0.  0.
         23    2    1    2    0    0 -0.63028434969E+02  0.28754602267E+02 -0.11283862151E+03  0.16163845626E+03  0.92709359137E+02 0.  0.
        -11    1    4    4    0    0 -0.54921354117E+02 -0.15087465992E+02 -0.10026703332E+03  0.11531463368E+03  0.00000000000E+00 0. -1.
         11    1    4    4    0    0 -0.81070808520E+01  0.43842068259E+02 -0.12571588183E+02  0.46323822582E+02  0.00000000000E+00 0.  1.
        -13    1    3    3    0    0  0.13951140127E+01  0.32139792013E+02 -0.66618569723E+02  0.73979364729E+02  0.00000000000E+00 0.  1.
         13    1    3    3    0    0  0.10160337128E+03 -0.56476359627E+02 -0.29833727887E+03  0.32018425354E+03  0.00000000000E+00 0. -1.
          1    1    1    2  501    0 -0.39970050322E+02 -0.44180346529E+01 -0.54215700020E+02  0.67501600585E+02  0.00000000000E+00 0. -1.
<scales pt_clust_5="13000.00000" pt_clust_6="13000.00000" pt_clust_7="13000.00000" pt_clust_8="13000.00000" pt_clust_9="40.21348"></scales>
<clustering>
<clus scale="   40.213">  1  9  2 -1</clus>
<clus scale="   92.709">  5  6 -1 -1</clus>
<clus scale="  104.744">  7  8 -1 -1</clus>
<clus scale="  130.462">  1  5  2 -1</clus>
<clus scale="   40.213">  1  5  2 -1</clus>
</clustering>
</event>
<event>
 9    1  0.1321469E-005  0.1540765E+03  0.7546771E-02  0.1196417E+00
         -3   -1    0    0    0  501 -0.00000000000E+00  0.00000000000E+00  0.16220672215E+03  0.16220672215E+03  0.00000000000E+00 0.  1.
         21   -1    0    0  501  502  0.00000000000E+00 -0.00000000000E+00 -0.53607821714E+03  0.53607821714E+03  0.00000000000E+00 0.  1.
         23    2    1    2    0    0 -0.12356640194E+03 -0.61203930031E-02  0.10540036881E+03  0.18741268688E+03  0.93518028920E+02 0.  0.
         23    2    1    2    0    0  0.11046927845E+03 -0.28051412227E+02 -0.41760113103E+03  0.44186472339E+03  0.88675734758E+02 0.  0.
        -11    1    4    4    0    0  0.10698317850E+03  0.86763172789E+01 -0.32017739224E+03  0.33768956375E+03  0.00000000000E+00 0.  1.
         11    1    4    4    0    0  0.34860999484E+01 -0.36727729505E+02 -0.97423738785E+02  0.10417515964E+03  0.00000000000E+00 0. -1.
        -13    1    3    3    0    0 -0.43720670720E+02  0.44880660625E+02  0.34090897122E+02  0.71329937705E+02  0.00000000000E+00 0. -1.
         13    1    3    3    0    0 -0.79845731219E+02 -0.44886781018E+02  0.71309471690E+02  0.11608274918E+03  0.00000000000E+00 0.  1.
         -3    1    1    2    0  502  0.13097123490E+02  0.28057532620E+02 -0.61670732770E+02  0.69007529015E+02  0.00000000000E+00 0.  1.
<scales pt_clust_5="13000.00000" pt_clust_6="13000.00000" pt_clust_7="13000.00000" pt_clust_8="13000.00000" pt_clust_9="30.96385"></scales>
<clustering>
<clus scale="   30.964">  2  9  1 -1</clus>
<clus scale="   88.676">  5  6 -1 -1</clus>
<clus scale="   93.518">  7  8 -1 -1</clus>
<clus scale="  151.186">  2  5  1 -1</clus>
<clus scale="   30.964">  2  5  1 -1</clus>
</clustering>
</event>
<event>
 9    1  0.1321469E-005  0.9585052E+02  0.7546771E-02  0.1291554E+00
          2   -1    0    0  502    0 -0.00000000000E+00  0.00000000000E+00  0.77452643393E+03  0.77452643393E+03  0.00000000000E+00 0. -1.
         21   -1    0    0  501  502  0.00000000000E+00 -0.00000000000E+00 -0.15640148399E+02  0.15640148399E+02  0.00000000000E+00 0.  1.
         23    2    1    2    0    0  0.19057712949E+01  0.41991487562E+00  0.32420709983E+03  0.33674829520E+03  0.91023966349E+02 0.  0.
         23    2    1    2    0    0  0.24112252994E+02  0.13727218954E+02  0.34815082962E+03  0.36196209330E+03  0.95066921346E+02 0.  0.
        -11    1    4    4    0    0  0.55876366165E+02  0.23708313046E+02  0.27456436150E+03  0.28119360058E+03  0.00000000000E+00 0.  1.
         11    1    4    4    0    0 -0.31764113171E+02 -0.99810940928E+01  0.73586468118E+02  0.80768492711E+02  0.00000000000E+00 0. -1.
        -11    1    3    3    0    0  0.11554479246E+02  0.44174032738E+02  0.18257951322E+03  0.18820236397E+03  0.00000000000E+00 0.  1.
         11    1    3    3    0    0 -0.96487079512E+01 -0.43754117862E+02  0.14162758661E+03  0.14854593123E+03  0.00000000000E+00 0. -1.
          2    1    1    2  501    0 -0.26018024289E+02 -0.14147133829E+02  0.86528356081E+02  0.91456193828E+02  0.00000000000E+00 0. -1.
<scales pt_clust_5="13000.00000" pt_clust_6="13000.00000" pt_clust_7="13000.00000" pt_clust_8="13000.00000" pt_clust_9="29.61552"></scales>
<clustering>
<clus scale="   29.616">  2  9  1 -1</clus>
<clus scale="   91.024">  7  8 -1 -1</clus>
<clus scale="   91.842">  1  7  2 -1</clus>
<clus scale="   95.067">  5  6 -1 -1</clus>
<clus scale="   29.616">  2  5  1 -1</clus>
</clustering>
</event>
<event>
 9    1  0.1321469E-005  0.9883802E+02  0.7546771E-02  0.1285099E+00
         -4   -1    0    0    0  501 -0.00000000000E+00  0.00000000000E+00  0.32250257347E+03  0.32250257347E+03  0.00000000000E+00 0.  1.
         21   -1    0    0  501  502  0.00000000000E+00 -0.00000000000E+00 -0.59819149407E+02  0.59819149407E+02  0.00000000000E+00 0. -1.
         23    2    1    2    0    0  0.36915069542E+02 -0.34751525429E+00  0.20156362560E+03  0.22580888220E+03  0.94862600576E+02 0.  0.
         23    2    1    2    0    0 -0.86235812803E+01  0.18893945143E+02  0.75655407805E+02  0.11969352091E+03  0.90396077904E+02 0.  0.
        -11    1    3    3    0    0 -0.20294535763E+02  0.28496953850E+02  0.47834539097E+02  0.59262869414E+02  0.00000000000E+00 0.  1.
         11    1    3    3    0    0  0.57209605304E+02 -0.28844469104E+02  0.15372908650E+03  0.16654601278E+03  0.00000000000E+00 0. -1.
        -11    1    4    4    0    0  0.40885023098E+02  0.10794574142E+02  0.29843739740E+02  0.51756707259E+02  0.00000000000E+00 0. -1.
         11    1    4    4    0    0 -0.49508604378E+02  0.80993710006E+01  0.45811668065E+02  0.67936813651E+02  0.00000000000E+00 0.  1.
         -4    1    1    2    0  502 -0.28291488261E+02 -0.18546429888E+02 -0.14535609340E+02  0.36819319773E+02  0.00000000000E+00 0.  1.
<scales pt_clust_5="13000.00000" pt_clust_6="13000.00000" pt_clust_7="13000.00000" pt_clust_8="13000.00000" pt_clust_9="33.82866"></scales>
<clustering>
<clus scale="   33.829">  2  9  1 -1</clus>
<clus scale="   90.396">  7  8 -1 -1</clus>
<clus scale="   94.559">  2  7  1 -1</clus>
<clus scale="   94.863">  5  6 -1 -1</clus>
<clus scale="   33.829">  2  5  1 -1</clus>
</clustering>
</event>
<event>
 9    1  0.1321469E-005  0.1265905E+03  0.7546771E-02  0.1233004E+00
         21   -1    0    0  501  502  0.00000000000E+00  0.00000000000E+00  0.21609570899E+03  0.21609570899E+03  0.00000000000E+00 0. -1.
          1   -1    0    0  502    0 -0.00000000000E+00 -0.00000000000E+00 -0.11106320186E+03  0.11106320186E+03  0.00000000000E+00 0. -1.
         23    2    1    2    0    0 -0.87781386376E+02  0.35077811933E+02  0.38416002479E+02  0.13662631360E+03  0.90856676350E+02 0.  0.
         23    2    1    2    0    0  0.52360339576E+02 -0.71097484463E+02  0.61063237622E+02  0.13971029761E+03  0.89408001947E+02 0.  0.
        -11    1    4    4    0    0 -0.18428686458E+02 -0.29341436626E+02 -0.40113291574E+01  0.34880182761E+02  0.00000000000E+00 0.  1.
         11    1    4    4    0    0  0.70789026034E+02 -0.41756047837E+02  0.65074566780E+02  0.10483011485E+03  0.00000000000E+00 0. -1.
        -11    1    3    3    0    0 -0.83107560195E+02  0.87354223150E+01 -0.70612508698E+01  0.83863194719E+02  0.00000000000E+00 0. -1.
         11    1    3    3    0    0 -0.46738261809E+01  0.26342389618E+02  0.45477253348E+02  0.52763118881E+02  0.00000000000E+00 0.  1.
          1    1    1    2  501    0  0.35421046800E+02  0.36019672530E+02  0.55532670296E+01  0.50822299636E+02  0.00000000000E+00 0. -1.
<scales pt_clust_5="13000.00000" pt_clust_6="13000.00000" pt_clust_7="13000.00000" pt_clust_8="13000.00000" pt_clust_9="50.51802"></scales>
<clustering>
<clus scale="   50.518">  1  9  2 -1</clus>
<clus scale="   89.408">  5  6 -1 -1</clus>
<clus scale="   90.857">  7  8 -1 -1</clus>
<clus scale="  125.555">  1  5  2 -1</clus>
<clus scale="   50.518">  1  5  2 -1</clus>
</clustering>
</event>
<event>
 9    1  0.1321469E-005  0.1000369E+03  0.7546771E-02  0.1284425E+00
          2   -1    0    0  502    0 -0.00000000000E+00  0.00000000000E+00  0.51561959332E+03  0.51561959332E+03  0.00000000000E+00 0. -1.
         21   -1    0    0  501  502  0.00000000000E+00 -0.00000000000E+00 -0.99595800908E+02  0.99595800908E+02  0.00000000000E+00 0. -1.
         23    2    1    2    0    0 -0.11702989791E+02 -0.32757364149E+02  0.38020067300E+03  0.39327125171E+03  0.94338331541E+02 0.  0.
         23    2    1    2    0    0 -0.10537112432E+02  0.32989790909E+02  0.11031818041E+03  0.14419975183E+03  0.86163277877E+02 0.  0.
        -11    1    3    3    0    0  0.34538380570E+02 -0.37222695981E+02  0.24801221282E+03  0.25315703928E+03  0.00000000000E+00 0.  1.
         11    1    3    3    0    0 -0.46241370361E+02  0.44653318317E+01  0.13218846018E+03  0.14011421243E+03  0.00000000000E+00 0. -1.
        -13    1    4    4    0    0 -0.13559549636E+02 -0.19393185360E+02  0.18846036814E+01  0.23738339365E+02  0.00000000000E+00 0.  1.
         13    1    4    4    0    0  0.30224372043E+01  0.52382976269E+02  0.10843357673E+03  0.12046141246E+03  0.00000000000E+00 0. -1.
          2    1    1    2  501    0  0.22240102223E+02 -0.23242675934E+00 -0.74495061005E+02  0.77744390686E+02  0.00000000000E+00 0. -1.
<scales pt_clust_5="13000.00000" pt_clust_6="13000.00000" pt_clust_7="13000.00000" pt_clust_8="13000.00000" pt_clust_9="22.24132"></scales>
<clustering>
<clus scale="   22.241">  2  9  1 -1</clus>
<clus scale="   86.163">  7  8 -1 -1</clus>
<clus scale="   92.368">  2  7  1 -1</clus>
<clus scale="   94.338">  5  6 -1 -1</clus>
<clus scale="   22.241">  2  5  1 -1</clus>
</clustering>
</event>
<event>
 9    1  0.1321469E-005  0.9785189E+02  0.7546771E-02  0.1285284E+00
         21   -1    0    0  501  502  0.00000000000E+00  0.00000000000E+00  0.15412957441E+03  0.15412957441E+03  0.00000000000E+00 0.  1.
          4   -1    0    0  502    0 -0.00000000000E+00 -0.00000000000E+00 -0.24966458103E+03  0.24966458103E+03  0.00000000000E+00 0. -1.
         23    2    1    2    0    0 -0.11518150913E+02 -0.21483884494E+02 -0.18351674348E+03  0.20715407759E+03  0.92952631117E+02 0.  0.
         23    2    1    2    0    0  0.98866703114E+01  0.44331582081E+02 -0.16076314636E+01  0.10416881783E+03  0.93731119211E+02 0.  0.
        -11    1    3    3    0    0 -0.39379791910E+02  0.21349568016E+02 -0.92473503493E+02  0.10275174409E+03  0.00000000000E+00 0.  1.
         11    1    3    3    0    0  0.27861640997E+02 -0.42833452510E+02 -0.91043239986E+02  0.10440233350E+03  0.00000000000E+00 0. -1.
        -13    1    4    4    0    0  0.21104893282E+02  0.69333472277E+02 -0.14457321023E+02  0.73902374993E+02  0.00000000000E+00 0.  1.
         13    1    4    4    0    0 -0.11218222970E+02 -0.25001890195E+02  0.12849689560E+02  0.30266442832E+02  0.00000000000E+00 0. -1.
          4    1    1    2  501    0  0.16314806016E+01 -0.22847697587E+02  0.89589368319E+02  0.92471260020E+02  0.00000000000E+00 0. -1.
<scales pt_clust_5="13000.00000" pt_clust_6="13000.00000" pt_clust_7="13000.00000" pt_clust_8="13000.00000" pt_clust_9="22.90587"></scales>
<clustering>
<clus scale="   22.906">  1  9  2 -1</clus>
<clus scale="   92.953">  5  6 -1 -1</clus>
<clus scale="   93.731">  7  8 -1 -1</clus>
<clus scale="   97.106">  2  5  1 -1</clus>
<clus scale="   22.906">  1  5  2 -1</clus>
</clustering>
</event>
<event>
 9    1  0.1321469E-005  0.1834802E+03  0.7546771E-02  0.1164533E+00
         21   -1    0    0  501  502  0.00000000000E+00  0.00000000000E+00  0.11731949223E+03  0.11731949223E+03  0.00000000000E+00 0.  1.
          1   -1    0    0  502    0 -0.00000000000E+00 -0.00000000000E+00 -0.40112910161E+03  0.40112910161E+03  0.00000000000E+00 0. -1.
         23    2    1    2    0    0  0.16388818944E+03 -0.27194436912E+02 -0.26157998485E+03  0.32310725852E+03  0.91516861829E+02 0.  0.
         23    2    1    2    0    0 -0.13970350432E+03  0.20777844559E+02 -0.24010722675E+02  0.17025659968E+03  0.91989167775E+02 0.  0.
        -11    1    4    4    0    0 -0.11035898770E+03  0.41365147607E+02 -0.47857917921E+02  0.12720283767E+03  0.00000000000E+00 0.  1.
         11    1    4    4    0    0 -0.29344516617E+02 -0.20587303048E+02  0.23847195247E+02  0.43053762012E+02  0.00000000000E+00 0. -1.
        -13    1    3    3    0    0  0.10556115099E+03 -0.22896944674E+02 -0.86084561708E+02  0.13812305542E+03  0.00000000000E+00 0.  1.
         13    1    3    3    0    0  0.58327038447E+02 -0.42974922387E+01 -0.17549542314E+03  0.18498420310E+03  0.00000000000E+00 0. -1.
          1    1    1    2  501    0 -0.24184685121E+02  0.64165923536E+01  0.17810981432E+01  0.25084735646E+02  0.00000000000E+00 0. -1.
<scales pt_clust_5="13000.00000" pt_clust_6="13000.00000" pt_clust_7="13000.00000" pt_clust_8="13000.00000" pt_clust_9="25.02142"></scales>
<clustering>
<clus scale="   25.021">  1  9  2 -1</clus>
<clus scale="   91.517">  7  8 -1 -1</clus>
<clus scale="   91.989">  5  6 -1 -1</clus>
<clus scale="  183.244">  2  7  1 -1</clus>
<clus scale="   25.021">  1  5  2 -1</clus>
</clustering>
</event>
<event>
 9    1  0.1321469E-005  0.9162005E+02  0.7546771E-02  0.1303385E+00
         21   -1    0    0  501  502  0.00000000000E+00  0.00000000000E+00  0.24003213881E+03  0.24003213881E+03  0.00000000000E+00 0.  1.
          2   -1    0    0  502    0 -0.00000000000E+00 -0.00000000000E+00 -0.59227666765E+02  0.59227666765E+02  0.00000000000E+00 0. -1.
         23    2    1    2    0    0 -0.17749496204E+02 -0.27736932818E+02  0.54290482294E+02  0.11010059546E+03  0.89946109390E+02 0.  0.
         23    2    1    2    0    0 -0.29473592759E+02  0.43469205005E+01  0.76385648582E+02  0.11642707557E+03  0.82661407129E+02 0.  0.
        -11    1    4    4    0    0  0.79187896994E+01  0.24303558082E+02 -0.36898589161E+01  0.25826057085E+02  0.00000000000E+00 0. -1.
         11    1    4    4    0    0 -0.37392382458E+02 -0.19956637582E+02  0.80075507498E+02  0.90601018485E+02  0.00000000000E+00 0.  1.
        -13    1    3    3    0    0 -0.11197370129E+02 -0.55933165962E+02  0.57476766645E+02  0.80978261628E+02  0.00000000000E+00 0.  1.
         13    1    3    3    0    0 -0.65521260751E+01  0.28196233144E+02 -0.31862843509E+01  0.29122333828E+02  0.00000000000E+00 0. -1.
          2    1    1    2  501    0  0.47223088963E+02  0.23390012318E+02  0.50128341165E+02  0.72732134544E+02  0.00000000000E+00 0. -1.
<scales pt_clust_5="13000.00000" pt_clust_6="13000.00000" pt_clust_7="13000.00000" pt_clust_8="13000.00000" pt_clust_9="52.69832"></scales>
<clustering>
<clus scale="   52.698">  1  9  2 -1</clus>
<clus scale="   82.661">  5  6 -1 -1</clus>
<clus scale="   84.480">  1  5  2 -1</clus>
<clus scale="   89.946">  7  8 -1 -1</clus>
<clus scale="   52.698">  1  5  2 -1</clus>
</clustering>
</event>
<event>
 9    1  0.1321469E-005  0.1047937E+03  0.7546771E-02  0.1271244E+00
         21   -1    0    0  501  502  0.00000000000E+00  0.00000000000E+00  0.64836617786E+02  0.64836617786E+02  0.00000000000E+00 0. -1.
          1   -1    0    0  502    0 -0.00000000000E+00 -0.00000000000E+00 -0.54074471801E+03  0.54074471801E+03  0.00000000000E+00 0. -1.
         23    2    1    2    0    0 -0.40860931644E+02  0.21060151091E+02 -0.33664954971E+03  0.35154673103E+03  0.90216623094E+02 0.  0.
         23    2    1    2    0    0  0.35211427960E+02 -0.89238491774E+02 -0.50797786526E+02  0.14220656805E+03  0.91863702337E+02 0.  0.
        -13    1    3    3    0    0 -0.45633550549E+02  0.51818147604E+02 -0.20695690680E+03  0.21817126903E+03  0.00000000000E+00 0. -1.
         13    1    3    3    0    0  0.47726189048E+01 -0.30757996513E+02 -0.12969264291E+03  0.13337546200E+03  0.00000000000E+00 0.  1.
        -13    1    4    4    0    0  0.13557081640E+02  0.18442520850E+02 -0.67181454511E+01  0.23854863575E+02  0.00000000000E+00 0.  1.
         13    1    4    4    0    0  0.21654346320E+02 -0.10768101262E+03 -0.44079641075E+02  0.11835170447E+03  0.00000000000E+00 0. -1.
          1    1    1    2  501    0  0.56495036844E+01  0.68178340683E+02 -0.88460763994E+02  0.11182803672E+03  0.00000000000E+00 0. -1.
<scales pt_clust_5="13000.00000" pt_clust_6="13000.00000" pt_clust_7="13000.00000" pt_clust_8="13000.00000" pt_clust_9="68.41204"></scales>
<clustering>
<clus scale="   68.412">  1  9  2 -1</clus>
<clus scale="   90.217">  5  6 -1 -1</clus>
<clus scale="   91.864">  7  8 -1 -1</clus>
<clus scale="  103.353">  2  5  1 -1</clus>
<clus scale="   68.412">  1  5  2 -1</clus>
</clustering>
</event>
<event>
 9    1  0.1321469E-005  0.1016482E+03  0.7546771E-02  0.1278107E+00
         21   -1    0    0  501  502  0.00000000000E+00  0.00000000000E+00  0.62162348352E+02  0.62162348352E+02  0.00000000000E+00 0. -1.
          2   -1    0    0  502    0 -0.00000000000E+00 -0.00000000000E+00 -0.63921757683E+03  0.63921757683E+03  0.00000000000E+00 0. -1.
         23    2    1    2    0    0 -0.16166716192E+02  0.45315155221E+01 -0.26268764754E+03  0.27903197597E+03  0.92585884983E+02 0.  0.
         23    2    1    2    0    0  0.49534208827E+02  0.41213143795E+02 -0.34095502574E+03  0.35979512640E+03  0.95131710467E+02 0.  0.
        -11    1    4    4    0    0  0.75584334472E+02  0.40030103371E+02 -0.21956389923E+03  0.23563468895E+03  0.00000000000E+00 0. -1.
         11    1    4    4    0    0 -0.26050125645E+02  0.11830404242E+01 -0.12139112651E+03  0.12416043744E+03  0.00000000000E+00 0.  1.
        -11    1    3    3    0    0 -0.19567196324E+02 -0.33707515644E+02 -0.52603809750E+02  0.65469325512E+02  0.00000000000E+00 0.  1.
         11    1    3    3    0    0  0.34004801322E+01  0.38239031166E+02 -0.21008383779E+03  0.21356265046E+03  0.00000000000E+00 0. -1.
          2    1    1    2  501    0 -0.33367492635E+02 -0.45744659317E+02  0.26587444803E+02  0.62552822813E+02  0.00000000000E+00 0. -1.
<scales pt_clust_5="13000.00000" pt_clust_6="13000.00000" pt_clust_7="13000.00000" pt_clust_8="13000.00000" pt_clust_9="56.62123"></scales>
<clustering>
<clus scale="   56.621">  1  9  2 -1</clus>
<clus scale="   92.586">  7  8 -1 -1</clus>
<clus scale="   95.132">  5  6 -1 -1</clus>
<clus scale="   99.270">  2  7  1 -1</clus>
<clus scale="   56.621">  1  5  2 -1</clus>
</clustering>
</event>
<event>
 9    1  0.1321469E-005  0.1074559E+03  0.7546771E-02  0.1266546E+00
         21   -1    0    0  501  502  0.00000000000E+00  0.00000000000E+00  0.52839988545E+03  0.52839988545E+03  0.00000000000E+00 0. -1.
          1   -1    0    0  502    0 -0.00000000000E+00 -0.00000000000E+00 -0.12667516457E+03  0.12667516457E+03  0.00000000000E+00 0. -1.
         23    2    1    2    0    0 -0.29756250574E+02 -0.45135334807E+02 -0.85114301895E+02  0.13435041255E+03  0.88786012793E+02 0.  0.
         23    2    1    2    0    0  0.17203816029E+02  0.77257910478E+02  0.21553356676E+03  0.24723592850E+03  0.91684949252E+02 0.  0.
        -11    1    3    3    0    0 -0.13378612343E+00  0.26426489469E+02 -0.23869187255E+02  0.35610607192E+02  0.00000000000E+00 0.  1.
         11    1    3    3    0    0 -0.29622464450E+02 -0.71561824276E+02 -0.61245114640E+02  0.98739805353E+02  0.00000000000E+00 0. -1.
        -13    1    4    4    0    0  0.35091529281E+02  0.42077361791E+02  0.19538820700E+03  0.20292479207E+03  0.00000000000E+00 0.  1.
         13    1    4    4    0    0 -0.17887713251E+02  0.35180548687E+02  0.20145359768E+02  0.44311136427E+02  0.00000000000E+00 0. -1.
          1    1    1    2  501    0  0.12552434545E+02 -0.32122575671E+02  0.27130545601E+03  0.27348870898E+03  0.00000000000E+00 0. -1.
<scales pt_clust_5="13000.00000" pt_clust_6="13000.00000" pt_clust_7="13000.00000" pt_clust_8="13000.00000" pt_clust_9="34.48802"></scales>
<clustering>
<clus scale="   34.488">  1  9  2 -1</clus>
<clus scale="   88.786">  5  6 -1 -1</clus>
<clus scale="   91.685">  7  8 -1 -1</clus>
<clus scale="  104.993">  2  5  1 -1</clus>
<clus scale="   34.488">  1  5  2 -1</clus>
</clustering>
</event>
<event>
 9    1  0.1321469E-005  0.1295748E+03  0.7546771E-02  0.1237191E+00
         -4   -1    0    0    0  501 -0.00000000000E+00  0.00000000000E+00  0.42572370822E+02  0.42572370822E+02  0.00000000000E+00 0.  1.
         21   -1    0    0  501  502  0.00000000000E+00 -0.00000000000E+00 -0.48879778678E+03  0.48879778678E+03  0.00000000000E+00 0.  1.
         23    2    1    2    0    0  0.60306371655E+02 -0.17182760710E+02 -0.14886978530E+03  0.18630283226E+03  0.92813935407E+02 0.  0.
         23    2    1    2    0    0 -0.45271287394E+02 -0.26386290603E+02 -0.22486833512E+03  0.25916782589E+03  0.11771349984E+03 0.  0.
        -13    1    3    3    0    0 -0.21672404514E+01  0.27943569014E+02 -0.72832752043E+02  0.78039411521E+02  0.00000000000E+00 0. -1.
         13    1    3    3    0    0  0.62473612106E+02 -0.45126329724E+02 -0.76037033257E+02  0.10826342074E+03  0.00000000000E+00 0.  1.
        -13    1    4    4    0    0 -0.83021364359E+02 -0.20037271613E+02 -0.18570946625E+03  0.20440656801E+03  0.00000000000E+00 0.  1.
         13    1    4    4    0    0  0.37750076965E+02 -0.63490189891E+01 -0.39158868872E+02  0.54761257878E+02  0.00000000000E+00 0. -1.
         -4    1    1    2    0  502 -0.15035084261E+02  0.43569051313E+02 -0.72487295543E+02  0.85899499452E+02  0.00000000000E+00 0.  1.
<scales pt_clust_5="13000.00000" pt_clust_6="13000.00000" pt_clust_7="13000.00000" pt_clust_8="13000.00000" pt_clust_9="46.09030"></scales>
<clustering>
<clus scale="   46.090">  2  9  1 -1</clus>
<clus scale="   92.814">  5  6 -1 -1</clus>
<clus scale="  107.460">  1  5  2 -1</clus>
<clus scale="  117.713">  7  8 -1 -1</clus>
<clus scale="   46.090">  2  5  1 -1</clus>
</clustering>
</event>
<event>
 9    1  0.1321469E-005  0.2585675E+03  0.7546771E-02  0.1108157E+00
         21   -1    0    0  501  502  0.00000000000E+00  0.00000000000E+00  0.22964890451E+03  0.22964890451E+03  0.00000000000E+00 0.  1.
         -1   -1    0    0    0  501 -0.00000000000E+00 -0.00000000000E+00 -0.92761457744E+03  0.92761457744E+03  0.00000000000E+00 0.  1.
         23    2    1    2    0    0 -0.26472699008E+00 -0.25780806022E+03 -0.76373728498E+03  0.81105841530E+03  0.89755482089E+02 0.  0.
         23    2    1    2    0    0  0.87614411836E+02  0.14592601089E+03  0.64695997277E+02  0.20425888900E+03  0.92549639949E+02 0.  0.
        -11    1    4    4    0    0 -0.54559162004E+01  0.77929028132E+02  0.20057660265E+02  0.80653643331E+02  0.00000000000E+00 0. -1.
         11    1    4    4    0    0  0.93070328036E+02  0.67996982761E+02  0.44638337012E+02  0.12360524567E+03  0.00000000000E+00 0.  1.
        -13    1    3    3    0    0  0.20004730872E+02 -0.72604171330E+02 -0.12726638829E+03  0.14787930396E+03  0.00000000000E+00 0. -1.
         13    1    3    3    0    0 -0.20269457862E+02 -0.18520388890E+03 -0.63647089669E+03  0.66317911134E+03  0.00000000000E+00 0.  1.
         -1    1    1    2    0  502 -0.87349684846E+02  0.11188204933E+03  0.10756147657E+01  0.14194617766E+03  0.00000000000E+00 0.  1.
<scales pt_clust_5="13000.00000" pt_clust_6="13000.00000" pt_clust_7="13000.00000" pt_clust_8="13000.00000" pt_clust_9="141.94210"></scales>
<clustering>
<clus scale="   89.755">  7  8 -1 -1</clus>
<clus scale="   92.550">  5  6 -1 -1</clus>
<clus scale="  141.942">  1  9  2 -1</clus>
<clus scale="  257.581">  2  7  1 -1</clus>
<clus scale="  141.942">  1  5  2 -1</clus>
</clustering>
</event>
<event>
 9    1  0.1321469E-005  0.9522020E+02  0.7546771E-02  0.1292777E+00
         21   -1    0    0  501  502  0.00000000000E+00  0.00000000000E+00  0.19634236197E+03  0.19634236197E+03  0.00000000000E+00 0.  1.
          2   -1    0    0  502    0 -0.00000000000E+00 -0.00000000000E+00 -0.89170881400E+02  0.89170881400E+02  0.00000000000E+00 0. -1.
         23    2    1    2    0    0  0.19558480479E+02 -0.32714411874E-01 -0.33109679014E+02  0.10082568696E+03  0.93204254608E+02 0.  0.
         23    2    1    2    0    0 -0.16916805479E+02  0.21473234426E+02  0.13147218918E+03  0.16135791208E+03  0.89465977654E+02 0.  0.
        -11    1    4    4    0    0  0.26627888173E+02  0.12376454024E+01  0.10106865407E+03  0.10452487278E+03  0.00000000000E+00 0.  1.
         11    1    4    4    0    0 -0.43544693652E+02  0.20235589023E+02  0.30403535113E+02  0.56833039297E+02  0.00000000000E+00 0. -1.
        -13    1    3    3    0    0 -0.13295227106E+02 -0.21776133493E+02  0.21584587432E+02  0.33419417534E+02  0.00000000000E+00 0. -1.
         13    1    3    3    0    0  0.32853707585E+02  0.21743419081E+02 -0.54694266447E+02  0.67406269423E+02  0.00000000000E+00 0.  1.
          2    1    1    2  501    0 -0.26416749999E+01 -0.21440520014E+02  0.88089704027E+01  0.23329644335E+02  0.00000000000E+00 0. -1.
<scales pt_clust_5="13000.00000" pt_clust_6="13000.00000" pt_clust_7="13000.00000" pt_clust_8="13000.00000" pt_clust_9="21.60265"></scales>
<clustering>
<clus scale="   21.603">  1  9  2 -1</clus>
<clus scale="   89.466">  5  6 -1 -1</clus>
<clus scale="   91.564">  1  5  2 -1</clus>
<clus scale="   93.204">  7  8 -1 -1</clus>
<clus scale="   21.603">  1  5  2 -1</clus>
</clustering>
</event>
<event>
 9    1  0.1321469E-005  0.2122049E+03  0.7546771E-02  0.1178748E+00
         21   -1    0    0  501  502  0.00000000000E+00  0.00000000000E+00  0.93396774783E+03  0.93396774783E+03  0.00000000000E+00 0. -1.
          1   -1    0    0  502    0 -0.00000000000E+00 -0.00000000000E+00 -0.15847695666E+03  0.15847695666E+03  0.00000000000E+00 0. -1.
         23    2    1    2    0    0 -0.15626649269E+02  0.37867449642E+02  0.50691709558E+02  0.99524913024E+02  0.75215842644E+02 0.  0.
         23    2    1    2    0    0  0.15698016860E+03  0.92847365080E+02 -0.36676547515E+02  0.20748213387E+03  0.91870888767E+02 0.  0.
        -11    1    4    4    0    0  0.38625477534E+02  0.16341293167E+01 -0.43127118327E+02  0.57918444631E+02  0.00000000000E+00 0.  1.
         11    1    4    4    0    0  0.11835469106E+03  0.91213235764E+02  0.64505708117E+01  0.14956368924E+03  0.00000000000E+00 0. -1.
        -11    1    3    3    0    0  0.22804795783E+01  0.54149662719E+02  0.52236192044E+02  0.75272879040E+02  0.00000000000E+00 0. -1.
         11    1    3    3    0    0 -0.17907128847E+02 -0.16282213076E+02 -0.15444824856E+01  0.24252033984E+02  0.00000000000E+00 0.  1.
          1    1    1    2  501    0 -0.14135351933E+03 -0.13071481472E+03  0.76147562913E+03  0.78543765760E+03  0.00000000000E+00 0. -1.
<scales pt_clust_5="13000.00000" pt_clust_6="13000.00000" pt_clust_7="13000.00000" pt_clust_8="13000.00000" pt_clust_9="191.28686"></scales>
<clustering>
<clus scale="   75.216">  7  8 -1 -1</clus>
<clus scale="   85.648">  2  7  1 -1</clus>
<clus scale="   91.871">  5  6 -1 -1</clus>
<clus scale="  191.287">  1  9  2 -1</clus>
<clus scale="  191.287">  1  5  2 -1</clus>
</clustering>
</event>
<event>
 9    1  0.1321469E-005  0.9397481E+02  0.7546771E-02  0.1293586E+00
         21   -1    0    0  501  502  0.00000000000E+00  0.00000000000E+00  0.16108527750E+03  0.16108527750E+03  0.00000000000E+00 0.  1.
          1   -1    0    0  502    0 -0.00000000000E+00 -0.00000000000E+00 -0.88569940902E+02  0.88569940902E+02  0.00000000000E+00 0. -1.
         23    2    1    2    0    0 -0.44830285594E+01 -0.15708354213E+02 -0.14980904525E+02  0.94014274242E+02  0.91364141345E+02 0.  0.
         23    2    1    2    0    0  0.26400333177E+02  0.23996290288E+02  0.46497465822E+02  0.10841851620E+03  0.91212722732E+02 0.  0.
        -13    1    3    3    0    0 -0.32032038265E+02 -0.11188616395E+02 -0.42789980573E+02  0.54609697397E+02  0.00000000000E+00 0. -1.
         13    1    3    3    0    0  0.27549009706E+02 -0.45197378174E+01  0.27809076048E+02  0.39404576845E+02  0.00000000000E+00 0.  1.
        -13    1    4    4    0    0  0.23527571103E+02 -0.57479400040E-01 -0.24160295302E+02  0.33723430653E+02  0.00000000000E+00 0. -1.
         13    1    4    4    0    0  0.28727620736E+01  0.24053769688E+02  0.70657761124E+02  0.74695085549E+02  0.00000000000E+00 0.  1.
          1    1    1    2  501    0 -0.21917304618E+02 -0.82879360752E+01  0.40998775305E+02  0.47222427962E+02  0.00000000000E+00 0. -1.
<scales pt_clust_5="13000.00000" pt_clust_6="13000.00000" pt_clust_7="13000.00000" pt_clust_8="13000.00000" pt_clust_9="23.43199"></scales>
<clustering>
<clus scale="   23.432">  1  9  2 -1</clus>
<clus scale="   91.213">  7  8 -1 -1</clus>
<clus scale="   91.364">  5  6 -1 -1</clus>
<clus scale="   93.828">  1  7  2 -1</clus>
<clus scale="   23.432">  1  5  2 -1</clus>
</clustering>
</event>
<event>
 9    1  0.1321469E-005  0.1640651E+03  0.7546771E-02  0.1184648E+00
         21   -1    0    0  501  502  0.00000000000E+00  0.00000000000E+00  0.27095529075E+03  0.27095529075E+03  0.00000000000E+00 0.  1.
         -4   -1    0    0    0  501 -0.00000000000E+00 -0.00000000000E+00 -0.21273978260E+03  0.21273978260E+03  0.00000000000E+00 0.  1.
         23    2    1    2    0    0  0.13158815195E+03  0.10166369520E+03 -0.94633376478E+02  0.21199608385E+03  0.91301232007E+02 0.  0.
         23    2    1    2    0    0 -0.38174880995E+02 -0.82375498331E+02  0.66301815392E+02  0.14290275926E+03  0.88216912303E+02 0.  0.
        -11    1    3    3    0    0  0.94654901139E+02  0.39302237277E+02 -0.13778852428E+02  0.10341215083E+03  0.00000000000E+00 0.  1.
         11    1    3    3    0    0  0.36933250814E+02  0.62361457928E+02 -0.80854524050E+02  0.10858393302E+03  0.00000000000E+00 0. -1.
        -13    1    4    4    0    0  0.13147691733E+02 -0.26520957168E+02  0.59856639568E+02  0.66776045611E+02  0.00000000000E+00 0.  1.
         13    1    4    4    0    0 -0.51322572729E+02 -0.55854541164E+02  0.64451758243E+01  0.76126713652E+02  0.00000000000E+00 0. -1.
         -4    1    1    2    0  502 -0.93413270958E+02 -0.19288196873E+02  0.86547069241E+02  0.12879623024E+03  0.00000000000E+00 0.  1.
<scales pt_clust_5="13000.00000" pt_clust_6="13000.00000" pt_clust_7="13000.00000" pt_clust_8="13000.00000" pt_clust_9="95.38382"></scales>
<clustering>
<clus scale="   88.217">  7  8 -1 -1</clus>
<clus scale="   91.301">  5  6 -1 -1</clus>
<clus scale="   95.384">  1  9  2 -1</clus>
<clus scale="  162.369">  1  7  2 -1</clus>
<clus scale="   95.384">  1  5  2 -1</clus>
</clustering>
</event>
<event>
 9    1  0.1321469E-005  0.1137955E+03  0.7546771E-02  0.1254415E+00
         21   -1    0    0  501  502  0.00000000000E+00  0.00000000000E+00  0.59363194674E+02  0.59363194674E+02  0.00000000000E+00 0.  1.
          3   -1    0    0  502    0 -0.00000000000E+00 -0.00000000000E+00 -0.34068077987E+03  0.34068077987E+03  0.00000000000E+00 0. -1.
         23    2    1    2    0    0  0.50974246869E+01 -0.63343024171E+02 -0.17042022595E+03  0.20288661306E+03  0.89897730205E+02 0.  0.
         23    2    1    2    0    0 -0.42229130816E+02  0.68801386679E+02 -0.67221172909E+02  0.13957119497E+03  0.91893971938E+02 0.  0.
        -11    1    4    4    0    0 -0.67502702378E+02  0.61701708880E+02 -0.34791187222E+02  0.97847546804E+02  0.00000000000E+00 0.  1.
         11    1    4    4    0    0  0.25273571562E+02  0.70996777985E+01 -0.32429985687E+02  0.41723648162E+02  0.00000000000E+00 0. -1.
        -13    1    3    3    0    0  0.31143993373E+02 -0.52865280935E+02 -0.16252703148E+03  0.17372311940E+03  0.00000000000E+00 0.  1.
         13    1    3    3    0    0 -0.26046568686E+02 -0.10477743235E+02 -0.78931944710E+01  0.29163493662E+02  0.00000000000E+00 0. -1.
          3    1    1    2  501    0  0.37131706129E+02 -0.54583625082E+01 -0.43676186334E+02  0.57586166516E+02  0.00000000000E+00 0. -1.
<scales pt_clust_5="13000.00000" pt_clust_6="13000.00000" pt_clust_7="13000.00000" pt_clust_8="13000.00000" pt_clust_9="37.53077"></scales>
<clustering>
<clus scale="   37.531">  1  9  2 -1</clus>
<clus scale="   89.898">  7  8 -1 -1</clus>
<clus scale="   91.894">  5  6 -1 -1</clus>
<clus scale="  112.190">  2  7  1 -1</clus>
<clus scale="   37.531">  1  5  2 -1</clus>
</clustering>
</event>
<event>
 9    1  0.1321469E-005  0.9628974E+02  0.7546771E-02  0.1291096E+00
         21   -1    0    0  501  502  0.00000000000E+00  0.00000000000E+00  0.22787635162E+03  0.22787635162E+03  0.00000000000E+00 0. -1.
          1   -1    0    0  502    0 -0.00000000000E+00 -0.00000000000E+00 -0.76674131478E+02  0.76674131478E+02  0.00000000000E+00 0. -1.
         23    2    1    2    0    0  0.11611680250E+02  0.22370174140E+02 -0.77104438673E+01  0.90854739512E+02  0.86947552799E+02 0.  0.
         23    2    1    2    0    0  0.81052519050E+01 -0.39722603009E+02  0.74266394539E+02  0.12506812297E+03  0.92102973496E+02 0.  0.
        -11    1    3    3    0    0  0.12952292241E+02  0.53249523911E+02 -0.18920286159E+02  0.57976296012E+02  0.00000000000E+00 0.  1.
         11    1    3    3    0    0 -0.13406119905E+01 -0.30879349770E+02  0.11209842291E+02  0.32878443499E+02  0.00000000000E+00 0. -1.
        -11    1    4    4    0    0 -0.37675499253E+02  0.19948270031E+01  0.36672218287E+02  0.52614391309E+02  0.00000000000E+00 0.  1.
         11    1    4    4    0    0  0.45780751158E+02 -0.41717430013E+02  0.37594176253E+02  0.72453731660E+02  0.00000000000E+00 0. -1.
          1    1    1    2  501    0 -0.19716932155E+02  0.17352428869E+02  0.84646269471E+02  0.88627620619E+02  0.00000000000E+00 0. -1.
<scales pt_clust_5="13000.00000" pt_clust_6="13000.00000" pt_clust_7="13000.00000" pt_clust_8="13000.00000" pt_clust_9="26.26527"></scales>
<clustering>
<clus scale="   26.265">  1  9  2 -1</clus>
<clus scale="   86.948">  5  6 -1 -1</clus>
<clus scale="   91.371">  2  5  1 -1</clus>
<clus scale="   92.103">  7  8 -1 -1</clus>
<clus scale="   26.265">  1  5  2 -1</clus>
</clustering>
</event>
<event>
 9    1  0.1321469E-005  0.2480581E+03  0.7546771E-02  0.1114633E+00
         21   -1    0    0  501  502  0.00000000000E+00  0.00000000000E+00  0.15970875527E+03  0.15970875527E+03  0.00000000000E+00 0.  1.
          1   -1    0    0  502    0 -0.00000000000E+00 -0.00000000000E+00 -0.60097367917E+03  0.60097367917E+03  0.00000000000E+00 0. -1.
         23    2    1    2    0    0  0.14547883410E+03 -0.19211612344E+03 -0.41927772706E+03  0.49308314128E+03  0.96252146729E+02 0.  0.
         23    2    1    2    0    0 -0.12848035624E+03  0.14946273276E+03 -0.30858240657E+02  0.22083439817E+03  0.94706335453E+02 0.  0.
        -11    1    3    3    0    0  0.59754195346E+02 -0.96374442348E+02 -0.28732093842E+03  0.30888819766E+03  0.00000000000E+00 0. -1.
         11    1    3    3    0    0  0.85724638750E+02 -0.95741681089E+02 -0.13195678865E+03  0.18419494362E+03  0.00000000000E+00 0.  1.
        -13    1    4    4    0    0 -0.11164877064E+03  0.10339377950E+03  0.15990300809E+02  0.15300788000E+03  0.00000000000E+00 0.  1.
         13    1    4    4    0    0 -0.16831585598E+02  0.46068953265E+02 -0.46848541466E+02  0.67826518164E+02  0.00000000000E+00 0. -1.
          1    1    1    2  501    0 -0.16998477858E+02  0.42653390676E+02  0.88710438200E+01  0.46764894998E+02  0.00000000000E+00 0. -1.
<scales pt_clust_5="13000.00000" pt_clust_6="13000.00000" pt_clust_7="13000.00000" pt_clust_8="13000.00000" pt_clust_9="45.91579"></scales>
<clustering>
<clus scale="   45.916">  1  9  2 -1</clus>
<clus scale="   94.706">  7  8 -1 -1</clus>
<clus scale="   96.252">  5  6 -1 -1</clus>
<clus scale="  247.462">  1  7  2 -1</clus>
<clus scale="   45.916">  1  5  2 -1</clus>
</clustering>
</event>
<event>
 9    1  0.1321469E-005  0.9735014E+02  0.7546771E-02  0.1286835E+00
         -1   -1    0    0    0  501 -0.00000000000E+00  0.00000000000E+00  0.47749247289E+02  0.47749247289E+02  0.00000000000E+00 0.  1.
         21   -1    0    0  501  502  0.00000000000E+00 -0.00000000000E+00 -0.37883661093E+03  0.37883661093E+03  0.00000000000E+00 0. -1.
         23    2    1    2    0    0  0.26121583750E+02  0.38709437644E+02 -0.41676362573E+02  0.10828429892E+03  0.88361827142E+02 0.  0.
         23    2    1    2    0    0  0.36951582505E+01 -0.11132589911E+02 -0.21771434689E+03  0.23590052256E+03  0.90066258666E+02 0.  0.
        -13    1    4    4    0    0 -0.24345476385E+02  0.28567138303E+02 -0.13340429744E+03  0.13858387419E+03  0.00000000000E+00 0.  1.
         13    1    4    4    0    0  0.28040634635E+02 -0.39699728214E+02 -0.84310049446E+02  0.97316648363E+02  0.00000000000E+00 0. -1.
        -13    1    3    3    0    0  0.50039754453E+02  0.49767395731E+02 -0.17939616006E+02  0.72818957189E+02  0.00000000000E+00 0. -1.
         13    1    3    3    0    0 -0.23918170704E+02 -0.11057958087E+02 -0.23736746567E+02  0.35465341736E+02  0.00000000000E+00 0.  1.
         -1    1    1    2    0  502 -0.29816742000E+02 -0.27576847734E+02 -0.71696654180E+02  0.82401036735E+02  0.00000000000E+00 0.  1.
<scales pt_clust_5="13000.00000" pt_clust_6="13000.00000" pt_clust_7="13000.00000" pt_clust_8="13000.00000" pt_clust_9="40.61429"></scales>
<clustering>
<clus scale="   40.614">  2  9  1 -1</clus>
<clus scale="   88.362">  7  8 -1 -1</clus>
<clus scale="   90.066">  5  6 -1 -1</clus>
<clus scale="   95.775">  1  7  2 -1</clus>
<clus scale="   40.614">  2  5  1 -1</clus>
</clustering>
</event>
<event>
 9    1  0.1321469E-005  0.1228187E+03  0.7546771E-02  0.1239345E+00
         21   -1    0    0  501  502  0.00000000000E+00  0.00000000000E+00  0.23797795387E+03  0.23797795387E+03  0.00000000000E+00 0. -1.
          1   -1    0    0  502    0 -0.00000000000E+00 -0.00000000000E+00 -0.18908152419E+03  0.18908152419E+03  0.00000000000E+00 0. -1.
         23    2    1    2    0    0 -0.70378767080E+02 -0.30673819052E+02 -0.11400063166E+03  0.16288883799E+03  0.87421825039E+02 0.  0.
         23    2    1    2    0    0  0.11190817380E+03  0.29014634303E+02  0.70211645291E+02  0.16259293157E+03  0.90230249338E+02 0.  0.
        -11    1    3    3    0    0 -0.62446846574E+02 -0.59606462229E+02 -0.83313757632E+02  0.11997383547E+03  0.00000000000E+00 0. -1.
         11    1    3    3    0    0 -0.79319205062E+01  0.28932643177E+02 -0.30686874025E+02  0.42915002523E+02  0.00000000000E+00 0.  1.
        -11    1    4    4    0    0  0.12204016168E+02 -0.20441342181E+02 -0.95663577943E+01  0.25657390402E+02  0.00000000000E+00 0.  1.
         11    1    4    4    0    0  0.99704157634E+02  0.49455976484E+02  0.79778003085E+02  0.13693554117E+03  0.00000000000E+00 0. -1.
          1    1    1    2  501    0 -0.41529406722E+02  0.16591847496E+01  0.92685416041E+02  0.10157770850E+03  0.00000000000E+00 0. -1.
<scales pt_clust_5="13000.00000" pt_clust_6="13000.00000" pt_clust_7="13000.00000" pt_clust_8="13000.00000" pt_clust_9="41.56254"></scales>
<clustering>
<clus scale="   41.563">  1  9  2 -1</clus>
<clus scale="   87.422">  5  6 -1 -1</clus>
<clus scale="   90.230">  7  8 -1 -1</clus>
<clus scale="  120.770">  2  5  1 -1</clus>
<clus scale="   41.563">  1  5  2 -1</clus>
</clustering>
</event>
<event>
 9    1  0.1321469E-005  0.1434220E+03  0.7546771E-02  0.1208969E+00
         21   -1    0    0  501  502  0.00000000000E+00  0.00000000000E+00  0.22020097440E+03  0.22020097440E+03  0.00000000000E+00 0. -1.
          1   -1    0    0  502    0 -0.00000000000E+00 -0.00000000000E+00 -0.75837637462E+03  0.75837637462E+03  0.00000000000E+00 0. -1.
         23    2    1    2    0    0  0.77816749432E+02 -0.77853798390E+02 -0.55645143805E+03  0.57430034584E+03  0.89811045574E+02 0.  0.
         23    2    1    2    0    0 -0.52312895277E+02  0.11166751950E+03 -0.16018169419E+03  0.22086223706E+03  0.88970099930E+02 0.  0.
        -11    1    3    3    0    0 -0.88199437153E+01 -0.48192037115E+02 -0.15601471786E+03  0.16352631604E+03  0.00000000000E+00 0. -1.
         11    1    3    3    0    0  0.86636693148E+02 -0.29661761275E+02 -0.40043672018E+03  0.41077402979E+03  0.00000000000E+00 0.  1.
        -13    1    4    4    0    0 -0.20455896750E+01  0.43542457542E+02 -0.47242553575E+01  0.43845736789E+02  0.00000000000E+00 0.  1.
         13    1    4    4    0    0 -0.50267305602E+02  0.68125061957E+02 -0.15545743883E+03  0.17701650027E+03  0.00000000000E+00 0. -1.
          1    1    1    2  501    0 -0.25503854155E+02 -0.33813721109E+02  0.17845773202E+03  0.18341476612E+03  0.00000000000E+00 0. -1.
<scales pt_clust_5="13000.00000" pt_clust_6="13000.00000" pt_clust_7="13000.00000" pt_clust_8="13000.00000" pt_clust_9="42.35345"></scales>
<clustering>
<clus scale="   42.353">  1  9  2 -1</clus>
<clus scale="   88.970">  7  8 -1 -1</clus>
<clus scale="   89.811">  5  6 -1 -1</clus>
<clus scale="  142.897">  1  7  2 -1</clus>
<clus scale="   42.353">  1  5  2 -1</clus>
</clustering>
</event>
<event>
 9    1  0.1321469E-005  0.1171086E+03  0.7546771E-02  0.1248188E+00
         -1   -1    0    0    0  501 -0.00000000000E+00  0.00000000000E+00  0.16313296926E+03  0.16313296926E+03  0.00000000000E+00 0.  1.
         21   -1    0    0  501  502  0.00000000000E+00 -0.00000000000E+00 -0.11123886488E+03  0.11123886488E+03  0.00000000000E+00 0. -1.
         23    2    1    2    0    0  0.56007975580E+02 -0.60991716145E+02  0.61076282419E+02  0.13772942823E+03  0.91554357406E+02 0.  0.
         23    2    1    2    0    0 -0.39034171615E+02  0.41894047787E+02  0.23108971724E+01  0.10862595118E+03  0.92279354298E+02 0.  0.
        -11    1    4    4    0    0  0.23803246051E+02  0.33697166580E+02 -0.13326346946E+02  0.43355335093E+02  0.00000000000E+00 0. -1.
         11    1    4    4    0    0 -0.62837417665E+02  0.81968812067E+01  0.15637244118E+02  0.65270616084E+02  0.00000000000E+00 0.  1.
        -13    1    3    3    0    0 -0.21074308677E+02  0.15584241672E+01  0.23457095985E+02  0.31571989550E+02  0.00000000000E+00 0.  1.
         13    1    3    3    0    0  0.77082284258E+02 -0.62550140312E+02  0.37619186434E+02  0.10615743868E+03  0.00000000000E+00 0. -1.
         -1    1    1    2    0  502 -0.16973803966E+02  0.19097668358E+02 -0.11493075209E+02  0.28016454728E+02  0.00000000000E+00 0.  1.
<scales pt_clust_5="13000.00000" pt_clust_6="13000.00000" pt_clust_7="13000.00000" pt_clust_8="13000.00000" pt_clust_9="25.55056"></scales>
<clustering>
<clus scale="   25.551">  2  9  1 -1</clus>
<clus scale="   91.554">  7  8 -1 -1</clus>
<clus scale="   92.279">  5  6 -1 -1</clus>
<clus scale="  116.538">  1  7  2 -1</clus>
<clus scale="   25.551">  2  5  1 -1</clus>
</clustering>
</event>
<event>
 9    1  0.1321469E-005  0.9024045E+02  0.7546771E-02  0.1304906E+00
         21   -1    0    0  501  502  0.00000000000E+00  0.00000000000E+00  0.16611163481E+03  0.16611163481E+03  0.00000000000E+00 0.  1.
         -1   -1    0    0    0  501 -0.00000000000E+00 -0.00000000000E+00 -0.20657269842E+03  0.20657269842E+03  0.00000000000E+00 0.  1.
         23    2    1    2    0    0 -0.15652784563E+01 -0.52878807649E+01 -0.15081533784E+03  0.17552834737E+03  0.89635499788E+02 0.  0.
         23    2    1    2    0    0  0.18624651232E+02  0.24603476068E+02  0.74355336743E+01  0.91059889895E+02  0.85348741751E+02 0.  0.
        -11    1    3    3    0    0 -0.36382784483E+02  0.18992509209E+02 -0.41983146304E+02  0.58711216870E+02  0.00000000000E+00 0. -1.
         11    1    3    3    0    0  0.34817506027E+02 -0.24280389973E+02 -0.10883219154E+03  0.11681713050E+03  0.00000000000E+00 0.  1.
        -13    1    4    4    0    0  0.14596794979E+01 -0.26199892654E+02  0.23348005921E+02  0.35123986388E+02  0.00000000000E+00 0. -1.
         13    1    4    4    0    0  0.17164971734E+02  0.50803368722E+02 -0.15912472247E+02  0.55935903507E+02  0.00000000000E+00 0.  1.
         -1    1    1    2    0  502 -0.17059372776E+02 -0.19315595303E+02  0.10291874055E+03  0.10609609596E+03  0.00000000000E+00 0.  1.
<scales pt_clust_5="13000.00000" pt_clust_6="13000.00000" pt_clust_7="13000.00000" pt_clust_8="13000.00000" pt_clust_9="25.77042"></scales>
<clustering>
<clus scale="   25.770">  1  9  2 -1</clus>
<clus scale="   85.349">  7  8 -1 -1</clus>
<clus scale="   85.984">  1  7  2 -1</clus>
<clus scale="   89.635">  5  6 -1 -1</clus>
<clus scale="   25.770">  1  5  2 -1</clus>
</clustering>
</event>
<event>
 9    1  0.1321469E-005  0.9924416E+02  0.7546771E-02  0.1283543E+00
         -1   -1    0    0    0  501 -0.00000000000E+00  0.00000000000E+00  0.54474692898E+03  0.54474692898E+03  0.00000000000E+00 0.  1.
         21   -1    0    0  501  502  0.00000000000E+00 -0.00000000000E+00 -0.51138744919E+02  0.51138744919E+02  0.00000000000E+00 0. -1.
         23    2    1    2    0    0  0.23281118904E+02  0.78654110962E+01  0.26785495809E+03  0.28487058254E+03  0.93814151544E+02 0.  0.
         23    2    1    2    0    0 -0.40287721856E+02  0.32547493236E+02  0.24256760138E+03  0.26405606028E+03  0.90576607811E+02 0.  0.
        -11    1    3    3    0    0  0.52698218798E+02  0.75325241629E+01  0.23418310919E+03  0.24015738550E+03  0.00000000000E+00 0.  1.
         11    1    3    3    0    0 -0.29417099894E+02  0.33288693336E+00  0.33671848908E+02  0.44713197031E+02  0.00000000000E+00 0. -1.
        -11    1    4    4    0    0  0.21996781357E+02  0.32747904258E+02  0.66800295719E+02  0.77579398886E+02  0.00000000000E+00 0.  1.
         11    1    4    4    0    0 -0.62284503213E+02 -0.20041102186E+00  0.17576730566E+03  0.18647666139E+03  0.00000000000E+00 0. -1.
         -1    1    1    2    0  502  0.17006602952E+02 -0.40412904332E+02 -0.16814375407E+02  0.46959031089E+02  0.00000000000E+00 0.  1.
<scales pt_clust_5="13000.00000" pt_clust_6="13000.00000" pt_clust_7="13000.00000" pt_clust_8="13000.00000" pt_clust_9="43.84549"></scales>
<clustering>
<clus scale="   43.845">  2  9  1 -1</clus>
<clus scale="   90.577">  7  8 -1 -1</clus>
<clus scale="   93.814">  5  6 -1 -1</clus>
<clus scale="   96.190">  2  7  1 -1</clus>
<clus scale="   43.845">  2  5  1 -1</clus>
</clustering>
</event>
<event>
 9    1  0.1321469E-005  0.1491226E+03  0.7546771E-02  0.1201822E+00
         21   -1    0    0  501  502  0.00000000000E+00  0.00000000000E+00  0.18866205940E+03  0.18866205940E+03  0.00000000000E+00 0.  1.
          1   -1    0    0  502    0 -0.00000000000E+00 -0.00000000000E+00 -0.16487705201E+03  0.16487705201E+03  0.00000000000E+00 0. -1.
         23    2    1    2    0    0 -0.23579851652E+02 -0.10901666915E+03 -0.35651873334E+02  0.14951612400E+03  0.92969735440E+02 0.  0.
         23    2    1    2    0    0  0.59807949948E+02  0.11449983723E+03  0.51662583445E+02  0.16656661363E+03  0.91587175112E+02 0.  0.
        -11    1    3    3    0    0  0.27488466308E+02 -0.70024971125E+02 -0.39844313151E+02  0.85127443586E+02  0.00000000000E+00 0. -1.
         11    1    3    3    0    0 -0.51068317960E+02 -0.38991698027E+02  0.41924398163E+01  0.64388680417E+02  0.00000000000E+00 0.  1.
        -13    1    4    4    0    0 -0.34916984378E+01  0.81394585691E+02  0.49027759973E+02  0.95084130041E+02  0.00000000000E+00 0. -1.
         13    1    4    4    0    0  0.63299648386E+02  0.33105251541E+02  0.26348234719E+01  0.71482483589E+02  0.00000000000E+00 0.  1.
          1    1    1    2  501    0 -0.36228098296E+02 -0.54831680806E+01  0.77742972714E+01  0.37456373776E+02  0.00000000000E+00 0. -1.
<scales pt_clust_5="13000.00000" pt_clust_6="13000.00000" pt_clust_7="13000.00000" pt_clust_8="13000.00000" pt_clust_9="36.64069"></scales>
<clustering>
<clus scale="   36.641">  1  9  2 -1</clus>
<clus scale="   91.587">  7  8 -1 -1</clus>
<clus scale="   92.970">  5  6 -1 -1</clus>
<clus scale="  148.265">  1  7  2 -1</clus>
<clus scale="   36.641">  1  5  2 -1</clus>
</clustering>
</event>
<event>
 9    1  0.1321469E-005  0.1147801E+03  0.7546771E-02  0.1252899E+00
         -3   -1    0    0    0  501 -0.00000000000E+00  0.00000000000E+00  0.23398566762E+03  0.23398566762E+03  0.00000000000E+00 0.  1.
         21   -1    0    0  501  502  0.00000000000E+00 -0.00000000000E+00 -0.12536573627E+03  0.12536573627E+03  0.00000000000E+00 0. -1.
         23    2    1    2    0    0  0.27159402472E+02  0.59134067802E+02  0.16511223557E+03  0.19999804737E+03  0.92210072655E+02 0.  0.
         23    2    1    2    0    0 -0.43136463675E+02 -0.71386236933E+02 -0.29879284854E+02  0.12598218735E+03  0.89565565617E+02 0.  0.
        -13    1    3    3    0    0  0.31574131397E+02  0.11509357975E+01  0.81777550604E+01  0.32636269770E+02  0.00000000000E+00 0. -1.
         13    1    3    3    0    0 -0.44147289243E+01  0.57983132004E+02  0.15693448051E+03  0.16736177760E+03  0.00000000000E+00 0.  1.
        -13    1    4    4    0    0 -0.42074277723E+02 -0.11880495798E+02  0.20237597588E+02  0.48176253304E+02  0.00000000000E+00 0.  1.
         13    1    4    4    0    0 -0.10621859526E+01 -0.59505741135E+02 -0.50116882443E+02  0.77805934046E+02  0.00000000000E+00 0. -1.
         -3    1    1    2    0  502  0.15977061203E+02  0.12252169131E+02 -0.26613019355E+02  0.33371169178E+02  0.00000000000E+00 0.  1.
<scales pt_clust_5="13000.00000" pt_clust_6="13000.00000" pt_clust_7="13000.00000" pt_clust_8="13000.00000" pt_clust_9="20.13410"></scales>
<clustering>
<clus scale="   20.134">  2  9  1 -1</clus>
<clus scale="   89.566">  7  8 -1 -1</clus>
<clus scale="   92.210">  5  6 -1 -1</clus>
<clus scale="  112.667">  2  7  1 -1</clus>
<clus scale="   20.134">  2  5  1 -1</clus>
</clustering>
</event>
<event>
 9    1  0.1321469E-005  0.1105251E+03  0.7546771E-02  0.1262124E+00
         21   -1    0    0  501  502  0.00000000000E+00  0.00000000000E+00  0.20614900611E+03  0.20614900611E+03  0.00000000000E+00 0.  1.
         -1   -1    0    0    0  501 -0.00000000000E+00 -0.00000000000E+00 -0.19461312861E+03  0.19461312861E+03  0.00000000000E+00 0.  1.
         23    2    1    2    0    0  0.54847860102E+02 -0.71783636092E+01 -0.14235914441E+03  0.18151743383E+03  0.98095036186E+02 0.  0.
         23    2    1    2    0    0 -0.31769775191E+02  0.14443173805E+02  0.45959806295E+02  0.10863102072E+03  0.92035161665E+02 0.  0.
        -11    1    4    4    0    0 -0.42476924216E+01 -0.38506263193E+02  0.17173144203E+02  0.42375607109E+02  0.00000000000E+00 0.  1.
         11    1    4    4    0    0 -0.27522082770E+02  0.52949436998E+02  0.28786662092E+02  0.66255413612E+02  0.00000000000E+00 0. -1.
        -11    1    3    3    0    0  0.23463247950E+02  0.40770660417E+02 -0.31172980301E+02  0.56431599800E+02  0.00000000000E+00 0. -1.
         11    1    3    3    0    0  0.31384612152E+02 -0.47949024026E+02 -0.11118616411E+03  0.12508583403E+03  0.00000000000E+00 0.  1.
         -1    1    1    2    0  502 -0.23078084910E+02 -0.72648101959E+01  0.10793521562E+03  0.11061368017E+03  0.00000000000E+00 0.  1.
<scales pt_clust_5="13000.00000" pt_clust_6="13000.00000" pt_clust_7="13000.00000" pt_clust_8="13000.00000" pt_clust_9="24.19453"></scales>
<clustering>
<clus scale="   24.195">  1  9  2 -1</clus>
<clus scale="   92.035">  5  6 -1 -1</clus>
<clus scale="   98.095">  7  8 -1 -1</clus>
<clus scale="  105.184">  1  5  2 -1</clus>
<clus scale="   24.195">  1  5  2 -1</clus>
</clustering>
</event>
<event>
 9    1  0.1321469E-005  0.1207299E+03  0.7546771E-02  0.1243230E+00
          2   -1    0    0  502    0 -0.00000000000E+00  0.00000000000E+00  0.46094601785E+03  0.46094601785E+03  0.00000000000E+00 0. -1.
         21   -1    0    0  501  502  0.00000000000E+00 -0.00000000000E+00 -0.41828720476E+02  0.41828720476E+02  0.00000000000E+00 0. -1.
         23    2    1    2    0    0 -0.86537684480E+02 -0.28290107844E+02  0.20290168221E+03  0.24039422598E+03  0.91275353755E+02 0.  0.
         23    2    1    2    0    0  0.69738567296E+02 -0.37081217905E+01  0.14984700254E+03  0.18681008308E+03  0.86986579624E+02 0.  0.
        -11    1    3    3    0    0 -0.74019472958E+02 -0.83897696774E+01  0.20367593274E+03  0.21687128945E+03  0.00000000000E+00 0. -1.
         11    1    3    3    0    0 -0.12518211522E+02 -0.19900338167E+02 -0.77425052916E+00  0.23522936524E+02  0.00000000000E+00 0.  1.
        -13    1    4    4    0    0  0.80025135811E+02  0.20951652893E+02  0.96186857886E+02  0.12686569966E+03  0.00000000000E+00 0.  1.
         13    1    4    4    0    0 -0.10286568515E+02 -0.24659774684E+02  0.53660144653E+02  0.59944383419E+02  0.00000000000E+00 0. -1.
          2    1    1    2  501    0  0.16799117184E+02  0.31998229635E+02  0.66368612625E+02  0.75570429267E+02  0.00000000000E+00 0. -1.
<scales pt_clust_5="13000.00000" pt_clust_6="13000.00000" pt_clust_7="13000.00000" pt_clust_8="13000.00000" pt_clust_9="36.13998"></scales>
<clustering>
<clus scale="   36.140">  2  9  1 -1</clus>
<clus scale="   86.987">  7  8 -1 -1</clus>
<clus scale="   91.275">  5  6 -1 -1</clus>
<clus scale="  117.521">  2  7  1 -1</clus>
<clus scale="   36.140">  2  5  1 -1</clus>
</clustering>
</event>
<event>
 9    1  0.1321469E-005  0.9623384E+02  0.7546771E-02  0.1288960E+00
         21   -1    0    0  501  502  0.00000000000E+00  0.00000000000E+00  0.16398368436E+03  0.16398368436E+03  0.00000000000E+00 0. -1.
          3   -1    0    0  502    0 -0.00000000000E+00 -0.00000000000E+00 -0.30381881045E+03  0.30381881045E+03  0.00000000000E+00 0. -1.
         23    2    1    2    0    0  0.22829235970E+02  0.33303126272E+01 -0.26734241281E+03  0.28417166927E+03  0.93537729968E+02 0.  0.
         23    2    1    2    0    0 -0.19887709966E+02  0.18582373904E+02  0.62429120326E+02  0.11489956521E+03  0.92540204199E+02 0.  0.
        -11    1    4    4    0    0  0.30030903869E+02  0.21630787559E+02  0.28604280834E+01  0.37120455364E+02  0.00000000000E+00 0. -1.
         11    1    4    4    0    0 -0.49918613834E+02 -0.30484136549E+01  0.59568692242E+02  0.77779109846E+02  0.00000000000E+00 0.  1.
        -11    1    3    3    0    0 -0.33436248125E+02 -0.14216856713E+02 -0.82131807080E+02  0.89809439581E+02  0.00000000000E+00 0.  1.
         11    1    3    3    0    0  0.56265484095E+02  0.17547169340E+02 -0.18521060573E+03  0.19436222969E+03  0.00000000000E+00 0. -1.
          3    1    1    2  501    0 -0.29415260044E+01 -0.21912686531E+02  0.65078166397E+02  0.68731260340E+02  0.00000000000E+00 0. -1.
<scales pt_clust_5="13000.00000" pt_clust_6="13000.00000" pt_clust_7="13000.00000" pt_clust_8="13000.00000" pt_clust_9="22.10924"></scales>
<clustering>
<clus scale="   22.109">  1  9  2 -1</clus>
<clus scale="   92.540">  5  6 -1 -1</clus>
<clus scale="   93.538">  7  8 -1 -1</clus>
<clus scale="   95.265">  1  5  2 -1</clus>
<clus scale="   22.109">  1  5  2 -1</clus>
</clustering>
</event>
<event>
 9    1  0.1321469E-005  0.1164761E+03  0.7546771E-02  0.1249779E+00
          2   -1    0    0  502    0 -0.00000000000E+00  0.00000000000E+00  0.11350973773E+03  0.11350973773E+03  0.00000000000E+00 0. -1.
         21   -1    0    0  501  502  0.00000000000E+00 -0.00000000000E+00 -0.15269595550E+03  0.15269595550E+03  0.00000000000E+00 0.  1.
         23    2    1    2    0    0 -0.67775417405E+02  0.20468883245E+02  0.15400185054E+02  0.11621486788E+03  0.90863895093E+02 0.  0.
         23    2    1    2    0    0  0.58837264496E+02 -0.39153699560E+02 -0.55285826587E+02  0.12926639214E+03  0.93050747626E+02 0.  0.
        -13    1    4    4    0    0 -0.17397411551E+02 -0.34221868996E+02 -0.73766783719E+01  0.39092475364E+02  0.00000000000E+00 0.  1.
         13    1    4    4    0    0  0.76234676047E+02 -0.49318305637E+01 -0.47909148215E+02  0.90173916780E+02  0.00000000000E+00 0. -1.
        -13    1    3    3    0    0 -0.14384760307E+02 -0.22629997868E+02 -0.24939465725E+02  0.36619872791E+02  0.00000000000E+00 0.  1.
         13    1    3    3    0    0 -0.53390657098E+02  0.43098881114E+02  0.40339650779E+02  0.79594995091E+02  0.00000000000E+00 0. -1.
          2    1    1    2  501    0  0.89381529091E+01  0.18684816315E+02  0.69942376390E+00  0.20724433207E+02  0.00000000000E+00 0. -1.
<scales pt_clust_5="13000.00000" pt_clust_6="13000.00000" pt_clust_7="13000.00000" pt_clust_8="13000.00000" pt_clust_9="20.71264"></scales>
<clustering>
<clus scale="   20.713">  2  9  1 -1</clus>
<clus scale="   90.864">  7  8 -1 -1</clus>
<clus scale="   93.051">  5  6 -1 -1</clus>
<clus scale="  114.737">  1  7  2 -1</clus>
<clus scale="   20.713">  2  5  1 -1</clus>
</clustering>
</event>
<event>
 9    1  0.1321469E-005  0.1719608E+03  0.7546771E-02  0.1196513E+00
          1   -1    0    0  502    0 -0.00000000000E+00  0.00000000000E+00  0.58282013020E+03  0.58282013020E+03  0.00000000000E+00 0. -1.
         21   -1    0    0  501  502  0.00000000000E+00 -0.00000000000E+00 -0.12729599963E+03  0.12729599963E+03  0.00000000000E+00 0.  1.
         23    2    1    2    0    0 -0.37002583275E+02 -0.31824489280E+02  0.35822049269E+03  0.37429817897E+03  0.96928922992E+02 0.  0.
         23    2    1    2    0    0 -0.94487685076E+01  0.15930422455E+03  0.38787736651E+02  0.18805827541E+03  0.91620473969E+02 0.  0.
        -11    1    3    3    0    0 -0.62643158326E+02 -0.10224753960E+01  0.15536543792E+03  0.16752202852E+03  0.00000000000E+00 0.  1.
         11    1    3    3    0    0  0.25640575051E+02 -0.30802013884E+02  0.20285505478E+03  0.20677615045E+03  0.00000000000E+00 0. -1.
        -11    1    4    4    0    0 -0.34188285685E+02  0.95515733959E+02 -0.12960217668E+02  0.10227444233E+03  0.00000000000E+00 0.  1.
         11    1    4    4    0    0  0.24739517177E+02  0.63788490595E+02  0.51747954319E+02  0.85783833085E+02  0.00000000000E+00 0. -1.
          1    1    1    2  501    0  0.46451351783E+02 -0.12747973527E+03  0.58515901231E+02  0.14775967544E+03  0.00000000000E+00 0. -1.
<scales pt_clust_5="13000.00000" pt_clust_6="13000.00000" pt_clust_7="13000.00000" pt_clust_8="13000.00000" pt_clust_9="145.52051"></scales>
<clustering>
<clus scale="   91.620">  7  8 -1 -1</clus>
<clus scale="   96.929">  5  6 -1 -1</clus>
<clus scale="  108.523">  1  5  2 -1</clus>
<clus scale="  145.521">  2  9  1 -1</clus>
<clus scale="  145.521">  2  5  1 -1</clus>
</clustering>
</event>
<event>
 9    1  0.1321469E-005  0.1677584E+03  0.7546771E-02  0.1206735E+00
         21   -1    0    0  501  502  0.00000000000E+00  0.00000000000E+00  0.10922474153E+03  0.10922474153E+03  0.00000000000E+00 0.  1.
          4   -1    0    0  502    0 -0.00000000000E+00 -0.00000000000E+00 -0.53494403250E+03  0.53494403250E+03  0.00000000000E+00 0. -1.
         23    2    1    2    0    0  0.94666705057E+01  0.72836681266E+01 -0.69544917545E+02  0.11666554703E+03  0.92906860004E+02 0.  0.
         23    2    1    2    0    0  0.10570503971E+03 -0.93343096127E+02 -0.28556997581E+02  0.16972691010E+03  0.90029066910E+02 0.  0.
        -11    1    4    4    0    0  0.61549219867E+02 -0.10491092425E+03 -0.19373130623E+02  0.12316625627E+03  0.00000000000E+00 0.  1.
         11    1    4    4    0    0  0.44155819840E+02  0.11567828123E+02 -0.91838669590E+01  0.46560653835E+02  0.00000000000E+00 0. -1.
        -13    1    3    3    0    0  0.50568292850E+02 -0.26867281646E+01 -0.45126383603E+02  0.67828911587E+02  0.00000000000E+00 0. -1.
         13    1    3    3    0    0 -0.41101622344E+02  0.99703962912E+01 -0.24418533942E+02  0.48836635444E+02  0.00000000000E+00 0.  1.
          4    1    1    2  501    0 -0.11517171021E+03  0.86059428000E+02 -0.32761737584E+03  0.35777631690E+03  0.00000000000E+00 0. -1.
<scales pt_clust_5="13000.00000" pt_clust_6="13000.00000" pt_clust_7="13000.00000" pt_clust_8="13000.00000" pt_clust_9="141.55442"></scales>
<clustering>
<clus scale="   90.029">  5  6 -1 -1</clus>
<clus scale="   92.907">  7  8 -1 -1</clus>
<clus scale="   93.672">  2  7  1 -1</clus>
<clus scale="  141.554">  1  9  2 -1</clus>
<clus scale="  141.554">  1  5  2 -1</clus>
</clustering>
</event>
<event>
 9    1  0.1321469E-005  0.2115172E+03  0.7546771E-02  0.1154923E+00
         -1   -1    0    0    0  501 -0.00000000000E+00  0.00000000000E+00  0.70399182757E+03  0.70399182757E+03  0.00000000000E+00 0.  1.
         21   -1    0    0  501  502  0.00000000000E+00 -0.00000000000E+00 -0.33793968323E+03  0.33793968323E+03  0.00000000000E+00 0. -1.
         23    2    1    2    0    0 -0.13267252417E+02 -0.11836520154E+03  0.49131544091E+03  0.51358949219E+03  0.90537081293E+02 0.  0.
         23    2    1    2    0    0  0.31539069635E+02  0.28638018035E+03  0.24169859385E+02  0.30274689343E+03  0.89795204592E+02 0.  0.
        -11    1    3    3    0    0  0.51162697543E+01 -0.88538156845E+02  0.45328597304E+03  0.46188023858E+03  0.00000000000E+00 0.  1.
         11    1    3    3    0    0 -0.18383522171E+02 -0.29827044695E+02  0.38029467869E+02  0.51709253612E+02  0.00000000000E+00 0. -1.
        -13    1    4    4    0    0 -0.21987693186E+02  0.36162934891E+02  0.20058387642E+02  0.46835407827E+02  0.00000000000E+00 0.  1.
         13    1    4    4    0    0  0.53526762821E+02  0.25021724546E+03  0.41114717430E+01  0.25591148560E+03  0.00000000000E+00 0. -1.
         -1    1    1    2    0  502 -0.18271817218E+02 -0.16801497881E+03 -0.14943315595E+03  0.22559512518E+03  0.00000000000E+00 0.  1.
<scales pt_clust_5="13000.00000" pt_clust_6="13000.00000" pt_clust_7="13000.00000" pt_clust_8="13000.00000" pt_clust_9="191.51072"></scales>
<clustering>
<clus scale="   89.795">  7  8 -1 -1</clus>
<clus scale="   90.537">  5  6 -1 -1</clus>
<clus scale="  149.611">  1  5  2 -1</clus>
<clus scale="  191.511">  2  9  1 -1</clus>
<clus scale="  191.511">  2  5  1 -1</clus>
</clustering>
</event>
<event>
 9    1  0.1321469E-005  0.1004408E+03  0.7546771E-02  0.1279556E+00
         -2   -1    0    0    0  501 -0.00000000000E+00  0.00000000000E+00  0.27546262051E+03  0.27546262051E+03  0.00000000000E+00 0.  1.
         21   -1    0    0  501  502  0.00000000000E+00 -0.00000000000E+00 -0.11468790369E+03  0.11468790369E+03  0.00000000000E+00 0. -1.
         23    2    1    2    0    0  0.21570730059E+01 -0.45735710936E+02  0.18188161144E+03  0.20825890678E+03  0.90523165297E+02 0.  0.
         23    2    1    2    0    0  0.57064372924E+02  0.29334360256E+02  0.13347989553E+02  0.11144076217E+03  0.90133386151E+02 0.  0.
        -11    1    4    4    0    0 -0.19346459181E+02 -0.12773831167E+02  0.56162666509E+01  0.23853693564E+02  0.00000000000E+00 0.  1.
         11    1    4    4    0    0  0.76410832106E+02  0.42108191423E+02  0.77317229025E+01  0.87587068606E+02  0.00000000000E+00 0. -1.
        -13    1    3    3    0    0 -0.44174722009E+02 -0.22417129755E+02  0.86015023257E+02  0.99259850881E+02  0.00000000000E+00 0.  1.
         13    1    3    3    0    0  0.46331795015E+02 -0.23318581181E+02  0.95866588182E+02  0.10899905590E+03  0.00000000000E+00 0. -1.
         -2    1    1    2    0  502 -0.59221445930E+02  0.16401350679E+02 -0.34454884169E+02  0.70450855249E+02  0.00000000000E+00 0.  1.
<scales pt_clust_5="13000.00000" pt_clust_6="13000.00000" pt_clust_7="13000.00000" pt_clust_8="13000.00000" pt_clust_9="61.45066"></scales>
<clustering>
<clus scale="   61.451">  2  9  1 -1</clus>
<clus scale="   90.133">  5  6 -1 -1</clus>
<clus scale="   90.523">  7  8 -1 -1</clus>
<clus scale="  100.090">  2  5  1 -1</clus>
<clus scale="   61.451">  2  5  1 -1</clus>
</clustering>
</event>
<event>
 9    1  0.1415791E-005  0.1020324E+03  0.7546771E-02  0.1276131E+00
          2   -1    0    0  502    0 -0.00000000000E+00  0.00000000000E+00  0.82221412278E+03  0.82221412278E+03  0.00000000000E+00 0. -1.
         21   -1    0    0  501  502  0.00000000000E+00 -0.00000000000E+00 -0.11667913800E+03  0.11667913800E+03  0.00000000000E+00 0. -1.
         23    2    1    2    0    0 -0.19321257158E+02  0.52026530451E+02  0.47957607730E+03  0.49123936157E+03  0.90790008162E+02 0.  0.
         23    2    1    2    0    0  0.48500160368E+02 -0.95991286071E+01  0.32228464812E+03  0.33842871380E+03  0.90676298358E+02 0.  0.
        -11    1    3    3    0    0 -0.53335884379E+02  0.45902426508E+02  0.35778436426E+03  0.36463872618E+03  0.00000000000E+00 0. -1.
         11    1    3    3    0    0  0.34014627221E+02  0.61241039424E+01  0.12179171304E+03  0.12660063538E+03  0.00000000000E+00 0.  1.
        -11    1    4    4    0    0  0.33309416062E+02 -0.48688005924E+02  0.15174396032E+03  0.16280745872E+03  0.00000000000E+00 0.  1.
         11    1    4    4    0    0  0.15190744307E+02  0.39088877317E+02  0.17054068779E+03  0.17562125508E+03  0.00000000000E+00 0. -1.
          2    1    1    2  501    0 -0.29178903210E+02 -0.42427401844E+02 -0.96325740643E+02  0.10922518542E+03  0.00000000000E+00 0. -1.
<scales pt_clust_5="13000.00000" pt_clust_6="13000.00000" pt_clust_7="13000.00000" pt_clust_8="13000.00000" pt_clust_9="51.49265"></scales>
<clustering>
<clus scale="   51.493">  2  9  1 -1</clus>
<clus scale="   90.676">  7  8 -1 -1</clus>
<clus scale="   90.790">  5  6 -1 -1</clus>
<clus scale="  101.931">  2  7  1 -1</clus>
<clus scale="   51.493">  2  5  1 -1</clus>
</clustering>
</event>
<event>
 9    1  0.1321469E-005  0.1652281E+03  0.7546771E-02  0.1182975E+00
         21   -1    0    0  501  502  0.00000000000E+00  0.00000000000E+00  0.24423183397E+03  0.24423183397E+03  0.00000000000E+00 0.  1.
         -1   -1    0    0    0  501 -0.00000000000E+00 -0.00000000000E+00 -0.42816589169E+03  0.42816589169E+03  0.00000000000E+00 0.  1.
         23    2    1    2    0    0 -0.13851153768E+03 -0.34259858635E+02 -0.36675701935E+03  0.40377339151E+03  0.90349634559E+02 0.  0.
         23    2    1    2    0    0  0.10507172266E+03  0.29293295958E+02  0.84652786619E+02  0.16479624915E+03  0.89964133755E+02 0.  0.
        -11    1    3    3    0    0 -0.69809834983E+02 -0.62319420441E+01 -0.74673947105E+02  0.10241312679E+03  0.00000000000E+00 0. -1.
         11    1    3    3    0    0 -0.68701702695E+02 -0.28027916590E+02 -0.29208307224E+03  0.30136026472E+03  0.00000000000E+00 0.  1.
        -13    1    4    4    0    0  0.10879791010E+03 -0.96490700847E+00  0.53633286003E+02  0.12130311478E+03  0.00000000000E+00 0.  1.
         13    1    4    4    0    0 -0.37261874374E+01  0.30258202967E+02  0.31019500616E+02  0.43493134378E+02  0.00000000000E+00 0. -1.
         -1    1    1    2    0  502  0.33439815019E+02  0.49665626763E+01  0.98170175006E+02  0.10382808500E+03  0.00000000000E+00 0.  1.
<scales pt_clust_5="13000.00000" pt_clust_6="13000.00000" pt_clust_7="13000.00000" pt_clust_8="13000.00000" pt_clust_9="33.80663"></scales>
<clustering>
<clus scale="   33.807">  1  9  2 -1</clus>
<clus scale="   89.964">  7  8 -1 -1</clus>
<clus scale="   90.350">  5  6 -1 -1</clus>
<clus scale="  165.018">  1  7  2 -1</clus>
<clus scale="   33.807">  1  5  2 -1</clus>
</clustering>
</event>
<event>
 9    1  0.1321469E-005  0.1857362E+03  0.7546771E-02  0.1162744E+00
          1   -1    0    0  502    0 -0.00000000000E+00  0.00000000000E+00  0.41415822256E+03  0.41415822256E+03  0.00000000000E+00 0. -1.
         21   -1    0    0  501  502  0.00000000000E+00 -0.00000000000E+00 -0.11079177787E+03  0.11079177787E+03  0.00000000000E+00 0. -1.
         23    2    1    2    0    0  0.66864988271E+02  0.13361730481E+03  0.12230145994E+03  0.21351063989E+03  0.91129772535E+02 0.  0.
         23    2    1    2    0    0 -0.29493316564E+02 -0.17279752940E+03  0.14689080091E+03  0.24741118950E+03  0.94374506144E+02 0.  0.
        -11    1    3    3    0    0  0.49757219650E+02  0.10249243828E+03  0.34882588131E+02  0.11915232170E+03  0.00000000000E+00 0. -1.
         11    1    3    3    0    0  0.17107768620E+02  0.31124866529E+02  0.87418871805E+02  0.94358318188E+02  0.00000000000E+00 0.  1.
        -13    1    4    4    0    0  0.88392215159E+01 -0.42047793869E+02  0.90053546942E+02  0.99778705759E+02  0.00000000000E+00 0.  1.
         13    1    4    4    0    0 -0.38332538080E+02 -0.13074973553E+03  0.56837253966E+02  0.14763248374E+03  0.00000000000E+00 0. -1.
          1    1    1    2  501    0 -0.37371671706E+02  0.39180224587E+02  0.34174183851E+02  0.64028171040E+02  0.00000000000E+00 0. -1.
<scales pt_clust_5="13000.00000" pt_clust_6="13000.00000" pt_clust_7="13000.00000" pt_clust_8="13000.00000" pt_clust_9="54.14547"></scales>
<clustering>
<clus scale="   54.145">  2  9  1 -1</clus>
<clus scale="   91.130">  5  6 -1 -1</clus>
<clus scale="   94.375">  7  8 -1 -1</clus>
<clus scale="  184.109">  1  5  2 -1</clus>
<clus scale="   54.145">  2  5  1 -1</clus>
</clustering>
</event>
<event>
 9    1  0.1321469E-005  0.1336177E+03  0.7546771E-02  0.1222371E+00
         21   -1    0    0  501  502  0.00000000000E+00  0.00000000000E+00  0.13094665432E+03  0.13094665432E+03  0.00000000000E+00 0. -1.
          2   -1    0    0  502    0 -0.00000000000E+00 -0.00000000000E+00 -0.58302284576E+03  0.58302284576E+03  0.00000000000E+00 0. -1.
         23    2    1    2    0    0 -0.19037777612E+02 -0.92049381830E+02 -0.31097862640E+03  0.33697523306E+03  0.89493440797E+02 0.  0.
         23    2    1    2    0    0 -0.82643884636E+02  0.14520625257E+03  0.65400095592E+01  0.19001387559E+03  0.90264243961E+02 0.  0.
        -11    1    4    4    0    0 -0.63825070333E+02  0.15538538333E+03  0.13077194833E+01  0.16798799685E+03  0.00000000000E+00 0. -1.
         11    1    4    4    0    0 -0.18818814302E+02 -0.10179130759E+02  0.52322900759E+01  0.22025878738E+02  0.00000000000E+00 0.  1.
        -11    1    3    3    0    0 -0.50797265104E+02 -0.27304773193E+02 -0.13894341387E+03  0.15043664792E+03  0.00000000000E+00 0. -1.
         11    1    3    3    0    0  0.31759487492E+02 -0.64744608636E+02 -0.17203521253E+03  0.18653858514E+03  0.00000000000E+00 0.  1.
          2    1    1    2  501    0  0.10168166225E+03 -0.53156870738E+02 -0.14763757460E+03  0.18698039143E+03  0.00000000000E+00 0. -1.
<scales pt_clust_5="13000.00000" pt_clust_6="13000.00000" pt_clust_7="13000.00000" pt_clust_8="13000.00000" pt_clust_9="114.73808"></scales>
<clustering>
<clus scale="   89.493">  7  8 -1 -1</clus>
<clus scale="   90.264">  5  6 -1 -1</clus>
<clus scale="  114.738">  1  9  2 -1</clus>
<clus scale="  133.098">  2  7  1 -1</clus>
<clus scale="  114.738">  1  5  2 -1</clus>
</clustering>
</event>
<event>
 9    1  0.1321469E-005  0.2456481E+03  0.7546771E-02  0.1116410E+00
         21   -1    0    0  501  502  0.00000000000E+00  0.00000000000E+00  0.41137909004E+03  0.41137909004E+03  0.00000000000E+00 0. -1.
          2   -1    0    0  502    0 -0.00000000000E+00 -0.00000000000E+00 -0.22386478723E+03  0.22386478723E+03  0.00000000000E+00 0. -1.
         23    2    1    2    0    0  0.16406467590E+03 -0.14125387779E+03  0.43092370812E+02  0.23985488386E+03  0.93827165691E+02 0.  0.
         23    2    1    2    0    0 -0.11377674142E+03  0.22148727041E+03  0.65826358792E+02  0.27232991096E+03  0.88480014969E+02 0.  0.
        -11    1    3    3    0    0  0.97495328760E+02 -0.79309826078E+02 -0.22574802351E+02  0.12769106995E+03  0.00000000000E+00 0. -1.
         11    1    3    3    0    0  0.66569347135E+02 -0.61944051710E+02  0.65667173163E+02  0.11216381391E+03  0.00000000000E+00 0.  1.
        -11    1    4    4    0    0 -0.65952115004E+02  0.10219015599E+03  0.75974341148E+02  0.14340366093E+03  0.00000000000E+00 0. -1.
         11    1    4    4    0    0 -0.47824626420E+02  0.11929711442E+03 -0.10147982356E+02  0.12892625003E+03  0.00000000000E+00 0.  1.
          2    1    1    2  501    0 -0.50287934471E+02 -0.80233392623E+02  0.78595573209E+02  0.12305908245E+03  0.00000000000E+00 0. -1.
<scales pt_clust_5="13000.00000" pt_clust_6="13000.00000" pt_clust_7="13000.00000" pt_clust_8="13000.00000" pt_clust_9="94.69041"></scales>
<clustering>
<clus scale="   88.480">  7  8 -1 -1</clus>
<clus scale="   93.827">  5  6 -1 -1</clus>
<clus scale="   94.690">  1  9  2 -1</clus>
<clus scale="  243.656">  1  7  2 -1</clus>
<clus scale="   94.690">  1  5  2 -1</clus>
</clustering>
</event>
<event>
 9    1  0.1321469E-005  0.1043138E+03  0.7546771E-02  0.1271587E+00
         21   -1    0    0  501  502  0.00000000000E+00  0.00000000000E+00  0.28057132038E+03  0.28057132038E+03  0.00000000000E+00 0.  1.
         -1   -1    0    0    0  501 -0.00000000000E+00 -0.00000000000E+00 -0.13219279220E+03  0.13219279220E+03  0.00000000000E+00 0.  1.
         23    2    1    2    0    0 -0.46048016382E+02 -0.30904577186E+02 -0.65803017358E+02  0.12539412254E+03  0.91203816648E+02 0.  0.
         23    2    1    2    0    0  0.19977409029E+02  0.35945035441E+02  0.34963984141E+02  0.10619599328E+03  0.91454722996E+02 0.  0.
        -11    1    4    4    0    0  0.41884967944E+02  0.34733726659E+02 -0.10772284035E+02  0.55469130250E+02  0.00000000000E+00 0.  1.
         11    1    4    4    0    0 -0.21907558915E+02  0.12113087815E+01  0.45736268177E+02  0.50726863034E+02  0.00000000000E+00 0. -1.
        -11    1    3    3    0    0 -0.53768870053E+02  0.10372675608E+02 -0.62758846498E+02  0.83290795408E+02  0.00000000000E+00 0.  1.
         11    1    3    3    0    0  0.77208536707E+01 -0.41277252794E+02 -0.30441708598E+01  0.42103327135E+02  0.00000000000E+00 0. -1.
         -1    1    1    2    0  502  0.26070607353E+02 -0.50404582550E+01  0.17921756139E+03  0.18117399675E+03  0.00000000000E+00 0.  1.
<scales pt_clust_5="13000.00000" pt_clust_6="13000.00000" pt_clust_7="13000.00000" pt_clust_8="13000.00000" pt_clust_9="26.55340"></scales>
<clustering>
<clus scale="   26.553">  1  9  2 -1</clus>
<clus scale="   91.204">  7  8 -1 -1</clus>
<clus scale="   91.455">  5  6 -1 -1</clus>
<clus scale="  104.094">  2  7  1 -1</clus>
<clus scale="   26.553">  1  5  2 -1</clus>
</clustering>
</event>
<event>
 9    1  0.1321469E-005  0.1117840E+03  0.7546771E-02  0.1257607E+00
          3   -1    0    0  502    0 -0.00000000000E+00  0.00000000000E+00  0.42269170748E+03  0.42269170748E+03  0.00000000000E+00 0. -1.
         21   -1    0    0  501  502  0.00000000000E+00 -0.00000000000E+00 -0.55681875820E+02  0.55681875820E+02  0.00000000000E+00 0.  1.
         23    2    1    2    0    0  0.23177785149E+02 -0.55215151259E+02  0.27785116925E+03  0.29812492241E+03  0.89951511688E+02 0.  0.
         23    2    1    2    0    0 -0.42359322131E+02  0.69560379487E+02  0.96143761369E+02  0.15529853982E+03  0.90780256963E+02 0.  0.
        -11    1    3    3    0    0  0.28661034060E+02 -0.78752550595E+02  0.21053159964E+03  0.22659870597E+03  0.00000000000E+00 0. -1.
         11    1    3    3    0    0 -0.54832489114E+01  0.23537399336E+02  0.67319569609E+02  0.71526216442E+02  0.00000000000E+00 0.  1.
        -13    1    4    4    0    0 -0.61150600908E+02  0.14887183270E+02  0.39170345236E+02  0.74130561599E+02  0.00000000000E+00 0. -1.
         13    1    4    4    0    0  0.18791278777E+02  0.54673196217E+02  0.56973416133E+02  0.81167978221E+02  0.00000000000E+00 0.  1.
          3    1    1    2  501    0  0.19181536983E+02 -0.14345228229E+02 -0.69850989587E+01  0.24950121070E+02  0.00000000000E+00 0. -1.
<scales pt_clust_5="13000.00000" pt_clust_6="13000.00000" pt_clust_7="13000.00000" pt_clust_8="13000.00000" pt_clust_9="23.95239"></scales>
<clustering>
<clus scale="   23.952">  2  9  1 -1</clus>
<clus scale="   89.952">  5  6 -1 -1</clus>
<clus scale="   90.780">  7  8 -1 -1</clus>
<clus scale="  111.112">  1  5  2 -1</clus>
<clus scale="   23.952">  2  5  1 -1</clus>
</clustering>
</event>
<event>
 9    1  0.1321469E-005  0.9436392E+02  0.7546771E-02  0.1293451E+00
          1   -1    0    0  502    0 -0.00000000000E+00  0.00000000000E+00  0.47344857043E+03  0.47344857043E+03  0.00000000000E+00 0. -1.
         21   -1    0    0  501  502  0.00000000000E+00 -0.00000000000E+00 -0.28134390249E+02  0.28134390249E+02  0.00000000000E+00 0.  1.
         23    2    1    2    0    0  0.57100444698E+01 -0.32152720828E+02  0.27965856781E+03  0.29565670301E+03  0.90208477566E+02 0.  0.
         23    2    1    2    0    0 -0.61403619160E+00  0.20611515856E+01  0.12119662782E+03  0.15199970440E+03  0.91709662280E+02 0.  0.
        -11    1    4    4    0    0  0.20650962306E+02  0.84148793375E+01  0.12709410869E+03  0.12903559549E+03  0.00000000000E+00 0. -1.
         11    1    4    4    0    0 -0.21264998498E+02 -0.63537277519E+01 -0.58974808709E+01  0.22964108911E+02  0.00000000000E+00 0.  1.
        -11    1    3    3    0    0  0.45033461813E+02 -0.10795655609E+02  0.18852534677E+03  0.19412976391E+03  0.00000000000E+00 0. -1.
         11    1    3    3    0    0 -0.39323417343E+02 -0.21357065220E+02  0.91133221040E+02  0.10152693910E+03  0.00000000000E+00 0.  1.
          1    1    1    2  501    0 -0.50960082782E+01  0.30091569243E+02  0.44458984556E+02  0.53926553270E+02  0.00000000000E+00 0. -1.
<scales pt_clust_5="13000.00000" pt_clust_6="13000.00000" pt_clust_7="13000.00000" pt_clust_8="13000.00000" pt_clust_9="30.52002"></scales>
<clustering>
<clus scale="   30.520">  2  9  1 -1</clus>
<clus scale="   90.208">  7  8 -1 -1</clus>
<clus scale="   91.710">  5  6 -1 -1</clus>
<clus scale="   92.906">  1  7  2 -1</clus>
<clus scale="   30.520">  2  5  1 -1</clus>
</clustering>
</event>
<event>
 9    1  0.1321469E-005  0.1032778E+03  0.7546771E-02  0.1278879E+00
          2   -1    0    0  502    0 -0.00000000000E+00  0.00000000000E+00  0.59389013421E+03  0.59389013421E+03  0.00000000000E+00 0. -1.
         21   -1    0    0  501  502  0.00000000000E+00 -0.00000000000E+00 -0.29741174455E+02  0.29741174455E+02  0.00000000000E+00 0.  1.
         23    2    1    2    0    0  0.12296629557E+02  0.86628358796E+01  0.30580650288E+03  0.32205191181E+03  0.99867736873E+02 0.  0.
         23    2    1    2    0    0 -0.40188291470E+02 -0.46787107068E+01  0.25494421925E+03  0.27320042442E+03  0.89470262487E+02 0.  0.
        -11    1    3    3    0    0 -0.35996212695E+02  0.17282768552E+02  0.21657087965E+03  0.22022117821E+03  0.00000000000E+00 0.  1.
         11    1    3    3    0    0  0.48292842252E+02 -0.86199326721E+01  0.89235623233E+02  0.10183073360E+03  0.00000000000E+00 0. -1.
        -11    1    4    4    0    0 -0.48323381487E+02 -0.34198993793E+02  0.21421329600E+03  0.22224323737E+03  0.00000000000E+00 0.  1.
         11    1    4    4    0    0  0.81350900171E+01  0.29520283086E+02  0.40730923251E+02  0.50957187049E+02  0.00000000000E+00 0. -1.
          2    1    1    2  501    0  0.27891661913E+02 -0.39841251728E+01  0.33982376206E+01  0.28378972438E+02  0.00000000000E+00 0. -1.
<scales pt_clust_5="13000.00000" pt_clust_6="13000.00000" pt_clust_7="13000.00000" pt_clust_8="13000.00000" pt_clust_9="28.17478"></scales>
<clustering>
<clus scale="   28.175">  2  9  1 -1</clus>
<clus scale="   89.470">  7  8 -1 -1</clus>
<clus scale="   93.261">  2  7  1 -1</clus>
<clus scale="   99.868">  5  6 -1 -1</clus>
<clus scale="   28.175">  2  5  1 -1</clus>
</clustering>
</event>
<event>
 9    1  0.1321469E-005  0.9653147E+02  0.7546771E-02  0.1288005E+00
          1   -1    0    0  502    0 -0.00000000000E+00  0.00000000000E+00  0.35418657710E+03  0.35418657710E+03  0.00000000000E+00 0. -1.
         21   -1    0    0  501  502  0.00000000000E+00 -0.00000000000E+00 -0.42196517996E+02  0.42196517996E+02  0.00000000000E+00 0.  1.
         23    2    1    2    0    0 -0.11092002002E+02 -0.15147223153E+02  0.15567207576E+03  0.18167267504E+03  0.91753445761E+02 0.  0.
         23    2    1    2    0    0  0.47317156363E+02  0.17943158463E+02  0.87216921354E+02  0.13663970960E+03  0.92210349996E+02 0.  0.
        -13    1    4    4    0    0  0.21153922924E+02 -0.24184686935E+02 -0.44311668742E+01  0.32434900602E+02  0.00000000000E+00 0.  1.
         13    1    4    4    0    0  0.26163233439E+02  0.42127845397E+02  0.91648088228E+02  0.10420480899E+03  0.00000000000E+00 0. -1.
        -13    1    3    3    0    0  0.40452041086E+02 -0.40744582863E+01  0.60906805348E+02  0.73229828458E+02  0.00000000000E+00 0.  1.
         13    1    3    3    0    0 -0.51544043088E+02 -0.11072764867E+02  0.94765270409E+02  0.10844284658E+03  0.00000000000E+00 0. -1.
          1    1    1    2  501    0 -0.36225154361E+02 -0.27959353096E+01  0.69101061990E+02  0.78070710454E+02  0.00000000000E+00 0. -1.
<scales pt_clust_5="13000.00000" pt_clust_6="13000.00000" pt_clust_7="13000.00000" pt_clust_8="13000.00000" pt_clust_9="36.33291"></scales>
<clustering>
<clus scale="   36.333">  2  9  1 -1</clus>
<clus scale="   91.753">  7  8 -1 -1</clus>
<clus scale="   92.210">  5  6 -1 -1</clus>
<clus scale="   96.095">  1  7  2 -1</clus>
<clus scale="   36.333">  2  5  1 -1</clus>
</clustering>
</event>
<event>
 9    1  0.1321469E-005  0.2175115E+03  0.7546771E-02  0.1153115E+00
          2   -1    0    0  502    0 -0.00000000000E+00  0.00000000000E+00  0.55957161769E+03  0.55957161769E+03  0.00000000000E+00 0. -1.
         21   -1    0    0  501  502  0.00000000000E+00 -0.00000000000E+00 -0.14776345803E+03  0.14776345803E+03  0.00000000000E+00 0. -1.
         23    2    1    2    0    0 -0.11118558106E+02  0.11047374905E+03  0.94613677210E+02  0.17193172119E+03  0.90998336653E+02 0.  0.
         23    2    1    2    0    0 -0.16923580962E+03 -0.14546992024E+03  0.20830323444E+03  0.32183899923E+03  0.10192078785E+03 0.  0.
        -13    1    4    4    0    0  0.65684239162E+01 -0.35138837647E+02  0.17064700318E+02  0.39611691467E+02  0.00000000000E+00 0.  1.
         13    1    4    4    0    0 -0.17580423354E+03 -0.11033108259E+03  0.19123853412E+03  0.28222730777E+03  0.00000000000E+00 0. -1.
        -13    1    3    3    0    0  0.24324206301E+02  0.62907014353E+02  0.89952427418E+02  0.11242952755E+03  0.00000000000E+00 0. -1.
         13    1    3    3    0    0 -0.35442764407E+02  0.47566734696E+02  0.46612497917E+01  0.59502193641E+02  0.00000000000E+00 0.  1.
          2    1    1    2  501    0  0.18035436773E+03  0.34996171189E+02  0.10889124802E+03  0.21356435529E+03  0.00000000000E+00 0. -1.
<scales pt_clust_5="13000.00000" pt_clust_6="13000.00000" pt_clust_7="13000.00000" pt_clust_8="13000.00000" pt_clust_9="192.15461"></scales>
<clustering>
<clus scale="   90.998">  7  8 -1 -1</clus>
<clus scale="  101.921">  5  6 -1 -1</clus>
<clus scale="  143.558">  1  7  2 -1</clus>
<clus scale="  192.155">  2  9  1 -1</clus>
<clus scale="  192.155">  2  5  1 -1</clus>
</clustering>
</event>
<event>
 9    1  0.1321469E-005  0.9613625E+02  0.7546771E-02  0.1288651E+00
         21   -1    0    0  501  502  0.00000000000E+00  0.00000000000E+00  0.46072351968E+02  0.46072351968E+02  0.00000000000E+00 0.  1.
         -1   -1    0    0    0  501 -0.00000000000E+00 -0.00000000000E+00 -0.48900897441E+03  0.48900897441E+03  0.00000000000E+00 0.  1.
         23    2    1    2    0    0 -0.40311651393E+01  0.55371948609E+01 -0.16657896388E+03  0.19003157426E+03  0.91195050254E+02 0.  0.
         23    2    1    2    0    0  0.19872076011E+02 -0.79861630562E+02 -0.12274446968E+03  0.17366694085E+03  0.91220732647E+02 0.  0.
        -11    1    3    3    0    0 -0.58483393383E+01 -0.40037748413E+02 -0.11092851019E+03  0.11807776566E+03  0.00000000000E+00 0.  1.
         11    1    3    3    0    0  0.18171741990E+01  0.45574943274E+02 -0.55650453694E+02  0.71953808606E+02  0.00000000000E+00 0. -1.
        -13    1    4    4    0    0  0.44170830441E+02 -0.51448659033E+02 -0.30924586866E+02  0.74527557661E+02  0.00000000000E+00 0.  1.
         13    1    4    4    0    0 -0.24298754429E+02 -0.28412971529E+02 -0.91819882819E+02  0.99139383187E+02  0.00000000000E+00 0. -1.
         -1    1    1    2    0  502 -0.15840910872E+02  0.74324435701E+02 -0.15361318887E+03  0.17138281126E+03  0.00000000000E+00 0.  1.
<scales pt_clust_5="13000.00000" pt_clust_6="13000.00000" pt_clust_7="13000.00000" pt_clust_8="13000.00000" pt_clust_9="75.99383"></scales>
<clustering>
<clus scale="   75.994">  1  9  2 -1</clus>
<clus scale="   91.195">  5  6 -1 -1</clus>
<clus scale="   91.221">  7  8 -1 -1</clus>
<clus scale="   96.112">  2  5  1 -1</clus>
<clus scale="   75.994">  1  5  2 -1</clus>
</clustering>
</event>
<event>
 9    1  0.1321469E-005  0.9256334E+02  0.7546771E-02  0.1296792E+00
          1   -1    0    0  502    0 -0.00000000000E+00  0.00000000000E+00  0.59093284807E+03  0.59093284807E+03  0.00000000000E+00 0. -1.
         21   -1    0    0  501  502  0.00000000000E+00 -0.00000000000E+00 -0.30977136573E+02  0.30977136573E+02  0.00000000000E+00 0. -1.
         23    2    1    2    0    0  0.24125844741E+02  0.56141813707E+01  0.39654209908E+03  0.40741071650E+03  0.90134788830E+02 0.  0.
         23    2    1    2    0    0 -0.11044255025E+02  0.31091537655E+02  0.13766731491E+03  0.16779477549E+03  0.90078509117E+02 0.  0.
        -13    1    4    4    0    0  0.24953874318E+02 -0.18476179998E+02  0.69647312617E+02  0.76254922632E+02  0.00000000000E+00 0.  1.
         13    1    4    4    0    0 -0.35998129343E+02  0.49567717654E+02  0.68020002291E+02  0.91539852858E+02  0.00000000000E+00 0. -1.
        -13    1    3    3    0    0  0.55489307485E+01 -0.41267725423E+02  0.14482934537E+03  0.15069623444E+03  0.00000000000E+00 0.  1.
         13    1    3    3    0    0  0.18576913993E+02  0.46881906793E+02  0.25171275371E+03  0.25671448206E+03  0.00000000000E+00 0. -1.
          1    1    1    2  501    0 -0.13081589716E+02 -0.36705719026E+02  0.25746297508E+02  0.46704492654E+02  0.00000000000E+00 0. -1.
<scales pt_clust_5="13000.00000" pt_clust_6="13000.00000" pt_clust_7="13000.00000" pt_clust_8="13000.00000" pt_clust_9="38.96714"></scales>
<clustering>
<clus scale="   38.967">  2  9  1 -1</clus>
<clus scale="   90.079">  5  6 -1 -1</clus>
<clus scale="   90.135">  7  8 -1 -1</clus>
<clus scale="   92.509">  2  5  1 -1</clus>
<clus scale="   38.967">  2  5  1 -1</clus>
</clustering>
</event>
<event>
 9    1  0.1321469E-005  0.1330116E+03  0.7546771E-02  0.1223061E+00
         21   -1    0    0  501  502  0.00000000000E+00  0.00000000000E+00  0.34799390302E+03  0.34799390302E+03  0.00000000000E+00 0. -1.
          1   -1    0    0  502    0 -0.00000000000E+00 -0.00000000000E+00 -0.27558535066E+03  0.27558535066E+03  0.00000000000E+00 0. -1.
         23    2    1    2    0    0 -0.34350366828E+02  0.90955303528E+02 -0.20856186278E+03  0.24730268598E+03  0.90596649757E+02 0.  0.
         23    2    1    2    0    0  0.11621647608E+03 -0.57417919355E+02  0.14830851431E+03  0.21682125761E+03  0.90625358252E+02 0.  0.
        -13    1    3    3    0    0  0.15112483612E+02  0.70861336747E+02 -0.15777552357E+03  0.17361691174E+03  0.00000000000E+00 0. -1.
         13    1    3    3    0    0 -0.49462850440E+02  0.20093966780E+02 -0.50786339214E+02  0.73685774240E+02  0.00000000000E+00 0.  1.
        -13    1    4    4    0    0 -0.51199885508E+01 -0.33317048575E+02  0.40828006209E+02  0.52944934597E+02  0.00000000000E+00 0.  1.
         13    1    4    4    0    0  0.12133646463E+03 -0.24100870780E+02  0.10748050810E+03  0.16387632301E+03  0.00000000000E+00 0. -1.
          1    1    1    2  501    0 -0.81866109255E+02 -0.33537384172E+02  0.13266190084E+03  0.15945531009E+03  0.00000000000E+00 0. -1.
<scales pt_clust_5="13000.00000" pt_clust_6="13000.00000" pt_clust_7="13000.00000" pt_clust_8="13000.00000" pt_clust_9="88.46929"></scales>
<clustering>
<clus scale="   88.469">  1  9  2 -1</clus>
<clus scale="   90.597">  5  6 -1 -1</clus>
<clus scale="   90.625">  7  8 -1 -1</clus>
<clus scale="  132.992">  2  5  1 -1</clus>
<clus scale="   88.469">  1  5  2 -1</clus>
</clustering>
</event>
<event>
 9    1  0.1321469E-005  0.1073367E+03  0.7546771E-02  0.1266691E+00
         21   -1    0    0  501  502  0.00000000000E+00  0.00000000000E+00  0.23838822912E+03  0.23838822912E+03  0.00000000000E+00 0.  1.
          1   -1    0    0  502    0 -0.00000000000E+00 -0.00000000000E+00 -0.13815016202E+03  0.13815016202E+03  0.00000000000E+00 0. -1.
         23    2    1    2    0    0  0.15038190509E+02  0.51359672717E+02 -0.93772500951E+02  0.14064181516E+03  0.90126994188E+02 0.  0.
         23    2    1    2    0    0  0.57884304163E+01 -0.60767909240E+02  0.15498093368E+03  0.19066853807E+03  0.92785542449E+02 0.  0.
        -13    1    4    4    0    0  0.33732380626E+02 -0.72756413018E+02  0.10431915679E+03  0.13158212497E+03  0.00000000000E+00 0.  1.
         13    1    4    4    0    0 -0.27943950210E+02  0.11988503779E+02  0.50661776884E+02  0.59086413101E+02  0.00000000000E+00 0. -1.
        -13    1    3    3    0    0 -0.27057738595E+02  0.44567314422E+02 -0.20819087241E+02  0.56140904216E+02  0.00000000000E+00 0.  1.
         13    1    3    3    0    0  0.42095929104E+02  0.67923582943E+01 -0.72953413709E+02  0.84500910943E+02  0.00000000000E+00 0. -1.
          1    1    1    2  501    0 -0.20826620926E+02  0.94082365230E+01  0.39029634370E+02  0.45228037905E+02  0.00000000000E+00 0. -1.
<scales pt_clust_5="13000.00000" pt_clust_6="13000.00000" pt_clust_7="13000.00000" pt_clust_8="13000.00000" pt_clust_9="22.85308"></scales>
<clustering>
<clus scale="   22.853">  1  9  2 -1</clus>
<clus scale="   90.127">  7  8 -1 -1</clus>
<clus scale="   92.786">  5  6 -1 -1</clus>
<clus scale="  105.047">  2  7  1 -1</clus>
<clus scale="   22.853">  1  5  2 -1</clus>
</clustering>
</event>
<event>
 9    1  0.1321469E-005  0.1096814E+03  0.7546771E-02  0.1264264E+00
         -3   -1    0    0    0  501 -0.00000000000E+00  0.00000000000E+00  0.49246373414E+03  0.49246373414E+03  0.00000000000E+00 0.  1.
         21   -1    0    0  501  502  0.00000000000E+00 -0.00000000000E+00 -0.59628157089E+02  0.59628157089E+02  0.00000000000E+00 0. -1.
         23    2    1    2    0    0 -0.25922176027E+02 -0.58029802603E+02  0.41456308354E+03  0.42760332035E+03  0.83322458758E+02 0.  0.
         23    2    1    2    0    0  0.10415806837E+02  0.42495905898E+02  0.13878976625E+02  0.10210437058E+03  0.91204635025E+02 0.  0.
        -13    1    4    4    0    0 -0.29742302999E+02  0.91026623147E+01  0.34048588081E+02  0.46116910122E+02  0.00000000000E+00 0.  1.
         13    1    4    4    0    0  0.40158109836E+02  0.33393243583E+02 -0.20169611456E+02  0.55987460462E+02  0.00000000000E+00 0. -1.
        -13    1    3    3    0    0  0.15027823664E+02 -0.60395690954E+02  0.28439442882E+03  0.29112482909E+03  0.00000000000E+00 0.  1.
         13    1    3    3    0    0 -0.40949999692E+02  0.23658883502E+01  0.13016865472E+03  0.13647849125E+03  0.00000000000E+00 0. -1.
         -3    1    1    2    0  502  0.15506369190E+02  0.15533896705E+02  0.43935168799E+01  0.22384200296E+02  0.00000000000E+00 0.  1.
<scales pt_clust_5="13000.00000" pt_clust_6="13000.00000" pt_clust_7="13000.00000" pt_clust_8="13000.00000" pt_clust_9="21.94879"></scales>
<clustering>
<clus scale="   21.949">  2  9  1 -1</clus>
<clus scale="   83.322">  7  8 -1 -1</clus>
<clus scale="   91.205">  5  6 -1 -1</clus>
<clus scale="  103.220">  1  7  2 -1</clus>
<clus scale="   21.949">  2  5  1 -1</clus>
</clustering>
</event>
<event>
 9    1  0.1321469E-005  0.1182325E+03  0.7546771E-02  0.1246260E+00
         21   -1    0    0  501  502  0.00000000000E+00  0.00000000000E+00  0.28558176687E+03  0.28558176687E+03  0.00000000000E+00 0. -1.
          1   -1    0    0  502    0 -0.00000000000E+00 -0.00000000000E+00 -0.13109364821E+03  0.13109364821E+03  0.00000000000E+00 0. -1.
         23    2    1    2    0    0  0.45725741501E+02 -0.51277507091E+02 -0.58154057402E+02  0.12991956921E+03  0.93685505290E+02 0.  0.
         23    2    1    2    0    0 -0.76071167774E+02  0.41608270127E+02  0.79770952208E+02  0.15012092660E+03  0.93031269349E+02 0.  0.
        -11    1    4    4    0    0 -0.46253972512E+02  0.28371921647E+02  0.98533881663E+02  0.11248698479E+03  0.00000000000E+00 0.  1.
         11    1    4    4    0    0 -0.29817195262E+02  0.13236348480E+02 -0.18762929455E+02  0.37633941809E+02  0.00000000000E+00 0. -1.
        -11    1    3    3    0    0  0.71866681702E+02 -0.24313091290E+02 -0.51711838322E+02  0.91815361294E+02  0.00000000000E+00 0. -1.
         11    1    3    3    0    0 -0.26140940200E+02 -0.26964415802E+02 -0.64422190802E+01  0.38104207914E+02  0.00000000000E+00 0.  1.
          1    1    1    2  501    0  0.30345426272E+02  0.96692369640E+01  0.13287122385E+03  0.13663491928E+03  0.00000000000E+00 0. -1.
<scales pt_clust_5="13000.00000" pt_clust_6="13000.00000" pt_clust_7="13000.00000" pt_clust_8="13000.00000" pt_clust_9="31.84869"></scales>
<clustering>
<clus scale="   31.849">  1  9  2 -1</clus>
<clus scale="   93.031">  5  6 -1 -1</clus>
<clus scale="   93.686">  7  8 -1 -1</clus>
<clus scale="  117.715">  1  5  2 -1</clus>
<clus scale="   31.849">  1  5  2 -1</clus>
</clustering>
</event>
<event>
 9    1  0.1321469E-005  0.1047571E+03  0.7546771E-02  0.1272629E+00
          1   -1    0    0  502    0 -0.00000000000E+00  0.00000000000E+00  0.28616278002E+03  0.28616278002E+03  0.00000000000E+00 0. -1.
         21   -1    0    0  501  502  0.00000000000E+00 -0.00000000000E+00 -0.11121218752E+03  0.11121218752E+03  0.00000000000E+00 0. -1.
         23    2    1    2    0    0  0.56857685281E+02  0.12200086367E+01  0.16722130599E+03  0.19722982620E+03  0.87763058108E+02 0.  0.
         23    2    1    2    0    0 -0.34048590113E+02  0.27531882560E+02  0.72768700379E+02  0.12546548264E+03  0.92352544808E+02 0.  0.
        -11    1    4    4    0    0  0.11462323142E+02 -0.23888471298E+02  0.15609073875E+01  0.26542048614E+02  0.00000000000E+00 0.  1.
         11    1    4    4    0    0 -0.45510913255E+02  0.51420353858E+02  0.71207792991E+02  0.98923434022E+02  0.00000000000E+00 0. -1.
        -11    1    3    3    0    0  0.63146368030E+02 -0.25841423471E+02  0.14934643703E+03  0.16419379165E+03  0.00000000000E+00 0. -1.
         11    1    3    3    0    0 -0.62886827482E+01  0.27061432107E+02  0.17874868958E+02  0.33036034548E+02  0.00000000000E+00 0.  1.
          1    1    1    2  501    0 -0.22809095169E+02 -0.28751891197E+02 -0.65039413857E+02  0.74679658708E+02  0.00000000000E+00 0. -1.
<scales pt_clust_5="13000.00000" pt_clust_6="13000.00000" pt_clust_7="13000.00000" pt_clust_8="13000.00000" pt_clust_9="36.70049"></scales>
<clustering>
<clus scale="   36.700">  2  9  1 -1</clus>
<clus scale="   87.763">  7  8 -1 -1</clus>
<clus scale="   92.353">  5  6 -1 -1</clus>
<clus scale="  100.734">  1  7  2 -1</clus>
<clus scale="   36.700">  2  5  1 -1</clus>
</clustering>
</event>
<event>
 9    1  0.1321469E-005  0.1014911E+03  0.7546771E-02  0.1277446E+00
          1   -1    0    0  502    0 -0.00000000000E+00  0.00000000000E+00  0.53133144202E+03  0.53133144202E+03  0.00000000000E+00 0. -1.
         21   -1    0    0  501  502  0.00000000000E+00 -0.00000000000E+00 -0.46113580629E+02  0.46113580629E+02  0.00000000000E+00 0.  1.
         23    2    1    2    0    0  0.36251530061E+02  0.19446692744E+02  0.38313756884E+03  0.39594772023E+03  0.91037647188E+02 0.  0.
         23    2    1    2    0    0 -0.60923092857E+02 -0.68273311968E+01  0.10744983264E+03  0.15327025409E+03  0.90487947044E+02 0.  0.
        -11    1    3    3    0    0  0.26793318361E+02 -0.35285007976E+02  0.17645182941E+03  0.18192900208E+03  0.00000000000E+00 0.  1.
         11    1    3    3    0    0  0.94582116998E+01  0.54731700720E+02  0.20668573943E+03  0.21401871814E+03  0.00000000000E+00 0. -1.
        -13    1    4    4    0    0 -0.83461453255E+02 -0.11907789329E+02  0.95041167913E+02  0.12704500472E+03  0.00000000000E+00 0.  1.
         13    1    4    4    0    0  0.22538360398E+02  0.50804581319E+01  0.12408664730E+02  0.26225249372E+02  0.00000000000E+00 0. -1.
          1    1    1    2  501    0  0.24671562797E+02 -0.12619361547E+02 -0.53695400903E+01  0.28227048331E+02  0.00000000000E+00 0. -1.
<scales pt_clust_5="13000.00000" pt_clust_6="13000.00000" pt_clust_7="13000.00000" pt_clust_8="13000.00000" pt_clust_9="27.71163"></scales>
<clustering>
<clus scale="   27.712">  2  9  1 -1</clus>
<clus scale="   90.488">  7  8 -1 -1</clus>
<clus scale="   91.038">  5  6 -1 -1</clus>
<clus scale="  100.998">  2  7  1 -1</clus>
<clus scale="   27.712">  2  5  1 -1</clus>
</clustering>
</event>
<event>
 9    1  0.1321469E-005  0.9648745E+02  0.7546771E-02  0.1288165E+00
         21   -1    0    0  501  502  0.00000000000E+00  0.00000000000E+00  0.18827440451E+03  0.18827440451E+03  0.00000000000E+00 0.  1.
         -3   -1    0    0    0  501 -0.00000000000E+00 -0.00000000000E+00 -0.12202985887E+03  0.12202985887E+03  0.00000000000E+00 0.  1.
         23    2    1    2    0    0  0.11213066370E+02  0.23129428611E+02 -0.38333135407E+02  0.10308590188E+03  0.92176844004E+02 0.  0.
         23    2    1    2    0    0  0.91918622114E+01 -0.31328217301E+02 -0.20472939808E+01  0.98349327592E+02  0.92749400510E+02 0.  0.
        -11    1    3    3    0    0  0.49651196249E+02  0.26153877364E+02 -0.15274252976E+02  0.58159860678E+02  0.00000000000E+00 0. -1.
         11    1    3    3    0    0 -0.38438129880E+02 -0.30244487532E+01 -0.23058882431E+02  0.44926041200E+02  0.00000000000E+00 0.  1.
        -11    1    4    4    0    0 -0.53577982952E+01  0.31193322041E+02 -0.11061363615E+02  0.33527348650E+02  0.00000000000E+00 0. -1.
         11    1    4    4    0    0  0.14549660507E+02 -0.62521539342E+02  0.90140696338E+01  0.64821978941E+02  0.00000000000E+00 0.  1.
         -3    1    1    2    0  502 -0.20404928581E+02  0.81987886898E+01  0.10662497503E+03  0.10886903392E+03  0.00000000000E+00 0.  1.
<scales pt_clust_5="13000.00000" pt_clust_6="13000.00000" pt_clust_7="13000.00000" pt_clust_8="13000.00000" pt_clust_9="21.99048"></scales>
<clustering>
<clus scale="   21.990">  1  9  2 -1</clus>
<clus scale="   92.177">  5  6 -1 -1</clus>
<clus scale="   92.749">  7  8 -1 -1</clus>
<clus scale="   95.937">  2  5  1 -1</clus>
<clus scale="   21.990">  1  5  2 -1</clus>
</clustering>
</event>
<event>
 9    1  0.1321469E-005  0.1053410E+03  0.7546771E-02  0.1272013E+00
         21   -1    0    0  501  502  0.00000000000E+00  0.00000000000E+00  0.31287711692E+02  0.31287711692E+02  0.00000000000E+00 0. -1.
         -1   -1    0    0    0  501 -0.00000000000E+00 -0.00000000000E+00 -0.53848583686E+03  0.53848583686E+03  0.00000000000E+00 0.  1.
         23    2    1    2    0    0 -0.27549359629E+02 -0.37455419715E+02 -0.25756027888E+03  0.27782629814E+03  0.93210938191E+02 0.  0.
         23    2    1    2    0    0  0.88217084881E+01  0.57513549244E+02 -0.12010534788E+03  0.15953984268E+03  0.87418738994E+02 0.  0.
        -13    1    3    3    0    0 -0.47020467919E+02 -0.24362249007E+02 -0.24606267984E+03  0.25169681362E+03  0.00000000000E+00 0.  1.
         13    1    3    3    0    0  0.19471108290E+02 -0.13093170708E+02 -0.11497599044E+02  0.26129484515E+02  0.00000000000E+00 0. -1.
        -13    1    4    4    0    0 -0.28938400397E+02  0.29922386700E+02 -0.10059378747E+03  0.10886638747E+03  0.00000000000E+00 0.  1.
         13    1    4    4    0    0  0.37760108886E+02  0.27591162544E+02 -0.19511560407E+02  0.50673455212E+02  0.00000000000E+00 0. -1.
         -1    1    1    2    0  502  0.18727651141E+02 -0.20058129529E+02 -0.12953249841E+03  0.13240740773E+03  0.00000000000E+00 0.  1.
<scales pt_clust_5="13000.00000" pt_clust_6="13000.00000" pt_clust_7="13000.00000" pt_clust_8="13000.00000" pt_clust_9="27.44183"></scales>
<clustering>
<clus scale="   27.442">  1  9  2 -1</clus>
<clus scale="   87.419">  7  8 -1 -1</clus>
<clus scale="   93.211">  5  6 -1 -1</clus>
<clus scale="  100.252">  1  7  2 -1</clus>
<clus scale="   27.442">  1  5  2 -1</clus>
</clustering>
</event>
<event>
 9    1  0.1321469E-005  0.9756181E+02  0.7546771E-02  0.1288836E+00
         21   -1    0    0  501  502  0.00000000000E+00  0.00000000000E+00  0.12033446893E+03  0.12033446893E+03  0.00000000000E+00 0.  1.
          1   -1    0    0  502    0 -0.00000000000E+00 -0.00000000000E+00 -0.16340101536E+03  0.16340101536E+03  0.00000000000E+00 0. -1.
         23    2    1    2    0    0 -0.56539995398E+01 -0.18686810819E+02 -0.29145034644E+02  0.97114625227E+02  0.90557455680E+02 0.  0.
         23    2    1    2    0    0 -0.49113893368E+02 -0.22946696849E+02  0.15490651086E+02  0.11180143392E+03  0.96544678457E+02 0.  0.
        -11    1    4    4    0    0 -0.11777341275E+01 -0.25283908181E+02  0.47701656811E+02  0.54001029000E+02  0.00000000000E+00 0.  1.
         11    1    4    4    0    0 -0.47936159240E+02  0.23372113318E+01 -0.32211005725E+02  0.57800404924E+02  0.00000000000E+00 0. -1.
        -13    1    3    3    0    0 -0.44122073092E+02 -0.90228001315E+01  0.42898326460E+01  0.45239041991E+02  0.00000000000E+00 0.  1.
         13    1    3    3    0    0  0.38468073552E+02 -0.96640106876E+01 -0.33434867290E+02  0.51875583236E+02  0.00000000000E+00 0. -1.
          1    1    1    2  501    0  0.54767892907E+02  0.41633507668E+02 -0.29412162866E+02  0.74819425143E+02  0.00000000000E+00 0. -1.
<scales pt_clust_5="13000.00000" pt_clust_6="13000.00000" pt_clust_7="13000.00000" pt_clust_8="13000.00000" pt_clust_9="68.79590"></scales>
<clustering>
<clus scale="   68.796">  1  9  2 -1</clus>
<clus scale="   90.557">  7  8 -1 -1</clus>
<clus scale="   91.641">  2  7  1 -1</clus>
<clus scale="   96.545">  5  6 -1 -1</clus>
<clus scale="   68.796">  1  5  2 -1</clus>
</clustering>
</event>
<event>
 9    1  0.1321469E-005  0.1165851E+03  0.7546771E-02  0.1250068E+00
          1   -1    0    0  502    0 -0.00000000000E+00  0.00000000000E+00  0.77640286913E+03  0.77640286913E+03  0.00000000000E+00 0. -1.
         21   -1    0    0  501  502  0.00000000000E+00 -0.00000000000E+00 -0.63607199334E+02  0.63607199334E+02  0.00000000000E+00 0. -1.
         23    2    1    2    0    0  0.25346053146E+02 -0.60688073930E+02  0.44587830692E+03  0.45933848978E+03  0.88650543621E+02 0.  0.
         23    2    1    2    0    0 -0.12998485061E+03  0.37264341639E+02  0.17239348357E+03  0.23772853783E+03  0.92253194955E+02 0.  0.
        -11    1    3    3    0    0 -0.19328694202E+02 -0.61515701899E+02  0.22898918513E+03  0.23789457099E+03  0.00000000000E+00 0. -1.
         11    1    3    3    0    0  0.44674747348E+02  0.82762796937E+00  0.21688912179E+03  0.22144391879E+03  0.00000000000E+00 0.  1.
        -13    1    4    4    0    0 -0.96670108783E+02  0.96359905015E+01  0.52856049519E+02  0.11059712571E+03  0.00000000000E+00 0. -1.
         13    1    4    4    0    0 -0.33314741824E+02  0.27628351138E+02  0.11953743405E+03  0.12713141212E+03  0.00000000000E+00 0.  1.
          1    1    1    2  501    0  0.10463879746E+03  0.23423732290E+02  0.94523879317E+02  0.14294304086E+03  0.00000000000E+00 0. -1.
<scales pt_clust_5="13000.00000" pt_clust_6="13000.00000" pt_clust_7="13000.00000" pt_clust_8="13000.00000" pt_clust_9="107.22849"></scales>
<clustering>
<clus scale="   88.651">  5  6 -1 -1</clus>
<clus scale="   92.253">  7  8 -1 -1</clus>
<clus scale="  107.228">  2  9  1 -1</clus>
<clus scale="  113.756">  1  5  2 -1</clus>
<clus scale="  107.228">  2  5  1 -1</clus>
</clustering>
</event>
<event>
 9    1  0.1321469E-005  0.9248696E+02  0.7546771E-02  0.1297976E+00
          2   -1    0    0  502    0 -0.00000000000E+00  0.00000000000E+00  0.39070934445E+03  0.39070934445E+03  0.00000000000E+00 0. -1.
         21   -1    0    0  501  502  0.00000000000E+00 -0.00000000000E+00 -0.69431946737E+02  0.69431946737E+02  0.00000000000E+00 0. -1.
         23    2    1    2    0    0 -0.12705199528E+02  0.26361292465E+02  0.18484932358E+03  0.20774664513E+03  0.90183459123E+02 0.  0.
         23    2    1    2    0    0  0.63931383176E+01  0.34593492166E+02  0.15906334494E+03  0.18706713752E+03  0.91953163707E+02 0.  0.
        -11    1    4    4    0    0  0.25291177967E+01 -0.27099320934E+02  0.91641639985E+02  0.95597906939E+02  0.00000000000E+00 0.  1.
         11    1    4    4    0    0  0.38640205209E+01  0.61692813100E+02  0.67421704958E+02  0.91469230577E+02  0.00000000000E+00 0. -1.
        -13    1    3    3    0    0 -0.31704722341E+02  0.36987661338E+02  0.17856104804E+03  0.18508734259E+03  0.00000000000E+00 0. -1.
         13    1    3    3    0    0  0.18999522813E+02 -0.10626368873E+02  0.62882755476E+01  0.22659302547E+02  0.00000000000E+00 0.  1.
          2    1    1    2  501    0  0.63120612107E+01 -0.60954784631E+02 -0.22635270819E+02  0.65327508534E+02  0.00000000000E+00 0. -1.
<scales pt_clust_5="13000.00000" pt_clust_6="13000.00000" pt_clust_7="13000.00000" pt_clust_8="13000.00000" pt_clust_9="61.28073"></scales>
<clustering>
<clus scale="   61.281">  2  9  1 -1</clus>
<clus scale="   90.183">  7  8 -1 -1</clus>
<clus scale="   90.728">  1  7  2 -1</clus>
<clus scale="   91.953">  5  6 -1 -1</clus>
<clus scale="   61.281">  2  5  1 -1</clus>
</clustering>
</event>
<event>
 9    1  0.1321469E-005  0.1152564E+03  0.7546771E-02  0.1251572E+00
         -3   -1    0    0    0  501 -0.00000000000E+00  0.00000000000E+00  0.35815524075E+02  0.35815524075E+02  0.00000000000E+00 0.  1.
         21   -1    0    0  501  502  0.00000000000E+00 -0.00000000000E+00 -0.64710051759E+03  0.64710051759E+03  0.00000000000E+00 0.  1.
         23    2    1    2    0    0  0.57578616842E+02  0.10914744018E+02 -0.13923680712E+03  0.17597604357E+03  0.90256582575E+02 0.  0.
         23    2    1    2    0    0 -0.10346786525E+03 -0.13767217837E+02 -0.38112949841E+03  0.40505689081E+03  0.88973337609E+02 0.  0.
        -13    1    3    3    0    0  0.60930534218E+02 -0.24992608189E+02 -0.60737703486E+02  0.89589224179E+02  0.00000000000E+00 0.  1.
         13    1    3    3    0    0 -0.33519173760E+01  0.35907352207E+02 -0.78499103635E+02  0.86386819389E+02  0.00000000000E+00 0. -1.
        -13    1    4    4    0    0 -0.67213515556E+02  0.30072854899E+02 -0.15095845875E+03  0.16795978549E+03  0.00000000000E+00 0.  1.
         13    1    4    4    0    0 -0.36254349694E+02 -0.43840072735E+02 -0.23017103966E+03  0.23709710532E+03  0.00000000000E+00 0. -1.
         -3    1    1    2    0  502  0.45889248408E+02  0.28524738184E+01 -0.90918687986E+02  0.10188310729E+03  0.00000000000E+00 0.  1.
<scales pt_clust_5="13000.00000" pt_clust_6="13000.00000" pt_clust_7="13000.00000" pt_clust_8="13000.00000" pt_clust_9="45.97784"></scales>
<clustering>
<clus scale="   45.978">  2  9  1 -1</clus>
<clus scale="   88.973">  7  8 -1 -1</clus>
<clus scale="   90.257">  5  6 -1 -1</clus>
<clus scale="  114.254">  2  7  1 -1</clus>
<clus scale="   45.978">  2  5  1 -1</clus>
</clustering>
</event>
<event>
 9    1  0.1321469E-005  0.1054580E+03  0.7546771E-02  0.1270372E+00
          1   -1    0    0  502    0 -0.00000000000E+00  0.00000000000E+00  0.49537665407E+03  0.49537665407E+03  0.00000000000E+00 0. -1.
         21   -1    0    0  501  502  0.00000000000E+00 -0.00000000000E+00 -0.28099274413E+02  0.28099274413E+02  0.00000000000E+00 0.  1.
         23    2    1    2    0    0 -0.30346775877E+02  0.24835220267E+02  0.19963129584E+03  0.22246738889E+03  0.90007610065E+02 0.  0.
         23    2    1    2    0    0  0.48137942681E+02 -0.42228366464E+02  0.21235602456E+03  0.24037820227E+03  0.92661224363E+02 0.  0.
        -11    1    4    4    0    0  0.69654124644E+02 -0.44607077025E+02  0.19750762155E+03  0.21412787995E+03  0.00000000000E+00 0. -1.
         11    1    4    4    0    0 -0.21516181962E+02  0.23787105615E+01  0.14848403012E+02  0.26250322325E+02  0.00000000000E+00 0.  1.
        -13    1    3    3    0    0 -0.39674279870E+02  0.37450846577E+01  0.19489225820E+03  0.19892477586E+03  0.00000000000E+00 0.  1.
         13    1    3    3    0    0  0.93275039931E+01  0.21090135610E+02  0.47390376369E+01  0.23542613034E+02  0.00000000000E+00 0. -1.
          1    1    1    2  501    0 -0.17791166804E+02  0.17393146197E+02  0.55290059258E+02  0.60630337320E+02  0.00000000000E+00 0. -1.
<scales pt_clust_5="13000.00000" pt_clust_6="13000.00000" pt_clust_7="13000.00000" pt_clust_8="13000.00000" pt_clust_9="24.88067"></scales>
<clustering>
<clus scale="   24.881">  2  9  1 -1</clus>
<clus scale="   90.008">  7  8 -1 -1</clus>
<clus scale="   92.661">  5  6 -1 -1</clus>
<clus scale="  103.134">  1  7  2 -1</clus>
<clus scale="   24.881">  2  5  1 -1</clus>
</clustering>
</event>
<event>
 9    1  0.1321469E-005  0.9460435E+02  0.7546771E-02  0.1293038E+00
         -4   -1    0    0    0  501 -0.00000000000E+00  0.00000000000E+00  0.31869825202E+03  0.31869825202E+03  0.00000000000E+00 0.  1.
         21   -1    0    0  501  502  0.00000000000E+00 -0.00000000000E+00 -0.59318897459E+02  0.59318897459E+02  0.00000000000E+00 0. -1.
         23    2    1    2    0    0  0.22017101602E+02  0.68701662230E+01  0.20955432244E+03  0.23005349287E+03  0.92084980204E+02 0.  0.
         23    2    1    2    0    0 -0.20929367605E+02  0.14702627022E+02  0.70999109857E+02  0.11771617503E+03  0.90343890741E+02 0.  0.
        -11    1    4    4    0    0 -0.48245181111E+02  0.89825799784E-01  0.72059791081E+02  0.86719196605E+02  0.00000000000E+00 0.  1.
         11    1    4    4    0    0  0.27315813506E+02  0.14612801222E+02 -0.10606812238E+01  0.30996978428E+02  0.00000000000E+00 0. -1.
        -13    1    3    3    0    0 -0.17582785637E+02  0.27296512748E+02  0.16063370418E+03  0.16388239953E+03  0.00000000000E+00 0. -1.
         13    1    3    3    0    0  0.39599887238E+02 -0.20426346525E+02  0.48920618265E+02  0.66171093334E+02  0.00000000000E+00 0.  1.
         -4    1    1    2    0  502 -0.10877339964E+01 -0.21572793245E+02 -0.21174077740E+02  0.30247481577E+02  0.00000000000E+00 0.  1.
<scales pt_clust_5="13000.00000" pt_clust_6="13000.00000" pt_clust_7="13000.00000" pt_clust_8="13000.00000" pt_clust_9="21.60020"></scales>
<clustering>
<clus scale="   21.600">  2  9  1 -1</clus>
<clus scale="   90.344">  5  6 -1 -1</clus>
<clus scale="   92.085">  7  8 -1 -1</clus>
<clus scale="   92.910">  2  5  1 -1</clus>
<clus scale="   21.600">  2  5  1 -1</clus>
</clustering>
</event>
<event>
 9    1  0.1321469E-005  0.2330902E+03  0.7546771E-02  0.1125297E+00
          2   -1    0    0  502    0 -0.00000000000E+00  0.00000000000E+00  0.10795829303E+04  0.10795829303E+04  0.00000000000E+00 0. -1.
         21   -1    0    0  501  502  0.00000000000E+00 -0.00000000000E+00 -0.60625480711E+02  0.60625480711E+02  0.00000000000E+00 0.  1.
         23    2    1    2    0    0  0.23955642754E+02  0.22754716654E+03  0.62307285884E+03  0.67126339344E+03  0.10011578358E+03 0.  0.
         23    2    1    2    0    0 -0.14252742144E+02 -0.18579784521E+03  0.30261675109E+03  0.36629979350E+03  0.88739285190E+02 0.  0.
        -11    1    4    4    0    0 -0.50857959243E+02 -0.88985864772E+02  0.16195670774E+03  0.19166374548E+03  0.00000000000E+00 0. -1.
         11    1    4    4    0    0  0.36605217099E+02 -0.96811980434E+02  0.14066004335E+03  0.17463604802E+03  0.00000000000E+00 0.  1.
        -13    1    3    3    0    0 -0.44960748509E+01  0.20649308856E+03  0.45768618493E+03  0.50213171000E+03  0.00000000000E+00 0.  1.
         13    1    3    3    0    0  0.28451717605E+02  0.21054077982E+02  0.16538667391E+03  0.16913168344E+03  0.00000000000E+00 0. -1.
          2    1    1    2  501    0 -0.97029006101E+01 -0.41749321334E+02  0.93267839697E+02  0.10264522412E+03  0.00000000000E+00 0. -1.
<scales pt_clust_5="13000.00000" pt_clust_6="13000.00000" pt_clust_7="13000.00000" pt_clust_8="13000.00000" pt_clust_9="42.86203"></scales>
<clustering>
<clus scale="   42.862">  2  9  1 -1</clus>
<clus scale="   88.739">  5  6 -1 -1</clus>
<clus scale="  100.116">  7  8 -1 -1</clus>
<clus scale="  228.435">  2  5  1 -1</clus>
<clus scale="   42.862">  2  5  1 -1</clus>
</clustering>
</event>
<event>
 9    1  0.1321469E-005  0.1405619E+03  0.7546771E-02  0.1231910E+00
         21   -1    0    0  501  502  0.00000000000E+00  0.00000000000E+00  0.24692666426E+03  0.24692666426E+03  0.00000000000E+00 0.  1.
         -1   -1    0    0    0  501 -0.00000000000E+00 -0.00000000000E+00 -0.15728897557E+03  0.15728897557E+03  0.00000000000E+00 0.  1.
         23    2    1    2    0    0  0.15838689354E+02  0.12432745867E+02  0.39350401437E+02  0.10172047067E+03  0.91614206378E+02 0.  0.
         23    2    1    2    0    0 -0.79045155298E+00  0.97035962887E+02 -0.60906105685E+02  0.14573478421E+03  0.90069255092E+02 0.  0.
        -11    1    3    3    0    0  0.18804963830E+02 -0.38387461765E+02  0.20812352552E+02  0.47543431767E+02  0.00000000000E+00 0. -1.
         11    1    3    3    0    0 -0.29662744760E+01  0.50820207632E+02  0.18538048885E+02  0.54177038905E+02  0.00000000000E+00 0.  1.
        -13    1    4    4    0    0 -0.37438656985E+02  0.41007857786E+02 -0.45121913376E+00  0.55529280886E+02  0.00000000000E+00 0. -1.
         13    1    4    4    0    0  0.36648205432E+02  0.56028105101E+02 -0.60454886551E+02  0.90205503327E+02  0.00000000000E+00 0.  1.
         -1    1    1    2    0  502 -0.15048237801E+02 -0.10946870875E+03  0.11119339294E+03  0.15676038495E+03  0.00000000000E+00 0.  1.
<scales pt_clust_5="13000.00000" pt_clust_6="13000.00000" pt_clust_7="13000.00000" pt_clust_8="13000.00000" pt_clust_9="107.91278"></scales>
<clustering>
<clus scale="   90.069">  7  8 -1 -1</clus>
<clus scale="   91.614">  5  6 -1 -1</clus>
<clus scale="   93.801">  2  5  1 -1</clus>
<clus scale="  107.913">  1  9  2 -1</clus>
<clus scale="  107.913">  1  5  2 -1</clus>
</clustering>
</event>
<event>
 9    1  0.1321469E-005  0.9120138E+02  0.7546771E-02  0.1300744E+00
         -1   -1    0    0    0  501 -0.00000000000E+00  0.00000000000E+00  0.20189191454E+03  0.20189191454E+03  0.00000000000E+00 0.  1.
         21   -1    0    0  501  502  0.00000000000E+00 -0.00000000000E+00 -0.86032291410E+02  0.86032291410E+02  0.00000000000E+00 0.  1.
         23    2    1    2    0    0  0.22467562213E+01  0.19998966976E+02  0.13378371147E+03  0.16212363054E+03  0.89336350567E+02 0.  0.
         23    2    1    2    0    0  0.20843333822E+02 -0.12027142798E+02  0.62171299799E+01  0.91456716268E+02  0.88014666486E+02 0.  0.
        -11    1    4    4    0    0 -0.17428757656E+02 -0.27708617189E+02 -0.23697944475E+02  0.40411899638E+02  0.00000000000E+00 0. -1.
         11    1    4    4    0    0  0.38272091477E+02  0.15681474391E+02  0.29915074455E+02  0.51044816630E+02  0.00000000000E+00 0.  1.
        -11    1    3    3    0    0  0.25854453273E+02  0.47556647654E+02  0.92363579906E+02  0.10705661298E+03  0.00000000000E+00 0.  1.
         11    1    3    3    0    0 -0.23607697052E+02 -0.27557680678E+02  0.41420131560E+02  0.55067017559E+02  0.00000000000E+00 0. -1.
         -1    1    1    2    0  502 -0.23090090043E+02 -0.79718241778E+01 -0.24141218316E+02  0.34343859141E+02  0.00000000000E+00 0.  1.
<scales pt_clust_5="13000.00000" pt_clust_6="13000.00000" pt_clust_7="13000.00000" pt_clust_8="13000.00000" pt_clust_9="24.42749"></scales>
<clustering>
<clus scale="   24.427">  2  9  1 -1</clus>
<clus scale="   88.015">  5  6 -1 -1</clus>
<clus scale="   89.336">  7  8 -1 -1</clus>
<clus scale="   89.907">  2  5  1 -1</clus>
<clus scale="   24.427">  2  5  1 -1</clus>
</clustering>
</event>
<event>
 9    1  0.1321469E-005  0.1386868E+03  0.7546771E-02  0.1234494E+00
         21   -1    0    0  501  502  0.00000000000E+00  0.00000000000E+00  0.47637539043E+03  0.47637539043E+03  0.00000000000E+00 0.  1.
          2   -1    0    0  502    0 -0.00000000000E+00 -0.00000000000E+00 -0.61106215193E+02  0.61106215193E+02  0.00000000000E+00 0. -1.
         23    2    1    2    0    0  0.41804889061E+01  0.52054897256E+01  0.15141907295E+03  0.17749405858E+03  0.92367914177E+02 0.  0.
         23    2    1    2    0    0 -0.14117361219E+02 -0.10599345155E+03  0.12973911144E+03  0.19193186416E+03  0.92583431482E+02 0.  0.
        -11    1    4    4    0    0  0.11855323858E+02 -0.88614961113E+02  0.13327196750E+03  0.16048232725E+03  0.00000000000E+00 0.  1.
         11    1    4    4    0    0 -0.25972685078E+02 -0.17378490436E+02 -0.35328560678E+01  0.31449536912E+02  0.00000000000E+00 0. -1.
        -11    1    3    3    0    0 -0.19673649273E+02 -0.36227806588E+02  0.94890898192E+02  0.10345911756E+03  0.00000000000E+00 0.  1.
         11    1    3    3    0    0  0.23854138179E+02  0.41433296313E+02  0.56528174756E+02  0.74034941027E+02  0.00000000000E+00 0. -1.
          2    1    1    2  501    0  0.99368723134E+01  0.10078796182E+03  0.13411099085E+03  0.16805568288E+03  0.00000000000E+00 0. -1.
<scales pt_clust_5="13000.00000" pt_clust_6="13000.00000" pt_clust_7="13000.00000" pt_clust_8="13000.00000" pt_clust_9="103.25860"></scales>
<clustering>
<clus scale="   92.368">  7  8 -1 -1</clus>
<clus scale="   92.583">  5  6 -1 -1</clus>
<clus scale="   92.609">  2  7  1 -1</clus>
<clus scale="  103.259">  1  9  2 -1</clus>
<clus scale="  103.259">  1  5  2 -1</clus>
</clustering>
</event>
<event>
 9    1  0.1321469E-005  0.1340159E+03  0.7546771E-02  0.1221935E+00
          3   -1    0    0  502    0 -0.00000000000E+00  0.00000000000E+00  0.45970880337E+03  0.45970880337E+03  0.00000000000E+00 0. -1.
         21   -1    0    0  501  502  0.00000000000E+00 -0.00000000000E+00 -0.54616979026E+02  0.54616979026E+02  0.00000000000E+00 0.  1.
         23    2    1    2    0    0  0.32936730899E+02 -0.81162248520E+02  0.24058791657E+03  0.27212850516E+03  0.92191316806E+02 0.  0.
         23    2    1    2    0    0 -0.32155320173E+02  0.10658549105E+03  0.16033313583E+03  0.21642234363E+03  0.93474514495E+02 0.  0.
        -13    1    4    4    0    0 -0.60315139955E+01  0.94039929080E+02  0.16197905218E+03  0.18739557297E+03  0.00000000000E+00 0. -1.
         13    1    4    4    0    0 -0.26123806178E+02  0.12545561973E+02 -0.16459163552E+01  0.29026770662E+02  0.00000000000E+00 0.  1.
        -13    1    3    3    0    0 -0.32025131335E+01 -0.84409939337E+02  0.20305422898E+03  0.21992342726E+03  0.00000000000E+00 0.  1.
         13    1    3    3    0    0  0.36139244032E+02  0.32476908172E+01  0.37533687585E+02  0.52205077900E+02  0.00000000000E+00 0. -1.
          3    1    1    2  501    0 -0.78141072548E+00 -0.25423242533E+02  0.41707719467E+01  0.25774933603E+02  0.00000000000E+00 0. -1.
<scales pt_clust_5="13000.00000" pt_clust_6="13000.00000" pt_clust_7="13000.00000" pt_clust_8="13000.00000" pt_clust_9="25.43525"></scales>
<clustering>
<clus scale="   25.435">  2  9  1 -1</clus>
<clus scale="   92.191">  7  8 -1 -1</clus>
<clus scale="   93.475">  5  6 -1 -1</clus>
<clus scale="  133.124">  1  7  2 -1</clus>
<clus scale="   25.435">  2  5  1 -1</clus>
</clustering>
</event>
<event>
 9    1  0.1321469E-005  0.1281776E+03  0.7546771E-02  0.1244414E+00
         21   -1    0    0  501  502  0.00000000000E+00  0.00000000000E+00  0.13721037674E+03  0.13721037674E+03  0.00000000000E+00 0.  1.
         -1   -1    0    0    0  501 -0.00000000000E+00 -0.00000000000E+00 -0.23594127610E+03  0.23594127610E+03  0.00000000000E+00 0.  1.
         23    2    1    2    0    0  0.18930441069E+02  0.27424281348E+01 -0.96750373136E+02  0.15864866929E+03  0.12426939709E+03 0.  0.
         23    2    1    2    0    0 -0.18784163184E+02 -0.43442675016E+02 -0.77798034948E+02  0.12845168418E+03  0.90593543522E+02 0.  0.
        -13    1    3    3    0    0  0.12032556973E+02 -0.57550265391E+02 -0.22983633371E+02  0.63127354426E+02  0.00000000000E+00 0.  1.
         13    1    3    3    0    0  0.68978840957E+01  0.60292693526E+02 -0.73766739765E+02  0.95521314863E+02  0.00000000000E+00 0. -1.
        -13    1    4    4    0    0 -0.15337890543E+02  0.22334270418E+02 -0.77394727307E+00  0.27104787691E+02  0.00000000000E+00 0. -1.
         13    1    4    4    0    0 -0.34462726411E+01 -0.65776945434E+02 -0.77024087675E+02  0.10134689649E+03  0.00000000000E+00 0.  1.
         -1    1    1    2    0  502 -0.14627788447E+00  0.40700246881E+02  0.75817508730E+02  0.86051299371E+02  0.00000000000E+00 0.  1.
<scales pt_clust_5="13000.00000" pt_clust_6="13000.00000" pt_clust_7="13000.00000" pt_clust_8="13000.00000" pt_clust_9="40.70051"></scales>
<clustering>
<clus scale="   40.701">  1  9  2 -1</clus>
<clus scale="   90.594">  7  8 -1 -1</clus>
<clus scale="   95.884">  1  7  2 -1</clus>
<clus scale="  124.269">  5  6 -1 -1</clus>
<clus scale="   40.701">  1  5  2 -1</clus>
</clustering>
</event>
<event>
 9    1  0.1321469E-005  0.1097445E+03  0.7546771E-02  0.1262505E+00
         21   -1    0    0  501  502  0.00000000000E+00  0.00000000000E+00  0.28183990115E+03  0.28183990115E+03  0.00000000000E+00 0. -1.
          3   -1    0    0  502    0 -0.00000000000E+00 -0.00000000000E+00 -0.10442327583E+03  0.10442327583E+03  0.00000000000E+00 0. -1.
         23    2    1    2    0    0 -0.37259423796E+02  0.46461871538E+02 -0.29102882601E+02  0.11367598060E+03  0.92348690412E+02 0.  0.
         23    2    1    2    0    0  0.73831374379E+02 -0.81233366486E+01  0.97072807224E+02  0.15098978226E+03  0.88643804086E+02 0.  0.
        -11    1    4    4    0    0  0.88148275567E+01  0.35964718883E+02  0.28755107177E+02  0.46883028678E+02  0.00000000000E+00 0.  1.
         11    1    4    4    0    0  0.65016546822E+02 -0.44088055532E+02  0.68317700047E+02  0.10410675358E+03  0.00000000000E+00 0. -1.
        -13    1    3    3    0    0  0.12091396611E+02  0.41657801922E+02 -0.44115692392E+02  0.61868963529E+02  0.00000000000E+00 0. -1.
         13    1    3    3    0    0 -0.49350820407E+02  0.48040696162E+01  0.15012809792E+02  0.51807017069E+02  0.00000000000E+00 0.  1.
          3    1    1    2  501    0 -0.36571950583E+02 -0.38338534889E+02  0.10944670070E+03  0.12159741412E+03  0.00000000000E+00 0. -1.
<scales pt_clust_5="13000.00000" pt_clust_6="13000.00000" pt_clust_7="13000.00000" pt_clust_8="13000.00000" pt_clust_9="52.98444"></scales>
<clustering>
<clus scale="   52.984">  1  9  2 -1</clus>
<clus scale="   88.644">  5  6 -1 -1</clus>
<clus scale="   92.349">  7  8 -1 -1</clus>
<clus scale="  106.646">  1  5  2 -1</clus>
<clus scale="   52.984">  1  5  2 -1</clus>
</clustering>
</event>
<event>
 9    1  0.1321469E-005  0.1421726E+03  0.7546771E-02  0.1223718E+00
         21   -1    0    0  501  502  0.00000000000E+00  0.00000000000E+00  0.79505046135E+02  0.79505046135E+02  0.00000000000E+00 0. -1.
          1   -1    0    0  502    0 -0.00000000000E+00 -0.00000000000E+00 -0.88833532833E+03  0.88833532833E+03  0.00000000000E+00 0. -1.
         23    2    1    2    0    0 -0.40062220700E+02  0.36811618889E+02 -0.82069578554E+01  0.10773403148E+03  0.92623920070E+02 0.  0.
         23    2    1    2    0    0 -0.26315707403E+02 -0.12356076971E+03 -0.67987557654E+03  0.69728293218E+03  0.89514846064E+02 0.  0.
        -11    1    4    4    0    0 -0.50882272586E+02 -0.11904520240E+03 -0.55051977494E+03  0.56553761014E+03  0.00000000000E+00 0. -1.
         11    1    4    4    0    0  0.24566565182E+02 -0.45155673126E+01 -0.12935580160E+03  0.13174532204E+03  0.00000000000E+00 0.  1.
        -13    1    3    3    0    0 -0.59950984067E+02  0.46154515249E+02  0.13490831184E+02  0.76852861330E+02  0.00000000000E+00 0. -1.
         13    1    3    3    0    0  0.19888763367E+02 -0.93428963602E+01 -0.21697789040E+02  0.30881170151E+02  0.00000000000E+00 0.  1.
          1    1    1    2  501    0  0.66377928103E+02  0.86749150822E+02 -0.12074774780E+03  0.16282341081E+03  0.00000000000E+00 0. -1.
<scales pt_clust_5="13000.00000" pt_clust_6="13000.00000" pt_clust_7="13000.00000" pt_clust_8="13000.00000" pt_clust_9="110.45431"></scales>
<clustering>
<clus scale="   89.515">  5  6 -1 -1</clus>
<clus scale="   92.624">  7  8 -1 -1</clus>
<clus scale="  107.421">  2  7  1 -1</clus>
<clus scale="  110.454">  1  9  2 -1</clus>
<clus scale="  110.454">  1  5  2 -1</clus>
</clustering>
</event>
<event>
 9    1  0.1321469E-005  0.1018128E+03  0.7546771E-02  0.1276875E+00
         21   -1    0    0  501  502  0.00000000000E+00  0.00000000000E+00  0.47600092399E+02  0.47600092399E+02  0.00000000000E+00 0.  1.
          1   -1    0    0  502    0 -0.00000000000E+00 -0.00000000000E+00 -0.83251075463E+03  0.83251075463E+03  0.00000000000E+00 0. -1.
         23    2    1    2    0    0 -0.86689867522E+00 -0.41432392419E+02 -0.51375229174E+03  0.52324409297E+03  0.90141937518E+02 0.  0.
         23    2    1    2    0    0 -0.16725654156E+02  0.53625112095E+02 -0.30142103559E+03  0.31979939338E+03  0.90893405458E+02 0.  0.
        -11    1    4    4    0    0 -0.48934709204E+02  0.48133257429E+02 -0.24665094764E+03  0.25602364384E+03  0.00000000000E+00 0.  1.
         11    1    4    4    0    0  0.32209055048E+02  0.54918546659E+01 -0.54770087954E+02  0.63775749539E+02  0.00000000000E+00 0. -1.
        -13    1    3    3    0    0 -0.19853178692E+02 -0.64677564353E+02 -0.39533634571E+03  0.40108373474E+03  0.00000000000E+00 0.  1.
         13    1    3    3    0    0  0.18986280017E+02  0.23245171934E+02 -0.11841594603E+03  0.12216035823E+03  0.00000000000E+00 0. -1.
          1    1    1    2  501    0  0.17592552831E+02 -0.12192719675E+02  0.30262665107E+02  0.37067360677E+02  0.00000000000E+00 0. -1.
<scales pt_clust_5="13000.00000" pt_clust_6="13000.00000" pt_clust_7="13000.00000" pt_clust_8="13000.00000" pt_clust_9="21.40468"></scales>
<clustering>
<clus scale="   21.405">  1  9  2 -1</clus>
<clus scale="   90.142">  7  8 -1 -1</clus>
<clus scale="   90.893">  5  6 -1 -1</clus>
<clus scale="  101.143">  2  7  1 -1</clus>
<clus scale="   21.405">  1  5  2 -1</clus>
</clustering>
</event>
<event>
 9    1  0.1802371E-005  0.9465570E+02  0.7546771E-02  0.1291979E+00
          1   -1    0    0  502    0 -0.00000000000E+00  0.00000000000E+00  0.58312923702E+03  0.58312923702E+03  0.00000000000E+00 0. -1.
         21   -1    0    0  501  502  0.00000000000E+00 -0.00000000000E+00 -0.12613619060E+03  0.12613619060E+03  0.00000000000E+00 0. -1.
         23    2    1    2    0    0 -0.19151119255E+02  0.31247714434E+02  0.40986260491E+03  0.42152371122E+03  0.91387631512E+02 0.  0.
         23    2    1    2    0    0 -0.19554924954E+01  0.13118801031E+01  0.15117854931E+03  0.17669386638E+03  0.91434258696E+02 0.  0.
        -11    1    3    3    0    0  0.18098442440E+02  0.50305641406E+02  0.17575639604E+03  0.18370770786E+03  0.00000000000E+00 0.  1.
         11    1    3    3    0    0 -0.37249561695E+02 -0.19057926972E+02  0.23410620886E+03  0.23781600336E+03  0.00000000000E+00 0. -1.
        -13    1    4    4    0    0 -0.81843263784E+01 -0.26055641243E+02  0.14552141152E+03  0.14806201691E+03  0.00000000000E+00 0. -1.
         13    1    4    4    0    0  0.62288338830E+01  0.27367521346E+02  0.56571377889E+01  0.28631849471E+02  0.00000000000E+00 0.  1.
          1    1    1    2  501    0  0.21106611751E+02 -0.32559594537E+02 -0.10404810781E+03  0.11104785002E+03  0.00000000000E+00 0. -1.
<scales pt_clust_5="13000.00000" pt_clust_6="13000.00000" pt_clust_7="13000.00000" pt_clust_8="13000.00000" pt_clust_9="38.80227"></scales>
<clustering>
<clus scale="   38.802">  2  9  1 -1</clus>
<clus scale="   91.388">  5  6 -1 -1</clus>
<clus scale="   91.434">  7  8 -1 -1</clus>
<clus scale="   94.611">  1  5  2 -1</clus>
<clus scale="   38.802">  2  5  1 -1</clus>
</clustering>
</event>
<event>
 9    1  0.1321469E-005  0.1007958E+03  0.7546771E-02  0.1279116E+00
         21   -1    0    0  501  502  0.00000000000E+00  0.00000000000E+00  0.76441156293E+02  0.76441156293E+02  0.00000000000E+00 0. -1.
         -3   -1    0    0    0  501 -0.00000000000E+00 -0.00000000000E+00 -0.16627355956E+03  0.16627355956E+03  0.00000000000E+00 0.  1.
         23    2    1    2    0    0 -0.73826581978E+01  0.42746383190E+02 -0.47112510952E+02  0.11143283703E+03  0.91191729687E+02 0.  0.
         23    2    1    2    0    0 -0.14959928177E+02 -0.42856599412E+02 -0.40715144361E+02  0.10884926132E+03  0.90166241711E+02 0.  0.
        -11    1    4    4    0    0 -0.43227391792E+02  0.66990627263E+01 -0.14705552817E+02  0.46149085865E+02  0.00000000000E+00 0. -1.
         11    1    4    4    0    0  0.28267463615E+02 -0.49555662138E+02 -0.26009591545E+02  0.62700175450E+02  0.00000000000E+00 0.  1.
        -13    1    3    3    0    0  0.37973713322E+02  0.10440056082E+01 -0.27050152230E+02  0.46634789448E+02  0.00000000000E+00 0.  1.
         13    1    3    3    0    0 -0.45356371520E+02  0.41702377581E+02 -0.20062358722E+02  0.64798047586E+02  0.00000000000E+00 0. -1.
         -3    1    1    2    0  502  0.22342586375E+02  0.11021622228E+00 -0.20047479504E+01  0.22432617500E+02  0.00000000000E+00 0.  1.
<scales pt_clust_5="13000.00000" pt_clust_6="13000.00000" pt_clust_7="13000.00000" pt_clust_8="13000.00000" pt_clust_9="22.34286"></scales>
<clustering>
<clus scale="   22.343">  1  9  2 -1</clus>
<clus scale="   90.166">  5  6 -1 -1</clus>
<clus scale="   91.192">  7  8 -1 -1</clus>
<clus scale="   99.869">  1  5  2 -1</clus>
<clus scale="   22.343">  1  5  2 -1</clus>
</clustering>
</event>
<event>
 9    1  0.1321469E-005  0.9735638E+02  0.7546771E-02  0.1286910E+00
         21   -1    0    0  501  502  0.00000000000E+00  0.00000000000E+00  0.76269516298E+02  0.76269516298E+02  0.00000000000E+00 0.  1.
          2   -1    0    0  502    0 -0.00000000000E+00 -0.00000000000E+00 -0.28975018120E+03  0.28975018120E+03  0.00000000000E+00 0. -1.
         23    2    1    2    0    0 -0.11293260805E+02 -0.22480673532E+02 -0.19174505497E+03  0.21363330842E+03  0.90775029269E+02 0.  0.
         23    2    1    2    0    0 -0.10897092059E+02  0.55345910397E+02 -0.28610716049E+02  0.11213961731E+03  0.92600239118E+02 0.  0.
        -11    1    3    3    0    0  0.27035507943E+02 -0.40663345763E+02 -0.12862189259E+03  0.13757913226E+03  0.00000000000E+00 0.  1.
         11    1    3    3    0    0 -0.38328768748E+02  0.18182672231E+02 -0.63123162372E+02  0.76054176158E+02  0.00000000000E+00 0. -1.
        -11    1    4    4    0    0 -0.15171376148E+01  0.33113268903E+02 -0.62376828243E+02  0.70637518258E+02  0.00000000000E+00 0. -1.
         11    1    4    4    0    0 -0.93799544439E+01  0.22232641494E+02  0.33766112193E+02  0.41502099053E+02  0.00000000000E+00 0.  1.
          2    1    1    2  501    0  0.22190352864E+02 -0.32865236865E+02  0.68751061088E+01  0.40246771776E+02  0.00000000000E+00 0. -1.
<scales pt_clust_5="13000.00000" pt_clust_6="13000.00000" pt_clust_7="13000.00000" pt_clust_8="13000.00000" pt_clust_9="39.65521"></scales>
<clustering>
<clus scale="   39.655">  1  9  2 -1</clus>
<clus scale="   90.775">  5  6 -1 -1</clus>
<clus scale="   92.600">  7  8 -1 -1</clus>
<clus scale="   95.622">  2  5  1 -1</clus>
<clus scale="   39.655">  1  5  2 -1</clus>
</clustering>
</event>
<event>
 9    1  0.1321469E-005  0.9437985E+02  0.7546771E-02  0.1293766E+00
         21   -1    0    0  501  502  0.00000000000E+00  0.00000000000E+00  0.51094146373E+03  0.51094146373E+03  0.00000000000E+00 0. -1.
         -3   -1    0    0    0  501 -0.00000000000E+00 -0.00000000000E+00 -0.35769697756E+02  0.35769697756E+02  0.00000000000E+00 0.  1.
         23    2    1    2    0    0 -0.17087557283E+02 -0.10601582940E+02  0.53436276803E+02  0.10775256291E+03  0.91382716972E+02 0.  0.
         23    2    1    2    0    0  0.30602461898E+02  0.26615363301E+02  0.37734432906E+03  0.38987022007E+03  0.89247731538E+02 0.  0.
        -11    1    3    3    0    0  0.22238444406E+01  0.36782104963E+02  0.48051065966E+01  0.37161240278E+02  0.00000000000E+00 0. -1.
         11    1    3    3    0    0 -0.19311401724E+02 -0.47383687903E+02  0.48631170206E+02  0.70591322636E+02  0.00000000000E+00 0.  1.
        -11    1    4    4    0    0  0.21186273315E+02 -0.29598591949E+02  0.93000170209E+02  0.99869747577E+02  0.00000000000E+00 0.  1.
         11    1    4    4    0    0  0.94161885827E+01  0.56213955249E+02  0.28434415885E+03  0.29000047249E+03  0.00000000000E+00 0. -1.
         -3    1    1    2    0  502 -0.13514904614E+02 -0.16013780361E+02  0.44391160110E+02  0.49088378503E+02  0.00000000000E+00 0.  1.
<scales pt_clust_5="13000.00000" pt_clust_6="13000.00000" pt_clust_7="13000.00000" pt_clust_8="13000.00000" pt_clust_9="20.95457"></scales>
<clustering>
<clus scale="   20.955">  1  9  2 -1</clus>
<clus scale="   89.248">  7  8 -1 -1</clus>
<clus scale="   91.383">  5  6 -1 -1</clus>
<clus scale="   92.314">  1  7  2 -1</clus>
<clus scale="   20.955">  1  5  2 -1</clus>
</clustering>
</event>
<event>
 9    1  0.1321469E-005  0.9602403E+02  0.7546771E-02  0.1289505E+00
         21   -1    0    0  501  502  0.00000000000E+00  0.00000000000E+00  0.15745609985E+03  0.15745609985E+03  0.00000000000E+00 0.  1.
         -2   -1    0    0    0  501 -0.00000000000E+00 -0.00000000000E+00 -0.29824894724E+03  0.29824894724E+03  0.00000000000E+00 0.  1.
         23    2    1    2    0    0  0.23290211362E+02  0.19853069121E+02 -0.24490266216E+03  0.26291978969E+03  0.90625181818E+02 0.  0.
         23    2    1    2    0    0 -0.30402748298E+02  0.22779940922E+02  0.24677802782E+02  0.10235513932E+03  0.91784136876E+02 0.  0.
        -11    1    3    3    0    0  0.15065875928E+02 -0.30200374239E+02 -0.42568327451E+02  0.54324080513E+02  0.00000000000E+00 0.  1.
         11    1    3    3    0    0  0.82243354338E+01  0.50053443360E+02 -0.20233433471E+03  0.20859570918E+03  0.00000000000E+00 0. -1.
        -13    1    4    4    0    0  0.24270637783E+02  0.37008579373E+01  0.35780523950E+02  0.43393618217E+02  0.00000000000E+00 0. -1.
         13    1    4    4    0    0 -0.54673386081E+02  0.19079082985E+02 -0.11102721168E+02  0.58961521100E+02  0.00000000000E+00 0.  1.
         -2    1    1    2    0  502  0.71125369364E+01 -0.42633010043E+02  0.79432011987E+02  0.90430118077E+02  0.00000000000E+00 0.  1.
<scales pt_clust_5="13000.00000" pt_clust_6="13000.00000" pt_clust_7="13000.00000" pt_clust_8="13000.00000" pt_clust_9="43.22224"></scales>
<clustering>
<clus scale="   43.222">  1  9  2 -1</clus>
<clus scale="   90.625">  5  6 -1 -1</clus>
<clus scale="   91.784">  7  8 -1 -1</clus>
<clus scale="   94.917">  2  5  1 -1</clus>
<clus scale="   43.222">  1  5  2 -1</clus>
</clustering>
</event>
<event>
 9    1  0.1321469E-005  0.1023017E+03  0.7546771E-02  0.1279337E+00
         -1   -1    0    0    0  501 -0.00000000000E+00  0.00000000000E+00  0.29322629057E+03  0.29322629057E+03  0.00000000000E+00 0.  1.
         21   -1    0    0  501  502  0.00000000000E+00 -0.00000000000E+00 -0.17795683401E+03  0.17795683401E+03  0.00000000000E+00 0.  1.
         23    2    1    2    0    0  0.20453655939E+02  0.13707523298E+02  0.13844875532E+03  0.16787777343E+03  0.91698640809E+02 0.  0.
         23    2    1    2    0    0 -0.28545604995E+02  0.46892333531E+02  0.10927654274E+03  0.15742056019E+03  0.99126825167E+02 0.  0.
        -11    1    4    4    0    0 -0.54630578159E+02 -0.53582520006E+01  0.51450376813E+02  0.75235312246E+02  0.00000000000E+00 0. -1.
         11    1    4    4    0    0  0.26084973163E+02  0.52250585531E+02  0.57826165926E+02  0.82185247940E+02  0.00000000000E+00 0.  1.
        -11    1    3    3    0    0  0.49739659714E+02  0.24179503115E+02  0.51642419649E+02  0.75667837464E+02  0.00000000000E+00 0.  1.
         11    1    3    3    0    0 -0.29286003775E+02 -0.10471979816E+02  0.86806335668E+02  0.92209935964E+02  0.00000000000E+00 0. -1.
         -1    1    1    2    0  502  0.80919490560E+01 -0.60599856829E+02 -0.13245584150E+03  0.14588479096E+03  0.00000000000E+00 0.  1.
<scales pt_clust_5="13000.00000" pt_clust_6="13000.00000" pt_clust_7="13000.00000" pt_clust_8="13000.00000" pt_clust_9="61.13773"></scales>
<clustering>
<clus scale="   61.138">  2  9  1 -1</clus>
<clus scale="   91.699">  7  8 -1 -1</clus>
<clus scale="   95.122">  1  7  2 -1</clus>
<clus scale="   99.127">  5  6 -1 -1</clus>
<clus scale="   61.138">  2  5  1 -1</clus>
</clustering>
</event>
<event>
 9    1  0.1321469E-005  0.9616885E+02  0.7546771E-02  0.1288585E+00
          3   -1    0    0  502    0 -0.00000000000E+00  0.00000000000E+00  0.66280429123E+02  0.66280429123E+02  0.00000000000E+00 0. -1.
         21   -1    0    0  501  502  0.00000000000E+00 -0.00000000000E+00 -0.21238647595E+03  0.21238647595E+03  0.00000000000E+00 0.  1.
         23    2    1    2    0    0  0.15770504808E+02 -0.20504649007E+02 -0.44621844167E+02  0.10570581165E+03  0.92268413814E+02 0.  0.
         23    2    1    2    0    0 -0.35677690493E+02 -0.36413575930E+01 -0.45844122631E+02  0.10912423743E+03  0.92305246499E+02 0.  0.
        -11    1    4    4    0    0 -0.21176801471E+02  0.29336086638E+02  0.14391334434E+02  0.38938071428E+02  0.00000000000E+00 0. -1.
         11    1    4    4    0    0 -0.14500889022E+02 -0.32977444231E+02 -0.60235457065E+02  0.70186166003E+02  0.00000000000E+00 0.  1.
        -13    1    3    3    0    0 -0.99083761189E+01  0.31705862918E+02 -0.14407223034E+01  0.33249260766E+02  0.00000000000E+00 0. -1.
         13    1    3    3    0    0  0.25678880927E+02 -0.52210511926E+02 -0.43181121863E+02  0.72456550888E+02  0.00000000000E+00 0.  1.
          3    1    1    2  501    0  0.19907185685E+02  0.24146006600E+02 -0.55640080031E+02  0.63836855988E+02  0.00000000000E+00 0. -1.
<scales pt_clust_5="13000.00000" pt_clust_6="13000.00000" pt_clust_7="13000.00000" pt_clust_8="13000.00000" pt_clust_9="31.29418"></scales>
<clustering>
<clus scale="   31.294">  2  9  1 -1</clus>
<clus scale="   92.268">  7  8 -1 -1</clus>
<clus scale="   92.305">  5  6 -1 -1</clus>
<clus scale="   96.133">  1  7  2 -1</clus>
<clus scale="   31.294">  2  5  1 -1</clus>
</clustering>
</event>
<event>
 9    1  0.1772576E-005  0.1305675E+03  0.7546771E-02  0.1227680E+00
          1   -1    0    0  502    0 -0.00000000000E+00  0.00000000000E+00  0.65857688492E+03  0.65857688492E+03  0.00000000000E+00 0. -1.
         21   -1    0    0  501  502  0.00000000000E+00 -0.00000000000E+00 -0.10183586103E+03  0.10183586103E+03  0.00000000000E+00 0. -1.
         23    2    1    2    0    0  0.86502695257E+01 -0.95977803219E+02  0.52562918821E+03  0.54213717338E+03  0.91324177448E+02 0.  0.
         23    2    1    2    0    0  0.38639653447E+02  0.64980542138E+02 -0.44645252238E+02  0.12374354954E+03  0.87199620582E+02 0.  0.
        -13    1    4    4    0    0  0.26980300618E+02  0.39979020299E+02  0.20949009648E+02  0.52584405395E+02  0.00000000000E+00 0.  1.
         13    1    4    4    0    0  0.11659352829E+02  0.25001521839E+02 -0.65594261886E+02  0.71159144142E+02  0.00000000000E+00 0. -1.
        -13    1    3    3    0    0 -0.38065810979E+02 -0.25250219072E+02  0.13854870611E+03  0.14588462391E+03  0.00000000000E+00 0.  1.
         13    1    3    3    0    0  0.46716080505E+02 -0.70727584147E+02  0.38708048210E+03  0.39625254947E+03  0.00000000000E+00 0. -1.
          1    1    1    2  501    0 -0.47289922973E+02  0.30997261080E+02  0.75757087917E+02  0.94532023034E+02  0.00000000000E+00 0. -1.
<scales pt_clust_5="13000.00000" pt_clust_6="13000.00000" pt_clust_7="13000.00000" pt_clust_8="13000.00000" pt_clust_9="56.54352"></scales>
<clustering>
<clus scale="   56.544">  2  9  1 -1</clus>
<clus scale="   87.200">  5  6 -1 -1</clus>
<clus scale="   91.324">  7  8 -1 -1</clus>
<clus scale="  127.717">  2  5  1 -1</clus>
<clus scale="   56.544">  2  5  1 -1</clus>
</clustering>
</event>
<event>
 9    1  0.1321469E-005  0.9533668E+02  0.7546771E-02  0.1290798E+00
         -1   -1    0    0    0  501 -0.00000000000E+00  0.00000000000E+00  0.10107848073E+03  0.10107848073E+03  0.00000000000E+00 0.  1.
         21   -1    0    0  501  502  0.00000000000E+00 -0.00000000000E+00 -0.16662435416E+03  0.16662435416E+03  0.00000000000E+00 0. -1.
         23    2    1    2    0    0 -0.35032341555E+01  0.27250356294E+02  0.84689574569E+01  0.94888564475E+02  0.90428213850E+02 0.  0.
         23    2    1    2    0    0  0.50402720053E+02 -0.71711428992E+01 -0.57578208773E+02  0.11921483820E+03  0.91132146036E+02 0.  0.
        -13    1    3    3    0    0 -0.23011258977E+02 -0.21721905433E+02  0.24244162139E+02  0.39864001470E+02  0.00000000000E+00 0.  1.
         13    1    3    3    0    0  0.19508024822E+02  0.48972261727E+02 -0.15775204682E+02  0.55024563005E+02  0.00000000000E+00 0. -1.
        -13    1    4    4    0    0 -0.16496013606E+02 -0.26962146372E+02 -0.53307695231E+01  0.32054530189E+02  0.00000000000E+00 0.  1.
         13    1    4    4    0    0  0.66898733659E+02  0.19791003473E+02 -0.52247439250E+02  0.87160308007E+02  0.00000000000E+00 0. -1.
         -1    1    1    2    0  502 -0.46899485897E+02 -0.20079213395E+02 -0.16436622105E+02  0.53599432219E+02  0.00000000000E+00 0.  1.
<scales pt_clust_5="13000.00000" pt_clust_6="13000.00000" pt_clust_7="13000.00000" pt_clust_8="13000.00000" pt_clust_9="51.01702"></scales>
<clustering>
<clus scale="   51.017">  2  9  1 -1</clus>
<clus scale="   90.428">  5  6 -1 -1</clus>
<clus scale="   91.132">  7  8 -1 -1</clus>
<clus scale="   94.664">  1  5  2 -1</clus>
<clus scale="   51.017">  2  5  1 -1</clus>
</clustering>
</event>
<event>
 9    1  0.1321469E-005  0.1061999E+03  0.7546771E-02  0.1268157E+00
         21   -1    0    0  501  502  0.00000000000E+00  0.00000000000E+00  0.22229844442E+03  0.22229844442E+03  0.00000000000E+00 0. -1.
          2   -1    0    0  502    0 -0.00000000000E+00 -0.00000000000E+00 -0.15489062237E+03  0.15489062237E+03  0.00000000000E+00 0. -1.
         23    2    1    2    0    0 -0.45108416246E+02  0.19027132162E+02 -0.77248454194E+02  0.12942426706E+03  0.91577924496E+02 0.  0.
         23    2    1    2    0    0  0.68770307291E+02 -0.18389313196E+01  0.14931244104E+02  0.11478396164E+03  0.90662445181E+02 0.  0.
        -11    1    4    4    0    0  0.60983959554E+02  0.36953405751E+02 -0.29446576204E+01  0.71367138992E+02  0.00000000000E+00 0.  1.
         11    1    4    4    0    0  0.77863477371E+01 -0.38792337070E+02  0.17875901725E+02  0.43416822649E+02  0.00000000000E+00 0. -1.
        -11    1    3    3    0    0  0.25119440297E+02 -0.88019956641E+01 -0.30963367958E+02  0.40831257192E+02  0.00000000000E+00 0.  1.
         11    1    3    3    0    0 -0.70227856544E+02  0.27829127826E+02 -0.46285086236E+02  0.88593009872E+02  0.00000000000E+00 0. -1.
          2    1    1    2  501    0 -0.23661891044E+02 -0.17188200843E+02  0.12972503213E+03  0.13298083809E+03  0.00000000000E+00 0. -1.
<scales pt_clust_5="13000.00000" pt_clust_6="13000.00000" pt_clust_7="13000.00000" pt_clust_8="13000.00000" pt_clust_9="29.24584"></scales>
<clustering>
<clus scale="   29.246">  1  9  2 -1</clus>
<clus scale="   90.662">  5  6 -1 -1</clus>
<clus scale="   91.578">  7  8 -1 -1</clus>
<clus scale="  105.411">  1  5  2 -1</clus>
<clus scale="   29.246">  1  5  2 -1</clus>
</clustering>
</event>
<event>
 9    1  0.1321469E-005  0.1077145E+03  0.7546771E-02  0.1265560E+00
         21   -1    0    0  501  502  0.00000000000E+00  0.00000000000E+00  0.32472134416E+03  0.32472134416E+03  0.00000000000E+00 0.  1.
         -3   -1    0    0    0  501 -0.00000000000E+00 -0.00000000000E+00 -0.16470492192E+03  0.16470492192E+03  0.00000000000E+00 0.  1.
         23    2    1    2    0    0  0.41850796044E+02 -0.37281285103E+02 -0.74109111629E+02  0.12989567066E+03  0.90770818441E+02 0.  0.
         23    2    1    2    0    0 -0.71604135293E+02 -0.15762291404E+02  0.38826098817E+00  0.11801042040E+03  0.92470030582E+02 0.  0.
        -11    1    4    4    0    0 -0.14532640143E+02  0.24576596494E+02  0.30617557197E+02  0.41864561785E+02  0.00000000000E+00 0. -1.
         11    1    4    4    0    0 -0.57071495150E+02 -0.40338887898E+02 -0.30229296208E+02  0.76145858619E+02  0.00000000000E+00 0.  1.
        -11    1    3    3    0    0  0.21606124123E+02 -0.66955448535E+02 -0.54308097496E+02  0.88877590774E+02  0.00000000000E+00 0. -1.
         11    1    3    3    0    0  0.20244671922E+02  0.29674163432E+02 -0.19801014133E+02  0.41018079883E+02  0.00000000000E+00 0.  1.
         -3    1    1    2    0  502  0.29753339249E+02  0.53043576507E+02  0.23373727288E+03  0.24152017501E+03  0.00000000000E+00 0.  1.
<scales pt_clust_5="13000.00000" pt_clust_6="13000.00000" pt_clust_7="13000.00000" pt_clust_8="13000.00000" pt_clust_9="60.81844"></scales>
<clustering>
<clus scale="   60.818">  1  9  2 -1</clus>
<clus scale="   90.771">  7  8 -1 -1</clus>
<clus scale="   92.470">  5  6 -1 -1</clus>
<clus scale="  106.259">  2  7  1 -1</clus>
<clus scale="   60.818">  1  5  2 -1</clus>
</clustering>
</event>
<event>
 9    1  0.1321469E-005  0.1002264E+03  0.7546771E-02  0.1280375E+00
          4   -1    0    0  502    0 -0.00000000000E+00  0.00000000000E+00  0.20155661625E+03  0.20155661625E+03  0.00000000000E+00 0. -1.
         21   -1    0    0  501  502  0.00000000000E+00 -0.00000000000E+00 -0.78087916989E+02  0.78087916989E+02  0.00000000000E+00 0.  1.
         23    2    1    2    0    0  0.21455783516E+02  0.16913424223E+02  0.73095645225E+02  0.12068228847E+03  0.92058822681E+02 0.  0.
         23    2    1    2    0    0 -0.37264657201E+02 -0.29986450640E+02  0.73563649621E+02  0.12800052276E+03  0.93191637942E+02 0.  0.
        -11    1    4    4    0    0 -0.50341995327E+02 -0.49787760036E+02  0.76326985459E+02  0.10411026007E+03  0.00000000000E+00 0. -1.
         11    1    4    4    0    0  0.13077338126E+02  0.19801309395E+02 -0.27633358381E+01  0.23890262686E+02  0.00000000000E+00 0.  1.
        -13    1    3    3    0    0  0.17576150016E+02 -0.33686686615E+02  0.92162821866E+01  0.39098002019E+02  0.00000000000E+00 0. -1.
         13    1    3    3    0    0  0.38796335000E+01  0.50600110839E+02  0.63879363038E+02  0.81584286448E+02  0.00000000000E+00 0.  1.
          4    1    1    2  501    0  0.15808873685E+02  0.13073026417E+02 -0.23190595582E+02  0.30961722018E+02  0.00000000000E+00 0. -1.
<scales pt_clust_5="13000.00000" pt_clust_6="13000.00000" pt_clust_7="13000.00000" pt_clust_8="13000.00000" pt_clust_9="20.51401"></scales>
<clustering>
<clus scale="   20.514">  2  9  1 -1</clus>
<clus scale="   92.059">  7  8 -1 -1</clus>
<clus scale="   93.192">  5  6 -1 -1</clus>
<clus scale="   99.174">  1  7  2 -1</clus>
<clus scale="   20.514">  2  5  1 -1</clus>
</clustering>
</event>
<event>
 9    1  0.1321469E-005  0.9134774E+02  0.7546771E-02  0.1301959E+00
         -1   -1    0    0    0  501 -0.00000000000E+00  0.00000000000E+00  0.35344458332E+03  0.35344458332E+03  0.00000000000E+00 0.  1.
         21   -1    0    0  501  502  0.00000000000E+00 -0.00000000000E+00 -0.58406530834E+02  0.58406530834E+02  0.00000000000E+00 0.  1.
         23    2    1    2    0    0  0.15338839161E+02 -0.25247091004E+01  0.20465837057E+03  0.22290487141E+03  0.86947564137E+02 0.  0.
         23    2    1    2    0    0  0.26714156962E+02 -0.42629867834E+02  0.62977960228E+02  0.12143146916E+03  0.90820847904E+02 0.  0.
        -11    1    3    3    0    0  0.72808080485E+01 -0.41155695154E+02  0.61141135802E+02  0.74061055195E+02  0.00000000000E+00 0. -1.
         11    1    3    3    0    0  0.80580311122E+01  0.38630986053E+02  0.14351723477E+03  0.14884381621E+03  0.00000000000E+00 0.  1.
        -13    1    4    4    0    0  0.55347455496E+02 -0.96448605068E+01  0.18642158949E+02  0.59193701137E+02  0.00000000000E+00 0. -1.
         13    1    4    4    0    0 -0.28633298534E+02 -0.32985007327E+02  0.44335801279E+02  0.62237768022E+02  0.00000000000E+00 0.  1.
         -1    1    1    2    0  502 -0.42052996122E+02  0.45154576934E+02  0.27401721682E+02  0.67514773584E+02  0.00000000000E+00 0.  1.
<scales pt_clust_5="13000.00000" pt_clust_6="13000.00000" pt_clust_7="13000.00000" pt_clust_8="13000.00000" pt_clust_9="61.70405"></scales>
<clustering>
<clus scale="   61.704">  2  9  1 -1</clus>
<clus scale="   86.948">  5  6 -1 -1</clus>
<clus scale="   87.498">  1  5  2 -1</clus>
<clus scale="   90.821">  7  8 -1 -1</clus>
<clus scale="   61.704">  2  5  1 -1</clus>
</clustering>
</event>
<event>
 9    1  0.1321469E-005  0.1093638E+03  0.7546771E-02  0.1262454E+00
         21   -1    0    0  501  502  0.00000000000E+00  0.00000000000E+00  0.18332061112E+03  0.18332061112E+03  0.00000000000E+00 0.  1.
         -3   -1    0    0    0  501 -0.00000000000E+00 -0.00000000000E+00 -0.14969487994E+03  0.14969487994E+03  0.00000000000E+00 0.  1.
         23    2    1    2    0    0  0.38774295250E+01  0.68666572947E+02 -0.85365061567E+02  0.14371756389E+03  0.92937676613E+02 0.  0.
         23    2    1    2    0    0  0.11366627071E+02 -0.27264386053E+02  0.51876108681E+02  0.10898041253E+03  0.91175943678E+02 0.  0.
        -11    1    3    3    0    0  0.43565982068E+02  0.10195982901E+02 -0.28943039235E+02  0.53288388801E+02  0.00000000000E+00 0. -1.
         11    1    3    3    0    0 -0.39688552543E+02  0.58470590046E+02 -0.56422022332E+02  0.90429175089E+02  0.00000000000E+00 0.  1.
        -13    1    4    4    0    0  0.14793806651E+02 -0.55350726043E+02  0.56318814453E+02  0.80339084200E+02  0.00000000000E+00 0. -1.
         13    1    4    4    0    0 -0.34271795795E+01  0.28086339990E+02 -0.44427057729E+01  0.28641328330E+02  0.00000000000E+00 0.  1.
         -3    1    1    2    0  502 -0.15244056597E+02 -0.41402186895E+02  0.67114684063E+02  0.80317514641E+02  0.00000000000E+00 0.  1.
<scales pt_clust_5="13000.00000" pt_clust_6="13000.00000" pt_clust_7="13000.00000" pt_clust_8="13000.00000" pt_clust_9="44.11941"></scales>
<clustering>
<clus scale="   44.119">  1  9  2 -1</clus>
<clus scale="   91.176">  7  8 -1 -1</clus>
<clus scale="   92.938">  5  6 -1 -1</clus>
<clus scale="  107.871">  1  7  2 -1</clus>
<clus scale="   44.119">  1  5  2 -1</clus>
</clustering>
</event>
<event>
 9    1  0.1321469E-005  0.1438367E+03  0.7546771E-02  0.1208949E+00
         -1   -1    0    0    0  501 -0.00000000000E+00  0.00000000000E+00  0.85892993018E+03  0.85892993018E+03  0.00000000000E+00 0.  1.
         21   -1    0    0  501  502  0.00000000000E+00 -0.00000000000E+00 -0.43450794594E+02  0.43450794594E+02  0.00000000000E+00 0.  1.
         23    2    1    2    0    0  0.40496751388E+02  0.10710268259E+03  0.48053596045E+03  0.50263763678E+03  0.92837563150E+02 0.  0.
         23    2    1    2    0    0  0.16918874989E+02 -0.11056095000E+03  0.29996708471E+03  0.33242414068E+03  0.89529801744E+02 0.  0.
        -11    1    3    3    0    0  0.18823770251E+02  0.10578559153E+03  0.46123955865E+03  0.47358933283E+03  0.00000000000E+00 0.  1.
         11    1    3    3    0    0  0.21672981137E+02  0.13170910609E+01  0.19296401797E+02  0.29048303952E+02  0.00000000000E+00 0. -1.
        -13    1    4    4    0    0  0.51948375242E+02 -0.44408320176E+02  0.13798324253E+03  0.15398086832E+03  0.00000000000E+00 0.  1.
         13    1    4    4    0    0 -0.35029500252E+02 -0.66152629828E+02  0.16198384218E+03  0.17844327235E+03  0.00000000000E+00 0. -1.
         -1    1    1    2    0  502 -0.57415626377E+02  0.34582674104E+01  0.34976090426E+02  0.67318947312E+02  0.00000000000E+00 0.  1.
<scales pt_clust_5="13000.00000" pt_clust_6="13000.00000" pt_clust_7="13000.00000" pt_clust_8="13000.00000" pt_clust_9="57.51968"></scales>
<clustering>
<clus scale="   57.520">  2  9  1 -1</clus>
<clus scale="   89.530">  7  8 -1 -1</clus>
<clus scale="   92.838">  5  6 -1 -1</clus>
<clus scale="  141.724">  2  7  1 -1</clus>
<clus scale="   57.520">  2  5  1 -1</clus>
</clustering>
</event>
<event>
 9    1  0.1321469E-005  0.1046179E+03  0.7546771E-02  0.1275077E+00
         -1   -1    0    0    0  501 -0.00000000000E+00  0.00000000000E+00  0.65451670012E+03  0.65451670012E+03  0.00000000000E+00 0.  1.
         21   -1    0    0  501  502  0.00000000000E+00 -0.00000000000E+00 -0.21866531259E+02  0.21866531259E+02  0.00000000000E+00 0. -1.
         23    2    1    2    0    0 -0.39222165881E+02  0.58313579540E+01  0.39472828851E+03  0.40706984417E+03  0.91230769216E+02 0.  0.
         23    2    1    2    0    0  0.13951295570E+02 -0.55788163186E+01  0.19047039788E+03  0.21555165497E+03  0.99788685008E+02 0.  0.
        -11    1    3    3    0    0 -0.53038323985E+02 -0.26702295886E+02  0.30307135002E+03  0.30883380582E+03  0.00000000000E+00 0. -1.
         11    1    3    3    0    0  0.13816158103E+02  0.32533653840E+02  0.91656938491E+02  0.98236038349E+02  0.00000000000E+00 0.  1.
        -11    1    4    4    0    0  0.54353656010E+02 -0.20121349287E+02  0.11125175295E+03  0.12544377686E+03  0.00000000000E+00 0.  1.
         11    1    4    4    0    0 -0.40402360439E+02  0.14542532968E+02  0.79218644930E+02  0.90107878117E+02  0.00000000000E+00 0. -1.
         -1    1    1    2    0  502  0.25270870311E+02 -0.25254163535E+00  0.47451482474E+02  0.53761732232E+02  0.00000000000E+00 0.  1.
<scales pt_clust_5="13000.00000" pt_clust_6="13000.00000" pt_clust_7="13000.00000" pt_clust_8="13000.00000" pt_clust_9="25.27213"></scales>
<clustering>
<clus scale="   25.272">  2  9  1 -1</clus>
<clus scale="   91.231">  5  6 -1 -1</clus>
<clus scale="   96.489">  1  5  2 -1</clus>
<clus scale="   99.789">  7  8 -1 -1</clus>
<clus scale="   25.272">  2  5  1 -1</clus>
</clustering>
</event>
<event>
 9    1  0.1321469E-005  0.1061754E+03  0.7546771E-02  0.1268010E+00
         21   -1    0    0  501  502  0.00000000000E+00  0.00000000000E+00  0.63618571644E+02  0.63618571644E+02  0.00000000000E+00 0.  1.
          2   -1    0    0  502    0 -0.00000000000E+00 -0.00000000000E+00 -0.27694770988E+03  0.27694770988E+03  0.00000000000E+00 0. -1.
         23    2    1    2    0    0  0.55992117053E+02 -0.66779201968E+01 -0.17958897742E+03  0.20930905576E+03  0.91533426798E+02 0.  0.
         23    2    1    2    0    0 -0.43679064861E+02  0.24612977095E+02 -0.34341665365E+02  0.10949396940E+03  0.91081941159E+02 0.  0.
        -11    1    4    4    0    0  0.15657462720E+02  0.35718656023E+02  0.19666618237E+01  0.39049280219E+02  0.00000000000E+00 0.  1.
         11    1    4    4    0    0 -0.59336527580E+02 -0.11105678929E+02 -0.36308327189E+02  0.70444689176E+02  0.00000000000E+00 0. -1.
        -13    1    3    3    0    0  0.39521103122E+02  0.26047213733E+02 -0.31742382165E+02  0.56990821724E+02  0.00000000000E+00 0.  1.
         13    1    3    3    0    0  0.16471013930E+02 -0.32725133930E+02 -0.14784659526E+03  0.15231823404E+03  0.00000000000E+00 0. -1.
          2    1    1    2  501    0 -0.12313052192E+02 -0.17935056898E+02  0.60150454829E+00  0.21763256372E+02  0.00000000000E+00 0. -1.
<scales pt_clust_5="13000.00000" pt_clust_6="13000.00000" pt_clust_7="13000.00000" pt_clust_8="13000.00000" pt_clust_9="21.75494"></scales>
<clustering>
<clus scale="   21.755">  1  9  2 -1</clus>
<clus scale="   91.082">  5  6 -1 -1</clus>
<clus scale="   91.533">  7  8 -1 -1</clus>
<clus scale="  105.786">  1  5  2 -1</clus>
<clus scale="   21.755">  1  5  2 -1</clus>
</clustering>
</event>
<event>
 9    1  0.1321469E-005  0.1001961E+03  0.7546771E-02  0.1281248E+00
         21   -1    0    0  501  502  0.00000000000E+00  0.00000000000E+00  0.25385933679E+03  0.25385933679E+03  0.00000000000E+00 0. -1.
          4   -1    0    0  502    0 -0.00000000000E+00 -0.00000000000E+00 -0.91782320828E+02  0.91782320828E+02  0.00000000000E+00 0. -1.
         23    2    1    2    0    0 -0.38617577877E+02  0.83785564151E+01 -0.53995852909E+01  0.99569137000E+02  0.91232340718E+02 0.  0.
         23    2    1    2    0    0  0.29666683010E+02 -0.42770791143E+02  0.34207517214E+02  0.10814647852E+03  0.88408449405E+02 0.  0.
        -11    1    4    4    0    0  0.24742353242E+02  0.16320005509E+02  0.38624538329E+02  0.48686564727E+02  0.00000000000E+00 0.  1.
         11    1    4    4    0    0  0.49243297676E+01 -0.59090796652E+02 -0.44170211153E+01  0.59459913792E+02  0.00000000000E+00 0. -1.
        -13    1    3    3    0    0 -0.45720184637E+02  0.37915858708E+02  0.17049773666E+02  0.61795164915E+02  0.00000000000E+00 0. -1.
         13    1    3    3    0    0  0.71026067599E+01 -0.29537302293E+02 -0.22449358957E+02  0.37773972085E+02  0.00000000000E+00 0.  1.
          4    1    1    2  501    0  0.89508948669E+01  0.34392234728E+02  0.13326908404E+03  0.13792604210E+03  0.00000000000E+00 0. -1.
<scales pt_clust_5="13000.00000" pt_clust_6="13000.00000" pt_clust_7="13000.00000" pt_clust_8="13000.00000" pt_clust_9="35.53793"></scales>
<clustering>
<clus scale="   35.538">  1  9  2 -1</clus>
<clus scale="   88.408">  5  6 -1 -1</clus>
<clus scale="   91.232">  7  8 -1 -1</clus>
<clus scale="   97.632">  1  5  2 -1</clus>
<clus scale="   35.538">  1  5  2 -1</clus>
</clustering>
</event>
<event>
 9    1  0.1321469E-005  0.1273338E+03  0.7546771E-02  0.1232913E+00
         21   -1    0    0  501  502  0.00000000000E+00  0.00000000000E+00  0.17452069241E+03  0.17452069241E+03  0.00000000000E+00 0.  1.
         -2   -1    0    0    0  501 -0.00000000000E+00 -0.00000000000E+00 -0.47536209832E+03  0.47536209832E+03  0.00000000000E+00 0.  1.
         23    2    1    2    0    0 -0.96738420139E+02  0.48896257142E+02 -0.29012752391E+03  0.32474128885E+03  0.97640968123E+02 0.  0.
         23    2    1    2    0    0  0.59946885386E+02  0.15037682530E+02 -0.13839802431E+03  0.17768165695E+03  0.92719993110E+02 0.  0.
        -11    1    3    3    0    0 -0.24487488401E+02  0.31318425411E+02 -0.19876613519E+02  0.44447279145E+02  0.00000000000E+00 0. -1.
         11    1    3    3    0    0 -0.72250931737E+02  0.17577831731E+02 -0.27025091039E+03  0.28029400970E+03  0.00000000000E+00 0.  1.
        -11    1    4    4    0    0  0.82060967059E+02 -0.33634248121E+01 -0.94566274032E+02  0.12525212623E+03  0.00000000000E+00 0.  1.
         11    1    4    4    0    0 -0.22114081672E+02  0.18401107342E+02 -0.43831750275E+02  0.52429530722E+02  0.00000000000E+00 0. -1.
         -2    1    1    2    0  502  0.36791534753E+02 -0.63933939672E+02  0.12768414231E+03  0.14745984494E+03  0.00000000000E+00 0.  1.
<scales pt_clust_5="13000.00000" pt_clust_6="13000.00000" pt_clust_7="13000.00000" pt_clust_8="13000.00000" pt_clust_9="73.76426"></scales>
<clustering>
<clus scale="   73.764">  1  9  2 -1</clus>
<clus scale="   92.720">  7  8 -1 -1</clus>
<clus scale="   97.641">  5  6 -1 -1</clus>
<clus scale="  123.601">  1  7  2 -1</clus>
<clus scale="   73.764">  1  5  2 -1</clus>
</clustering>
</event>
<event>
 9    1  0.1321469E-005  0.1121168E+03  0.7546771E-02  0.1257184E+00
         21   -1    0    0  501  502  0.00000000000E+00  0.00000000000E+00  0.42077821743E+03  0.42077821743E+03  0.00000000000E+00 0. -1.
          2   -1    0    0  502    0 -0.00000000000E+00 -0.00000000000E+00 -0.54801148012E+02  0.54801148012E+02  0.00000000000E+00 0. -1.
         23    2    1    2    0    0  0.32379377827E+02  0.82237051919E+02  0.86226179031E+02  0.15362328408E+03  0.91399139192E+02 0.  0.
         23    2    1    2    0    0 -0.60343875859E+01 -0.29395250978E+02  0.14336776001E+03  0.17334022525E+03  0.92693173771E+02 0.  0.
        -13    1    4    4    0    0  0.30002895368E+02 -0.34623308367E+02  0.12379125468E+03  0.13199705280E+03  0.00000000000E+00 0.  1.
         13    1    4    4    0    0 -0.36037282953E+02  0.52280573883E+01  0.19576505329E+02  0.41343172443E+02  0.00000000000E+00 0. -1.
        -13    1    3    3    0    0  0.55756972011E+02  0.82215721199E+02  0.84084344370E+02  0.13014776874E+03  0.00000000000E+00 0. -1.
         13    1    3    3    0    0 -0.23377594184E+02  0.21330720031E-01  0.21418346615E+01  0.23475515341E+02  0.00000000000E+00 0.  1.
          2    1    1    2  501    0 -0.26344990241E+02 -0.52841800941E+02  0.13638313037E+03  0.14861585611E+03  0.00000000000E+00 0. -1.
<scales pt_clust_5="13000.00000" pt_clust_6="13000.00000" pt_clust_7="13000.00000" pt_clust_8="13000.00000" pt_clust_9="59.04502"></scales>
<clustering>
<clus scale="   59.045">  1  9  2 -1</clus>
<clus scale="   91.399">  7  8 -1 -1</clus>
<clus scale="   92.693">  5  6 -1 -1</clus>
<clus scale="  111.049">  2  7  1 -1</clus>
<clus scale="   59.045">  1  5  2 -1</clus>
</clustering>
</event>
<event>
 9    1  0.1321469E-005  0.1141176E+03  0.7546771E-02  0.1253939E+00
          2   -1    0    0  502    0 -0.00000000000E+00  0.00000000000E+00  0.40562330785E+03  0.40562330785E+03  0.00000000000E+00 0.  1.
         21   -1    0    0  501  502  0.00000000000E+00 -0.00000000000E+00 -0.81267390512E+02  0.81267390512E+02  0.00000000000E+00 0.  1.
         23    2    1    2    0    0  0.43696025286E+02  0.57835919443E+02  0.31297767270E+03  0.33382608693E+03  0.90722083884E+02 0.  0.
         23    2    1    2    0    0 -0.34836336193E+02 -0.29675493776E+02  0.40821405220E+02  0.11137044674E+03  0.92966574814E+02 0.  0.
        -11    1    3    3    0    0  0.35880035645E+02 -0.17488972615E+02  0.94011721778E+02  0.10213444548E+03  0.00000000000E+00 0. -1.
         11    1    3    3    0    0  0.78159896405E+01  0.75324892057E+02  0.21896595092E+03  0.23169164145E+03  0.00000000000E+00 0.  1.
        -13    1    4    4    0    0 -0.55980629863E+02 -0.29715094799E+02 -0.22184890454E+01  0.63417185939E+02  0.00000000000E+00 0.  1.
         13    1    4    4    0    0  0.21144293670E+02  0.39601022922E-01  0.43039894265E+02  0.47953260801E+02  0.00000000000E+00 0. -1.
          2    1    1    2  501    0 -0.88596890926E+01 -0.28160425667E+02 -0.29443160579E+02  0.41694164693E+02  0.00000000000E+00 0.  1.
<scales pt_clust_5="13000.00000" pt_clust_6="13000.00000" pt_clust_7="13000.00000" pt_clust_8="13000.00000" pt_clust_9="29.52124"></scales>
<clustering>
<clus scale="   29.521">  2  9  1 -1</clus>
<clus scale="   90.722">  5  6 -1 -1</clus>
<clus scale="   92.967">  7  8 -1 -1</clus>
<clus scale="  112.297">  1  5  2 -1</clus>
<clus scale="   29.521">  2  5  1 -1</clus>
</clustering>
</event>
<event>
 9    1  0.1321469E-005  0.1213163E+03  0.7546771E-02  0.1241261E+00
         -2   -1    0    0    0  501 -0.00000000000E+00  0.00000000000E+00  0.30892783262E+03  0.30892783262E+03  0.00000000000E+00 0.  1.
         21   -1    0    0  501  502  0.00000000000E+00 -0.00000000000E+00 -0.26923141542E+03  0.26923141542E+03  0.00000000000E+00 0.  1.
         23    2    1    2    0    0 -0.51742954772E+02  0.74319189053E+02  0.19836004444E+03  0.23545152394E+03  0.88825883993E+02 0.  0.
         23    2    1    2    0    0  0.26130273631E+02 -0.60315777495E+02  0.56986458714E+02  0.12509094041E+03  0.89886053876E+02 0.  0.
        -11    1    3    3    0    0 -0.46441337850E+02  0.29185424698E+02  0.17687477802E+03  0.18518443232E+03  0.00000000000E+00 0.  1.
         11    1    3    3    0    0 -0.53016169218E+01  0.45133764355E+02  0.21485266425E+02  0.50267091623E+02  0.00000000000E+00 0. -1.
        -11    1    4    4    0    0  0.57858298497E+02 -0.53159886815E+02  0.36361617839E+02  0.86577846606E+02  0.00000000000E+00 0.  1.
         11    1    4    4    0    0 -0.31728024866E+02 -0.71558906800E+01  0.20624840876E+02  0.38513093805E+02  0.00000000000E+00 0. -1.
         -2    1    1    2    0  502  0.25612681141E+02 -0.14003411558E+02 -0.21565008595E+03  0.21761678368E+03  0.00000000000E+00 0.  1.
<scales pt_clust_5="13000.00000" pt_clust_6="13000.00000" pt_clust_7="13000.00000" pt_clust_8="13000.00000" pt_clust_9="29.19084"></scales>
<clustering>
<clus scale="   29.191">  2  9  1 -1</clus>
<clus scale="   88.826">  5  6 -1 -1</clus>
<clus scale="   89.886">  7  8 -1 -1</clus>
<clus scale="  120.533">  1  5  2 -1</clus>
<clus scale="   29.191">  2  5  1 -1</clus>
</clustering>
</event>
<event>
 9    1  0.1321469E-005  0.1167656E+03  0.7546771E-02  0.1249756E+00
          1   -1    0    0  502    0 -0.00000000000E+00  0.00000000000E+00  0.13510118908E+03  0.13510118908E+03  0.00000000000E+00 0. -1.
         21   -1    0    0  501  502  0.00000000000E+00 -0.00000000000E+00 -0.29874908689E+03  0.29874908689E+03  0.00000000000E+00 0.  1.
         23    2    1    2    0    0 -0.24704178923E+02  0.59683465942E+02  0.74142537821E+02  0.13354341450E+03  0.90356599526E+02 0.  0.
         23    2    1    2    0    0  0.19130077755E+02 -0.94967086853E+02 -0.13239913649E+03  0.18902644790E+03  0.93897599561E+02 0.  0.
        -13    1    4    4    0    0  0.50196130812E+02 -0.25409060100E+02 -0.38792577877E+02  0.68338393177E+02  0.00000000000E+00 0. -1.
         13    1    4    4    0    0 -0.31066053056E+02 -0.69558026752E+02 -0.93606558610E+02  0.12068805472E+03  0.00000000000E+00 0.  1.
        -13    1    3    3    0    0  0.26598560354E+02  0.44535550105E+02  0.57680349107E+02  0.77575262225E+02  0.00000000000E+00 0. -1.
         13    1    3    3    0    0 -0.51302739277E+02  0.15147915837E+02  0.16462188714E+02  0.55968152273E+02  0.00000000000E+00 0.  1.
          1    1    1    2  501    0  0.55741011675E+01  0.35283620911E+02 -0.10539129914E+03  0.11128041357E+03  0.00000000000E+00 0. -1.
<scales pt_clust_5="13000.00000" pt_clust_6="13000.00000" pt_clust_7="13000.00000" pt_clust_8="13000.00000" pt_clust_9="35.72121"></scales>
<clustering>
<clus scale="   35.721">  2  9  1 -1</clus>
<clus scale="   90.357">  7  8 -1 -1</clus>
<clus scale="   93.898">  5  6 -1 -1</clus>
<clus scale="  113.937">  1  7  2 -1</clus>
<clus scale="   35.721">  2  5  1 -1</clus>
</clustering>
</event>
<event>
 9    1  0.1321469E-005  0.1724641E+03  0.7546771E-02  0.1199305E+00
          2   -1    0    0  502    0 -0.00000000000E+00  0.00000000000E+00  0.97014995023E+03  0.97014995023E+03  0.00000000000E+00 0. -1.
         21   -1    0    0  501  502  0.00000000000E+00 -0.00000000000E+00 -0.52295227203E+02  0.52295227203E+02  0.00000000000E+00 0. -1.
         23    2    1    2    0    0  0.35915472609E+02 -0.20662144003E+02  0.21565089256E+03  0.23822596460E+03  0.92355061493E+02 0.  0.
         23    2    1    2    0    0  0.69034736368E+02 -0.98432805489E+02  0.52715435657E+03  0.54791332701E+03  0.88670661701E+02 0.  0.
        -11    1    4    4    0    0  0.47455335445E+02 -0.98023139174E+02  0.50637209451E+03  0.51795100422E+03  0.00000000000E+00 0. -1.
         11    1    4    4    0    0  0.21579400923E+02 -0.40966631454E+00  0.20782262056E+02  0.29962322788E+02  0.00000000000E+00 0.  1.
        -11    1    3    3    0    0 -0.31194401235E+02 -0.96038001541E+00  0.70768011674E+02  0.77344194834E+02  0.00000000000E+00 0. -1.
         11    1    3    3    0    0  0.67109873844E+02 -0.19701763987E+02  0.14488288088E+03  0.16088176977E+03  0.00000000000E+00 0.  1.
          2    1    1    2  501    0 -0.10495020898E+03  0.11909494949E+03  0.17504947391E+03  0.23630588582E+03  0.00000000000E+00 0. -1.
<scales pt_clust_5="13000.00000" pt_clust_6="13000.00000" pt_clust_7="13000.00000" pt_clust_8="13000.00000" pt_clust_9="147.92358"></scales>
<clustering>
<clus scale="   88.671">  5  6 -1 -1</clus>
<clus scale="   92.355">  7  8 -1 -1</clus>
<clus scale="  101.224">  1  7  2 -1</clus>
<clus scale="  147.924">  2  9  1 -1</clus>
<clus scale="  147.924">  2  5  1 -1</clus>
</clustering>
</event>
<event>
 9    1  0.1321469E-005  0.1631554E+03  0.7546771E-02  0.1190297E+00
         21   -1    0    0  501  502  0.00000000000E+00  0.00000000000E+00  0.92527319443E+02  0.92527319443E+02  0.00000000000E+00 0. -1.
         -1   -1    0    0    0  501 -0.00000000000E+00 -0.00000000000E+00 -0.64895472840E+03  0.64895472840E+03  0.00000000000E+00 0.  1.
         23    2    1    2    0    0 -0.14829376121E+01  0.11440364636E+03 -0.20732727110E+03  0.25337304274E+03  0.90127177035E+02 0.  0.
         23    2    1    2    0    0 -0.11521241920E+03  0.29573288202E+02 -0.11123951830E+03  0.18657154753E+03  0.91028737238E+02 0.  0.
        -13    1    4    4    0    0 -0.62760309772E+01 -0.23333894463E+02 -0.33792018703E+01  0.24398323732E+02  0.00000000000E+00 0.  1.
         13    1    4    4    0    0 -0.10893638822E+03  0.52907182665E+02 -0.10786031643E+03  0.16217322380E+03  0.00000000000E+00 0. -1.
        -13    1    3    3    0    0 -0.29928264930E+02  0.10957076977E+03 -0.18415662643E+03  0.21636801447E+03  0.00000000000E+00 0. -1.
         13    1    3    3    0    0  0.28445327318E+02  0.48328765881E+01 -0.23170644671E+02  0.37005028264E+02  0.00000000000E+00 0.  1.
         -1    1    1    2    0  502  0.11669535681E+03 -0.14397693456E+03 -0.23786061956E+03  0.30153745758E+03  0.00000000000E+00 0.  1.
<scales pt_clust_5="13000.00000" pt_clust_6="13000.00000" pt_clust_7="13000.00000" pt_clust_8="13000.00000" pt_clust_9="135.40109"></scales>
<clustering>
<clus scale="   90.127">  7  8 -1 -1</clus>
<clus scale="   91.029">  5  6 -1 -1</clus>
<clus scale="  145.648">  2  7  1 -1</clus>
<clus scale="  135.401">  1  9  2 -1</clus>
<clus scale="  135.401">  1  5  2 -1</clus>
</clustering>
</event>
<event>
 9    1  0.1321469E-005  0.1341750E+03  0.7546771E-02  0.1223959E+00
         -3   -1    0    0    0  501 -0.00000000000E+00  0.00000000000E+00  0.61894173090E+02  0.61894173090E+02  0.00000000000E+00 0.  1.
         21   -1    0    0  501  502  0.00000000000E+00 -0.00000000000E+00 -0.48570888368E+03  0.48570888368E+03  0.00000000000E+00 0. -1.
         23    2    1    2    0    0  0.94871649870E+02 -0.15321190955E+02 -0.57855591030E+02  0.14096598595E+03  0.85374299063E+02 0.  0.
         23    2    1    2    0    0 -0.89524832720E+02 -0.10718161973E+02 -0.35382091277E+03  0.37741426434E+03  0.95512899337E+02 0.  0.
        -13    1    4    4    0    0 -0.97683971966E+02  0.17124547902E+02 -0.30392067947E+03  0.31969233324E+03  0.00000000000E+00 0. -1.
         13    1    4    4    0    0  0.81591392453E+01 -0.27842709875E+02 -0.49900233303E+02  0.57721931102E+02  0.00000000000E+00 0.  1.
        -13    1    3    3    0    0  0.37211820961E+02  0.32772889927E+02 -0.65273412103E+01  0.50013879241E+02  0.00000000000E+00 0.  1.
         13    1    3    3    0    0  0.57659828909E+02 -0.48094080881E+02 -0.51328249819E+02  0.90952106711E+02  0.00000000000E+00 0. -1.
         -3    1    1    2    0  502 -0.53468171499E+01  0.26039352927E+02 -0.12138206783E+02  0.29222806478E+02  0.00000000000E+00 0.  1.
<scales pt_clust_5="13000.00000" pt_clust_6="13000.00000" pt_clust_7="13000.00000" pt_clust_8="13000.00000" pt_clust_9="26.58265"></scales>
<clustering>
<clus scale="   26.583">  2  9  1 -1</clus>
<clus scale="   85.374">  7  8 -1 -1</clus>
<clus scale="   95.513">  5  6 -1 -1</clus>
<clus scale="  127.157">  1  7  2 -1</clus>
<clus scale="   26.583">  2  5  1 -1</clus>
</clustering>
</event>
<event>
 9    1  0.1321469E-005  0.1285844E+03  0.7546771E-02  0.1231651E+00
         21   -1    0    0  501  502  0.00000000000E+00  0.00000000000E+00  0.17696434027E+03  0.17696434027E+03  0.00000000000E+00 0. -1.
         -1   -1    0    0    0  501 -0.00000000000E+00 -0.00000000000E+00 -0.12920475536E+03  0.12920475536E+03  0.00000000000E+00 0.  1.
         23    2    1    2    0    0 -0.82590510490E+02 -0.57565709178E+02 -0.32148607567E+02  0.14066398047E+03  0.92832209588E+02 0.  0.
         23    2    1    2    0    0  0.49050087052E+02  0.47899716429E+02  0.67229027636E+02  0.12836817074E+03  0.85195957810E+02 0.  0.
        -11    1    3    3    0    0 -0.44506000928E+02 -0.77170695698E+02 -0.39066925388E+02  0.97274483049E+02  0.00000000000E+00 0.  1.
         11    1    3    3    0    0 -0.38084509561E+02  0.19604986520E+02  0.69183178215E+01  0.43389497421E+02  0.00000000000E+00 0. -1.
        -13    1    4    4    0    0  0.31617009231E+02  0.11187908209E+02 -0.14926785757E+02  0.36709855568E+02  0.00000000000E+00 0.  1.
         13    1    4    4    0    0  0.17433077822E+02  0.36711808219E+02  0.82155813393E+02  0.91658315167E+02  0.00000000000E+00 0. -1.
         -1    1    1    2    0  502  0.33540423437E+02  0.96659927496E+01  0.12679164841E+02  0.37136944425E+02  0.00000000000E+00 0.  1.
<scales pt_clust_5="13000.00000" pt_clust_6="13000.00000" pt_clust_7="13000.00000" pt_clust_8="13000.00000" pt_clust_9="34.90546"></scales>
<clustering>
<clus scale="   34.905">  1  9  2 -1</clus>
<clus scale="   85.196">  7  8 -1 -1</clus>
<clus scale="   92.832">  5  6 -1 -1</clus>
<clus scale="  123.185">  1  7  2 -1</clus>
<clus scale="   34.905">  1  5  2 -1</clus>
</clustering>
</event>
<event>
 9    1  0.1321469E-005  0.3021046E+03  0.7546771E-02  0.1084298E+00
          1   -1    0    0  502    0 -0.00000000000E+00  0.00000000000E+00  0.14042678476E+04  0.14042678476E+04  0.00000000000E+00 0. -1.
         21   -1    0    0  501  502  0.00000000000E+00 -0.00000000000E+00 -0.96506723845E+02  0.96506723845E+02  0.00000000000E+00 0. -1.
         23    2    1    2    0    0 -0.19453034292E+03 -0.20986078055E+03  0.59114808001E+03  0.66302596065E+03  0.90905282919E+02 0.  0.
         23    2    1    2    0    0  0.26616058262E+03  0.13350189839E+03  0.62505570542E+03  0.69866476441E+03  0.93667526624E+02 0.  0.
        -13    1    3    3    0    0 -0.10152677424E+03 -0.51742351027E+02  0.18347037343E+03  0.21597762547E+03  0.00000000000E+00 0.  1.
         13    1    3    3    0    0 -0.93003568684E+02 -0.15811842952E+03  0.40767770658E+03  0.44704833517E+03  0.00000000000E+00 0. -1.
        -13    1    4    4    0    0  0.19237836609E+02  0.21619943867E+02  0.18663815987E+02  0.34436236110E+02  0.00000000000E+00 0.  1.
         13    1    4    4    0    0  0.24692274601E+03  0.11188195452E+03  0.60639188943E+03  0.66422852831E+03  0.00000000000E+00 0. -1.
          1    1    1    2  501    0 -0.71630239694E+02  0.76358882157E+02  0.91557338318E+02  0.13908384638E+03  0.00000000000E+00 0. -1.
<scales pt_clust_5="13000.00000" pt_clust_6="13000.00000" pt_clust_7="13000.00000" pt_clust_8="13000.00000" pt_clust_9="104.69752"></scales>
<clustering>
<clus scale="   90.905">  5  6 -1 -1</clus>
<clus scale="   93.668">  7  8 -1 -1</clus>
<clus scale="  104.698">  2  9  1 -1</clus>
<clus scale="  301.260">  1  5  2 -1</clus>
<clus scale="  104.698">  2  5  1 -1</clus>
</clustering>
</event>
<event>
 9    1  0.1321469E-005  0.1087825E+03  0.7546771E-02  0.1263875E+00
          2   -1    0    0  502    0 -0.00000000000E+00  0.00000000000E+00  0.20450133691E+03  0.20450133691E+03  0.00000000000E+00 0. -1.
         21   -1    0    0  501  502  0.00000000000E+00 -0.00000000000E+00 -0.12652625754E+03  0.12652625754E+03  0.00000000000E+00 0.  1.
         23    2    1    2    0    0  0.23209566333E+00  0.58372331173E+02  0.86311098379E+02  0.13782741009E+03  0.90218658570E+02 0.  0.
         23    2    1    2    0    0 -0.21020952924E+02 -0.62216284771E+02  0.57782933503E+02  0.12378355490E+03  0.87582843674E+02 0.  0.
        -11    1    3    3    0    0  0.43397652461E+02  0.14162535503E+02  0.37913704397E+02  0.59341238882E+02  0.00000000000E+00 0. -1.
         11    1    3    3    0    0 -0.43165556798E+02  0.44209795669E+02  0.48397393982E+02  0.78486171209E+02  0.00000000000E+00 0.  1.
        -11    1    4    4    0    0  0.12064240295E+02 -0.18537290778E+02  0.64865723064E+02  0.68532759115E+02  0.00000000000E+00 0. -1.
         11    1    4    4    0    0 -0.33085193219E+02 -0.43678993993E+02 -0.70827895603E+01  0.55250795782E+02  0.00000000000E+00 0.  1.
          2    1    1    2  501    0  0.20788857261E+02  0.38439535985E+01 -0.66118952512E+02  0.69416629468E+02  0.00000000000E+00 0. -1.
<scales pt_clust_5="13000.00000" pt_clust_6="13000.00000" pt_clust_7="13000.00000" pt_clust_8="13000.00000" pt_clust_9="21.14125"></scales>
<clustering>
<clus scale="   21.141">  2  9  1 -1</clus>
<clus scale="   87.583">  7  8 -1 -1</clus>
<clus scale="   90.219">  5  6 -1 -1</clus>
<clus scale="  106.607">  2  7  1 -1</clus>
<clus scale="   21.141">  2  5  1 -1</clus>
</clustering>
</event>
<event>
 9    1  0.1321469E-005  0.1913756E+03  0.7546771E-02  0.1157244E+00
         -1   -1    0    0    0  501 -0.00000000000E+00  0.00000000000E+00  0.36121582530E+03  0.36121582530E+03  0.00000000000E+00 0.  1.
         21   -1    0    0  501  502  0.00000000000E+00 -0.00000000000E+00 -0.18111122043E+03  0.18111122043E+03  0.00000000000E+00 0.  1.
         23    2    1    2    0    0 -0.12958542472E+03 -0.17747459803E+03  0.16127344426E+03  0.28741315779E+03  0.91145949996E+02 0.  0.
         23    2    1    2    0    0  0.57519638074E+02  0.93767924317E+02 -0.65691444131E+00  0.14275297720E+03  0.90978286238E+02 0.  0.
        -11    1    3    3    0    0  0.87255754968E+01 -0.45498417204E+02  0.25017667672E+02  0.52650976549E+02  0.00000000000E+00 0. -1.
         11    1    3    3    0    0 -0.13831100022E+03 -0.13197618083E+03  0.13625577659E+03  0.23476218124E+03  0.00000000000E+00 0.  1.
        -13    1    4    4    0    0  0.15195339084E+02 -0.14529201865E+02 -0.14672492337E+02  0.25637434897E+02  0.00000000000E+00 0. -1.
         13    1    4    4    0    0  0.42324298990E+02  0.10829712618E+03  0.14015577896E+02  0.11711554230E+03  0.00000000000E+00 0.  1.
         -1    1    1    2    0  502  0.72065786651E+02  0.83706673715E+02  0.19488075052E+02  0.11216091075E+03  0.00000000000E+00 0.  1.
<scales pt_clust_5="13000.00000" pt_clust_6="13000.00000" pt_clust_7="13000.00000" pt_clust_8="13000.00000" pt_clust_9="110.45490"></scales>
<clustering>
<clus scale="   90.978">  7  8 -1 -1</clus>
<clus scale="   91.146">  5  6 -1 -1</clus>
<clus scale="  110.455">  2  9  1 -1</clus>
<clus scale="  191.296">  2  7  1 -1</clus>
<clus scale="  110.455">  2  5  1 -1</clus>
</clustering>
</event>
<event>
 9    1  0.1321469E-005  0.9304234E+02  0.7546771E-02  0.1295765E+00
          4   -1    0    0  502    0 -0.00000000000E+00  0.00000000000E+00  0.22189974045E+03  0.22189974045E+03  0.00000000000E+00 0. -1.
         21   -1    0    0  501  502  0.00000000000E+00 -0.00000000000E+00 -0.16728965096E+03  0.16728965096E+03  0.00000000000E+00 0. -1.
         23    2    1    2    0    0  0.13472736568E+02 -0.19289442374E+02  0.17416839416E+03  0.19769787010E+03  0.90532983499E+02 0.  0.
         23    2    1    2    0    0  0.29344844122E+02  0.16180212114E+02 -0.11228464375E+03  0.14794937309E+03  0.90323068121E+02 0.  0.
        -11    1    3    3    0    0  0.11274133257E+02  0.26964716708E+02  0.16915731118E+02  0.33768979658E+02  0.00000000000E+00 0.  1.
         11    1    3    3    0    0  0.21986033112E+01 -0.46254159083E+02  0.15725266304E+03  0.16392889044E+03  0.00000000000E+00 0. -1.
        -13    1    4    4    0    0 -0.19614029839E+02  0.18908900205E+02 -0.20746599260E+01  0.27323266410E+02  0.00000000000E+00 0.  1.
         13    1    4    4    0    0  0.48958873960E+02 -0.27286880908E+01 -0.11020998382E+03  0.12062610668E+03  0.00000000000E+00 0. -1.
          4    1    1    2  501    0 -0.42817580690E+02  0.31092302598E+01 -0.72736609101E+01  0.43542148224E+02  0.00000000000E+00 0. -1.
<scales pt_clust_5="13000.00000" pt_clust_6="13000.00000" pt_clust_7="13000.00000" pt_clust_8="13000.00000" pt_clust_9="42.93032"></scales>
<clustering>
<clus scale="   42.930">  2  9  1 -1</clus>
<clus scale="   90.323">  7  8 -1 -1</clus>
<clus scale="   90.533">  5  6 -1 -1</clus>
<clus scale="   92.838">  2  7  1 -1</clus>
<clus scale="   42.930">  2  5  1 -1</clus>
</clustering>
</event>
<event>
 9    1  0.1321469E-005  0.9819187E+02  0.7546771E-02  0.1284145E+00
          2   -1    0    0  502    0 -0.00000000000E+00  0.00000000000E+00  0.73088495006E+03  0.73088495006E+03  0.00000000000E+00 0. -1.
         21   -1    0    0  501  502  0.00000000000E+00 -0.00000000000E+00 -0.72035081179E+02  0.72035081179E+02  0.00000000000E+00 0. -1.
         23    2    1    2    0    0  0.74535123909E+01  0.29054896013E+02  0.34334370784E+03  0.35639664244E+03  0.90740967580E+02 0.  0.
         23    2    1    2    0    0 -0.57465745534E+02 -0.93812049366E+02  0.25085009660E+02  0.14479643021E+03  0.90739935944E+02 0.  0.
        -13    1    3    3    0    0 -0.36389192663E+02  0.35570797078E+02  0.19881591418E+03  0.20522481010E+03  0.00000000000E+00 0. -1.
         13    1    3    3    0    0  0.43842705054E+02 -0.65159010652E+01  0.14452779366E+03  0.15117183234E+03  0.00000000000E+00 0.  1.
        -13    1    4    4    0    0 -0.26886879121E+02 -0.34532965781E+02  0.56169925230E+02  0.71207376688E+02  0.00000000000E+00 0.  1.
         13    1    4    4    0    0 -0.30578866413E+02 -0.59279083585E+02 -0.31084915570E+02  0.73589053519E+02  0.00000000000E+00 0. -1.
          2    1    1    2  501    0  0.50012233143E+02  0.64757153352E+02  0.29042115137E+03  0.30172695859E+03  0.00000000000E+00 0. -1.
<scales pt_clust_5="13000.00000" pt_clust_6="13000.00000" pt_clust_7="13000.00000" pt_clust_8="13000.00000" pt_clust_9="81.82126"></scales>
<clustering>
<clus scale="   81.821">  2  9  1 -1</clus>
<clus scale="   90.740">  7  8 -1 -1</clus>
<clus scale="   90.741">  5  6 -1 -1</clus>
<clus scale="   98.191">  2  7  1 -1</clus>
<clus scale="   81.821">  2  5  1 -1</clus>
</clustering>
</event>
<event>
 9    1  0.1321469E-005  0.9176915E+02  0.7546771E-02  0.1300534E+00
         -2   -1    0    0    0  501 -0.00000000000E+00  0.00000000000E+00  0.96546389306E+02  0.96546389306E+02  0.00000000000E+00 0.  1.
         21   -1    0    0  501  502  0.00000000000E+00 -0.00000000000E+00 -0.26475310954E+03  0.26475310954E+03  0.00000000000E+00 0. -1.
         23    2    1    2    0    0 -0.17005566278E+02  0.22405802485E+02  0.13074823214E+02  0.93539556286E+02  0.88246746788E+02 0.  0.
         23    2    1    2    0    0 -0.25098115876E+02  0.13791916969E+02 -0.20941649435E+02  0.98078250689E+02  0.91436634796E+02 0.  0.
        -13    1    3    3    0    0 -0.40998976854E+02  0.27346100462E+02 -0.19312715162E+02  0.52931146601E+02  0.00000000000E+00 0. -1.
         13    1    3    3    0    0  0.23993410576E+02 -0.49402979767E+01  0.32387538375E+02  0.40608409686E+02  0.00000000000E+00 0.  1.
        -13    1    4    4    0    0  0.40540963281E+01  0.39997478240E+02  0.16884747272E+02  0.43604227468E+02  0.00000000000E+00 0.  1.
         13    1    4    4    0    0 -0.29152212204E+02 -0.26205561272E+02 -0.37826396708E+02  0.54474023221E+02  0.00000000000E+00 0. -1.
         -2    1    1    2    0  502  0.42103682153E+02 -0.36197719454E+02 -0.16033989401E+03  0.16968169187E+03  0.00000000000E+00 0.  1.
<scales pt_clust_5="13000.00000" pt_clust_6="13000.00000" pt_clust_7="13000.00000" pt_clust_8="13000.00000" pt_clust_9="55.52472"></scales>
<clustering>
<clus scale="   55.525">  2  9  1 -1</clus>
<clus scale="   88.247">  5  6 -1 -1</clus>
<clus scale="   88.591">  1  5  2 -1</clus>
<clus scale="   91.437">  7  8 -1 -1</clus>
<clus scale="   55.525">  2  5  1 -1</clus>
</clustering>
</event>
<event>
 9    1  0.1321469E-005  0.1057033E+03  0.7546771E-02  0.1269384E+00
         -1   -1    0    0    0  501 -0.00000000000E+00  0.00000000000E+00  0.20506612077E+03  0.20506612077E+03  0.00000000000E+00 0.  1.
         21   -1    0    0  501  502  0.00000000000E+00 -0.00000000000E+00 -0.17097645526E+03  0.17097645526E+03  0.00000000000E+00 0.  1.
         23    2    1    2    0    0 -0.77621931718E+01  0.18366235947E+02  0.38230651190E+02  0.10129146912E+03  0.91655925946E+02 0.  0.
         23    2    1    2    0    0 -0.69393265937E+01 -0.87391300551E+02  0.91773511356E+02  0.15567052507E+03  0.90141784567E+02 0.  0.
        -13    1    4    4    0    0  0.16153169142E+02 -0.39287515043E+02  0.93058813741E+02  0.10229553522E+03  0.00000000000E+00 0.  1.
         13    1    4    4    0    0 -0.23092495736E+02 -0.48103785508E+02 -0.12853023846E+01  0.53374989852E+02  0.00000000000E+00 0. -1.
        -13    1    3    3    0    0 -0.18655343118E+02 -0.16819025488E+02 -0.20191745697E+02  0.32227442336E+02  0.00000000000E+00 0. -1.
         13    1    3    3    0    0  0.10893149946E+02  0.35185261435E+02  0.58422396888E+02  0.69064026788E+02  0.00000000000E+00 0.  1.
         -1    1    1    2    0  502  0.14701519766E+02  0.69025064603E+02 -0.95914497042E+02  0.11908058183E+03  0.00000000000E+00 0.  1.
<scales pt_clust_5="13000.00000" pt_clust_6="13000.00000" pt_clust_7="13000.00000" pt_clust_8="13000.00000" pt_clust_9="70.57333"></scales>
<clustering>
<clus scale="   70.573">  2  9  1 -1</clus>
<clus scale="   90.142">  5  6 -1 -1</clus>
<clus scale="   91.656">  7  8 -1 -1</clus>
<clus scale="  104.393">  2  5  1 -1</clus>
<clus scale="   70.573">  2  5  1 -1</clus>
</clustering>
</event>
<event>
 9    1  0.1321469E-005  0.1104323E+03  0.7546771E-02  0.1260466E+00
          2   -1    0    0  502    0 -0.00000000000E+00  0.00000000000E+00  0.20412158122E+03  0.20412158122E+03  0.00000000000E+00 0. -1.
         21   -1    0    0  501  502  0.00000000000E+00 -0.00000000000E+00 -0.17274101817E+03  0.17274101817E+03  0.00000000000E+00 0.  1.
         23    2    1    2    0    0  0.25262615796E+02  0.47745388709E+02  0.11563691120E+03  0.15745734134E+03  0.92212240020E+02 0.  0.
         23    2    1    2    0    0 -0.87880947020E+02 -0.48489489126E+02 -0.34505022470E+02  0.13942523869E+03  0.90412992448E+02 0.  0.
        -11    1    3    3    0    0  0.26714903655E+02 -0.16657987256E+02  0.87799310412E+01  0.32684274595E+02  0.00000000000E+00 0.  1.
         11    1    3    3    0    0 -0.14522878590E+01  0.64403375965E+02  0.10685698016E+03  0.12477306674E+03  0.00000000000E+00 0. -1.
        -11    1    4    4    0    0 -0.14541756531E+02  0.21686669554E+02 -0.27127708395E+02  0.37652182966E+02  0.00000000000E+00 0. -1.
         11    1    4    4    0    0 -0.73339190489E+02 -0.70176158680E+02 -0.73773140751E+01  0.10177305573E+03  0.00000000000E+00 0.  1.
          2    1    1    2  501    0  0.62618331224E+02  0.74410041796E+00 -0.49751325681E+02  0.79980019366E+02  0.00000000000E+00 0. -1.
<scales pt_clust_5="13000.00000" pt_clust_6="13000.00000" pt_clust_7="13000.00000" pt_clust_8="13000.00000" pt_clust_9="62.62275"></scales>
<clustering>
<clus scale="   62.623">  2  9  1 -1</clus>
<clus scale="   90.413">  7  8 -1 -1</clus>
<clus scale="   92.212">  5  6 -1 -1</clus>
<clus scale="  108.934">  2  7  1 -1</clus>
<clus scale="   62.623">  2  5  1 -1</clus>
</clustering>
</event>
<event>
 9    1  0.1321469E-005  0.1010693E+03  0.7546771E-02  0.1284493E+00
         21   -1    0    0  501  502  0.00000000000E+00  0.00000000000E+00  0.83735001496E+02  0.83735001496E+02  0.00000000000E+00 0. -1.
         -4   -1    0    0    0  501 -0.00000000000E+00 -0.00000000000E+00 -0.22659504639E+03  0.22659504639E+03  0.00000000000E+00 0.  1.
         23    2    1    2    0    0 -0.40731227121E+02  0.33937798172E+01 -0.15218644633E+03  0.17582633930E+03  0.77997670093E+02 0.  0.
         23    2    1    2    0    0  0.54426595578E+02 -0.18637968971E+02 -0.74900445354E+01  0.10799444087E+03  0.91088255543E+02 0.  0.
        -11    1    3    3    0    0 -0.22580180299E+02 -0.31565932266E+02 -0.11606140454E+03  0.12237860208E+03  0.00000000000E+00 0.  1.
         11    1    3    3    0    0 -0.18151046821E+02  0.34959712083E+02 -0.36125041784E+02  0.53447737216E+02  0.00000000000E+00 0. -1.
        -13    1    4    4    0    0  0.27273190124E+02 -0.55398325639E+02 -0.42037182196E+00  0.61749316560E+02  0.00000000000E+00 0.  1.
         13    1    4    4    0    0  0.27153405454E+02  0.36760356667E+02 -0.70696727135E+01  0.46245124309E+02  0.00000000000E+00 0. -1.
         -4    1    1    2    0  502 -0.13695368457E+02  0.15244189154E+02  0.16816445969E+02  0.26509267723E+02  0.00000000000E+00 0.  1.
<scales pt_clust_5="13000.00000" pt_clust_6="13000.00000" pt_clust_7="13000.00000" pt_clust_8="13000.00000" pt_clust_9="20.49264"></scales>
<clustering>
<clus scale="   20.493">  1  9  2 -1</clus>
<clus scale="   77.998">  5  6 -1 -1</clus>
<clus scale="   89.451">  2  5  1 -1</clus>
<clus scale="   91.088">  7  8 -1 -1</clus>
<clus scale="   20.493">  1  5  2 -1</clus>
</clustering>
</event>
<event>
 9    1  0.1321469E-005  0.1388411E+03  0.7546771E-02  0.1215186E+00
         21   -1    0    0  501  502  0.00000000000E+00  0.00000000000E+00  0.69640124882E+02  0.69640124882E+02  0.00000000000E+00 0. -1.
          1   -1    0    0  502    0 -0.00000000000E+00 -0.00000000000E+00 -0.79340919628E+03  0.79340919628E+03  0.00000000000E+00 0. -1.
         23    2    1    2    0    0 -0.10883513209E+03  0.17202253510E+01 -0.52274831672E+03  0.54202369580E+03  0.93144184038E+02 0.  0.
         23    2    1    2    0    0  0.92102078198E+02  0.20691173642E+02 -0.23957134814E+03  0.27339775376E+03  0.91874824824E+02 0.  0.
        -11    1    3    3    0    0 -0.68377669848E+02 -0.43099658423E+02 -0.25287567310E+03  0.26547917495E+03  0.00000000000E+00 0.  1.
         11    1    3    3    0    0 -0.40457462245E+02  0.44819883774E+02 -0.26987264362E+03  0.27654452085E+03  0.00000000000E+00 0. -1.
        -13    1    4    4    0    0  0.48452131771E+02 -0.12483601417E+02 -0.33636831510E+02  0.60290014194E+02  0.00000000000E+00 0.  1.
         13    1    4    4    0    0  0.43649946427E+02  0.33174775060E+02 -0.20593451663E+03  0.21310773957E+03  0.00000000000E+00 0. -1.
          1    1    1    2  501    0  0.16733053895E+02 -0.22411398993E+02  0.38550593460E+02  0.47627871605E+02  0.00000000000E+00 0. -1.
<scales pt_clust_5="13000.00000" pt_clust_6="13000.00000" pt_clust_7="13000.00000" pt_clust_8="13000.00000" pt_clust_9="27.96902"></scales>
<clustering>
<clus scale="   27.969">  1  9  2 -1</clus>
<clus scale="   91.875">  7  8 -1 -1</clus>
<clus scale="   93.144">  5  6 -1 -1</clus>
<clus scale="  137.993">  1  7  2 -1</clus>
<clus scale="   27.969">  1  5  2 -1</clus>
</clustering>
</event>
<event>
 9    1  0.1321469E-005  0.2497076E+03  0.7546771E-02  0.1146085E+00
         21   -1    0    0  501  502  0.00000000000E+00  0.00000000000E+00  0.87972158597E+03  0.87972158597E+03  0.00000000000E+00 0.  1.
         -1   -1    0    0    0  501 -0.00000000000E+00 -0.00000000000E+00 -0.13184251153E+03  0.13184251153E+03  0.00000000000E+00 0.  1.
         23    2    1    2    0    0  0.63437531515E+02 -0.15686730422E+02  0.83539228133E+02  0.13979603470E+03  0.91069944350E+02 0.  0.
         23    2    1    2    0    0 -0.16795733866E+02 -0.21745467737E+03  0.96161682025E+02  0.25584858780E+03  0.92966646723E+02 0.  0.
        -11    1    3    3    0    0  0.50796672889E+01  0.30711948096E+02  0.50404841872E+01  0.31534635823E+02  0.00000000000E+00 0.  1.
         11    1    3    3    0    0  0.58357864226E+02 -0.46398678518E+02  0.78498743946E+02  0.10826139887E+03  0.00000000000E+00 0. -1.
        -13    1    4    4    0    0  0.36613412416E+02 -0.12364341587E+03  0.47242788008E+02  0.13733214218E+03  0.00000000000E+00 0. -1.
         13    1    4    4    0    0 -0.53409146281E+02 -0.93811261506E+02  0.48918894017E+02  0.11851644563E+03  0.00000000000E+00 0.  1.
         -1    1    1    2    0  502 -0.46641797649E+02  0.23314140780E+03  0.56817816428E+03  0.61591947500E+03  0.00000000000E+00 0.  1.
<scales pt_clust_5="13000.00000" pt_clust_6="13000.00000" pt_clust_7="13000.00000" pt_clust_8="13000.00000" pt_clust_9="231.75656"></scales>
<clustering>
<clus scale="   91.070">  5  6 -1 -1</clus>
<clus scale="   92.967">  7  8 -1 -1</clus>
<clus scale="  112.090">  2  5  1 -1</clus>
<clus scale="  231.757">  1  9  2 -1</clus>
<clus scale="  231.757">  1  5  2 -1</clus>
</clustering>
</event>
<event>
 9    1  0.1321469E-005  0.9768370E+02  0.7546771E-02  0.1287485E+00
          4   -1    0    0  502    0 -0.00000000000E+00  0.00000000000E+00  0.94284634344E+02  0.94284634344E+02  0.00000000000E+00 0. -1.
         21   -1    0    0  501  502  0.00000000000E+00 -0.00000000000E+00 -0.36213209167E+03  0.36213209167E+03  0.00000000000E+00 0.  1.
         23    2    1    2    0    0  0.31433441680E+01 -0.14266660487E+02  0.27157531046E+02  0.99457307494E+02  0.94555836982E+02 0.  0.
         23    2    1    2    0    0 -0.26749930699E+01  0.49185222912E+02 -0.59519300664E+02  0.11889842955E+03  0.90376698637E+02 0.  0.
        -13    1    4    4    0    0  0.42279033494E+02  0.37010718687E+02 -0.35887764138E+02  0.66672644958E+02  0.00000000000E+00 0.  1.
         13    1    4    4    0    0 -0.44954026564E+02  0.12174504225E+02 -0.23631536526E+02  0.52225784589E+02  0.00000000000E+00 0. -1.
        -13    1    3    3    0    0 -0.10006093986E+02 -0.50526342145E+02  0.31916421627E+02  0.60594481076E+02  0.00000000000E+00 0. -1.
         13    1    3    3    0    0  0.13149438154E+02  0.36259681658E+02 -0.47588905804E+01  0.38862826419E+02  0.00000000000E+00 0.  1.
          4    1    1    2  501    0 -0.46835109811E+00 -0.34918562425E+02 -0.23548568771E+03  0.23806098897E+03  0.00000000000E+00 0. -1.
<scales pt_clust_5="13000.00000" pt_clust_6="13000.00000" pt_clust_7="13000.00000" pt_clust_8="13000.00000" pt_clust_9="34.92170"></scales>
<clustering>
<clus scale="   34.922">  2  9  1 -1</clus>
<clus scale="   90.377">  5  6 -1 -1</clus>
<clus scale="   93.644">  2  5  1 -1</clus>
<clus scale="   94.556">  7  8 -1 -1</clus>
<clus scale="   34.922">  2  5  1 -1</clus>
</clustering>
</event>
<event>
 9    1  0.1321469E-005  0.1242844E+03  0.7546771E-02  0.1238159E+00
          1   -1    0    0  502    0 -0.00000000000E+00  0.00000000000E+00  0.20145374820E+03  0.20145374820E+03  0.00000000000E+00 0. -1.
         21   -1    0    0  501  502  0.00000000000E+00 -0.00000000000E+00 -0.18394225566E+03  0.18394225566E+03  0.00000000000E+00 0.  1.
         23    2    1    2    0    0 -0.75623198037E+02 -0.14571298710E+02  0.12632313478E+03  0.17512565278E+03  0.93703089885E+02 0.  0.
         23    2    1    2    0    0  0.94089718875E+02  0.50191010380E+02 -0.70085719640E+02  0.15450769930E+03  0.87112618634E+02 0.  0.
        -11    1    3    3    0    0  0.19193642487E+02 -0.86925543742E+01  0.46469702240E+02  0.51023422462E+02  0.00000000000E+00 0.  1.
         11    1    3    3    0    0 -0.94816840524E+02 -0.58787443355E+01  0.79853432542E+02  0.12410223032E+03  0.00000000000E+00 0. -1.
        -13    1    4    4    0    0  0.43779249901E+02  0.64908414295E+02 -0.17431590618E+02  0.80209633584E+02  0.00000000000E+00 0.  1.
         13    1    4    4    0    0  0.50310468974E+02 -0.14717403916E+02 -0.52654129021E+02  0.74298065718E+02  0.00000000000E+00 0. -1.
          1    1    1    2  501    0 -0.18466520838E+02 -0.35619711670E+02 -0.38725922602E+02  0.55762651772E+02  0.00000000000E+00 0. -1.
<scales pt_clust_5="13000.00000" pt_clust_6="13000.00000" pt_clust_7="13000.00000" pt_clust_8="13000.00000" pt_clust_9="40.12202"></scales>
<clustering>
<clus scale="   40.122">  2  9  1 -1</clus>
<clus scale="   87.113">  7  8 -1 -1</clus>
<clus scale="   93.703">  5  6 -1 -1</clus>
<clus scale="  119.394">  2  7  1 -1</clus>
<clus scale="   40.122">  2  5  1 -1</clus>
</clustering>
</event>
<event>
 9    1  0.1321469E-005  0.1344122E+03  0.7546771E-02  0.1229228E+00
         21   -1    0    0  501  502  0.00000000000E+00  0.00000000000E+00  0.19838037755E+03  0.19838037755E+03  0.00000000000E+00 0.  1.
         -3   -1    0    0    0  501 -0.00000000000E+00 -0.00000000000E+00 -0.11736569303E+03  0.11736569303E+03  0.00000000000E+00 0.  1.
         23    2    1    2    0    0  0.27588075062E+02 -0.48905103893E+02 -0.52577855872E+01  0.12778533316E+03  0.11466750189E+03 0.  0.
         23    2    1    2    0    0 -0.46501515993E+02  0.78548583199E+02  0.48772649009E+02  0.13655362998E+03  0.89083397205E+02 0.  0.
        -13    1    4    4    0    0 -0.16867690616E+02  0.92987984889E+02  0.38217293017E+02  0.10194040321E+03  0.00000000000E+00 0.  1.
         13    1    4    4    0    0 -0.29633825377E+02 -0.14439401690E+02  0.10555355991E+02  0.34613226775E+02  0.00000000000E+00 0. -1.
        -13    1    3    3    0    0 -0.19247157601E+02  0.30128316512E+02 -0.31907707412E+01  0.35893586468E+02  0.00000000000E+00 0.  1.
         13    1    3    3    0    0  0.46835232664E+02 -0.79033420406E+02 -0.20670148460E+01  0.91891746692E+02  0.00000000000E+00 0. -1.
         -3    1    1    2    0  502  0.18913440931E+02 -0.29643479305E+02  0.37499821100E+02  0.51407107444E+02  0.00000000000E+00 0.  1.
<scales pt_clust_5="13000.00000" pt_clust_6="13000.00000" pt_clust_7="13000.00000" pt_clust_8="13000.00000" pt_clust_9="35.16325"></scales>
<clustering>
<clus scale="   35.163">  1  9  2 -1</clus>
<clus scale="   89.083">  5  6 -1 -1</clus>
<clus scale="  113.375">  1  5  2 -1</clus>
<clus scale="  114.668">  7  8 -1 -1</clus>
<clus scale="   35.163">  1  5  2 -1</clus>
</clustering>
</event>
<event>
 9    1  0.1321469E-005  0.9513160E+02  0.7546771E-02  0.1291293E+00
         21   -1    0    0  501  502  0.00000000000E+00  0.00000000000E+00  0.27848531621E+03  0.27848531621E+03  0.00000000000E+00 0. -1.
          2   -1    0    0  502    0 -0.00000000000E+00 -0.00000000000E+00 -0.11174524484E+03  0.11174524484E+03  0.00000000000E+00 0. -1.
         23    2    1    2    0    0  0.15235638801E+02 -0.20885572356E+02 -0.72236735516E+02  0.11893594882E+03  0.90880592763E+02 0.  0.
         23    2    1    2    0    0  0.77013040256E+01  0.32478807431E+02  0.15199639190E+03  0.18059676752E+03  0.91641182176E+02 0.  0.
        -11    1    3    3    0    0  0.38896225346E+01 -0.49956949996E+02 -0.12663076612E+02  0.51683455048E+02  0.00000000000E+00 0. -1.
         11    1    3    3    0    0  0.11346016267E+02  0.29071377641E+02 -0.59573658904E+02  0.67252493770E+02  0.00000000000E+00 0.  1.
        -13    1    4    4    0    0 -0.21266747416E+02 -0.24053761069E+02  0.68795029919E+02  0.75918470142E+02  0.00000000000E+00 0.  1.
         13    1    4    4    0    0  0.28968051441E+02  0.56532568499E+02  0.83201361981E+02  0.10467829737E+03  0.00000000000E+00 0. -1.
          2    1    1    2  501    0 -0.22936942827E+02 -0.11593235075E+02  0.86980414986E+02  0.90697844720E+02  0.00000000000E+00 0. -1.
<scales pt_clust_5="13000.00000" pt_clust_6="13000.00000" pt_clust_7="13000.00000" pt_clust_8="13000.00000" pt_clust_9="25.70032"></scales>
<clustering>
<clus scale="   25.700">  1  9  2 -1</clus>
<clus scale="   90.881">  5  6 -1 -1</clus>
<clus scale="   91.641">  7  8 -1 -1</clus>
<clus scale="   94.399">  2  5  1 -1</clus>
<clus scale="   25.700">  1  5  2 -1</clus>
</clustering>
</event>
<event>
 9    1  0.1321469E-005  0.1046249E+03  0.7546771E-02  0.1270982E+00
         -1   -1    0    0    0  501 -0.00000000000E+00  0.00000000000E+00  0.93290063458E+02  0.93290063458E+02  0.00000000000E+00 0.  1.
         21   -1    0    0  501  502  0.00000000000E+00 -0.00000000000E+00 -0.26802958613E+03  0.26802958613E+03  0.00000000000E+00 0.  1.
         23    2    1    2    0    0 -0.53109360135E+02  0.12874682665E+02 -0.29852940728E+01  0.10749006700E+03  0.92514004000E+02 0.  0.
         23    2    1    2    0    0  0.35702395369E+02 -0.22782546333E+02 -0.24079972658E+02  0.10480322903E+03  0.92790981674E+02 0.  0.
        -13    1    4    4    0    0  0.18141316191E+02  0.12431061748E+02  0.30448108514E+02  0.37559632072E+02  0.00000000000E+00 0.  1.
         13    1    4    4    0    0  0.17561079178E+02 -0.35213608081E+02 -0.54528081172E+02  0.67243596961E+02  0.00000000000E+00 0. -1.
        -13    1    3    3    0    0  0.69660432321E+01 -0.31677771800E+02  0.22613101018E+01  0.32513389671E+02  0.00000000000E+00 0. -1.
         13    1    3    3    0    0 -0.60075403367E+02  0.44552454465E+02 -0.52466041746E+01  0.74976677333E+02  0.00000000000E+00 0.  1.
         -1    1    1    2    0  502  0.17406964765E+02  0.99078636687E+01 -0.14767425594E+03  0.14902635355E+03  0.00000000000E+00 0.  1.
<scales pt_clust_5="13000.00000" pt_clust_6="13000.00000" pt_clust_7="13000.00000" pt_clust_8="13000.00000" pt_clust_9="20.02918"></scales>
<clustering>
<clus scale="   20.029">  2  9  1 -1</clus>
<clus scale="   92.514">  7  8 -1 -1</clus>
<clus scale="   92.791">  5  6 -1 -1</clus>
<clus scale="  104.379">  1  7  2 -1</clus>
<clus scale="   20.029">  2  5  1 -1</clus>
</clustering>
</event>
<event>
 9    1  0.1321469E-005  0.1714711E+03  0.7546771E-02  0.1176344E+00
          1   -1    0    0  502    0 -0.00000000000E+00  0.00000000000E+00  0.54299574025E+03  0.54299574025E+03  0.00000000000E+00 0. -1.
         21   -1    0    0  501  502  0.00000000000E+00 -0.00000000000E+00 -0.16988867433E+03  0.16988867433E+03  0.00000000000E+00 0. -1.
         23    2    1    2    0    0 -0.13422541838E+03  0.41810571637E+02  0.26225348843E+03  0.31099550753E+03  0.90425254598E+02 0.  0.
         23    2    1    2    0    0  0.13592794292E+03 -0.71527408770E+02  0.22324705954E+03  0.28562075231E+03  0.90262886527E+02 0.  0.
        -11    1    3    3    0    0 -0.34883145907E+02  0.33188835221E+02  0.26360835967E+02  0.54892862237E+02  0.00000000000E+00 0. -1.
         11    1    3    3    0    0 -0.99342272470E+02  0.86217364157E+01  0.23589265246E+03  0.25610264529E+03  0.00000000000E+00 0.  1.
        -11    1    4    4    0    0  0.28053549214E+02  0.17310119984E+02  0.18714640774E+02  0.37906195492E+02  0.00000000000E+00 0.  1.
         11    1    4    4    0    0  0.10787439371E+03 -0.88837528754E+02  0.20453241877E+03  0.24771455682E+03  0.00000000000E+00 0. -1.
          1    1    1    2  501    0 -0.17025245482E+01  0.29716837133E+02 -0.11239348206E+03  0.11626815475E+03  0.00000000000E+00 0. -1.
<scales pt_clust_5="13000.00000" pt_clust_6="13000.00000" pt_clust_7="13000.00000" pt_clust_8="13000.00000" pt_clust_9="29.76557"></scales>
<clustering>
<clus scale="   29.766">  2  9  1 -1</clus>
<clus scale="   90.263">  7  8 -1 -1</clus>
<clus scale="   90.425">  5  6 -1 -1</clus>
<clus scale="  171.386">  2  7  1 -1</clus>
<clus scale="   29.766">  2  5  1 -1</clus>
</clustering>
</event>
<event>
 9    1  0.1321469E-005  0.1404002E+03  0.7546771E-02  0.1223028E+00
         -2   -1    0    0    0  501 -0.00000000000E+00  0.00000000000E+00  0.89445019927E+03  0.89445019927E+03  0.00000000000E+00 0.  1.
         21   -1    0    0  501  502  0.00000000000E+00 -0.00000000000E+00 -0.48285433420E+02  0.48285433420E+02  0.00000000000E+00 0.  1.
         23    2    1    2    0    0 -0.67409706919E+02 -0.71507118707E+01  0.52012351820E+03  0.53229107272E+03  0.90609660898E+02 0.  0.
         23    2    1    2    0    0 -0.49391439750E+02  0.35531840038E+02  0.22306145433E+03  0.25216368894E+03  0.10063840040E+03 0.  0.
        -11    1    3    3    0    0 -0.68495440613E+02 -0.35363025605E+02  0.45236394150E+03  0.45888484888E+03  0.00000000000E+00 0.  1.
         11    1    3    3    0    0  0.10857336933E+01  0.28212313734E+02  0.67759576702E+02  0.73406223842E+02  0.00000000000E+00 0. -1.
        -13    1    4    4    0    0 -0.32918182528E+02  0.64494107951E+02  0.19692764594E+03  0.20981800313E+03  0.00000000000E+00 0. -1.
         13    1    4    4    0    0 -0.16473257222E+02 -0.28962267913E+02  0.26133808396E+02  0.42345685819E+02  0.00000000000E+00 0.  1.
         -2    1    1    2    0  502  0.11680114667E+03 -0.28381128167E+02  0.10297979331E+03  0.15828087102E+03  0.00000000000E+00 0.  1.
<scales pt_clust_5="13000.00000" pt_clust_6="13000.00000" pt_clust_7="13000.00000" pt_clust_8="13000.00000" pt_clust_9="97.89860"></scales>
<clustering>
<clus scale="   90.610">  5  6 -1 -1</clus>
<clus scale="  100.638">  7  8 -1 -1</clus>
<clus scale="  113.161">  1  5  2 -1</clus>
<clus scale="   97.899">  2  9  1 -1</clus>
<clus scale="   97.899">  2  5  1 -1</clus>
</clustering>
</event>
<event>
 9    1  0.1321469E-005  0.1854613E+03  0.7546771E-02  0.1162811E+00
         21   -1    0    0  501  502  0.00000000000E+00  0.00000000000E+00  0.99079393923E+02  0.99079393923E+02  0.00000000000E+00 0. -1.
          1   -1    0    0  502    0 -0.00000000000E+00 -0.00000000000E+00 -0.47603320560E+03  0.47603320560E+03  0.00000000000E+00 0. -1.
         23    2    1    2    0    0  0.14843064174E+02  0.16177117060E+03 -0.27789106073E+03  0.33499353276E+03  0.92773903474E+02 0.  0.
         23    2    1    2    0    0 -0.32779972778E+02 -0.15193721951E+03 -0.11414316701E+03  0.21470532574E+03  0.94394221419E+02 0.  0.
        -11    1    4    4    0    0 -0.44686097785E+02 -0.30809742053E+02 -0.61699805059E+02  0.82176355998E+02  0.00000000000E+00 0. -1.
         11    1    4    4    0    0  0.11906125007E+02 -0.12112747746E+03 -0.52443361952E+02  0.13252896974E+03  0.00000000000E+00 0.  1.
        -11    1    3    3    0    0  0.12226164595E+02  0.13726510290E+03 -0.27807258730E+03  0.31034746879E+03  0.00000000000E+00 0. -1.
         11    1    3    3    0    0  0.26168995790E+01  0.24506067700E+02  0.18152656866E+00  0.24646063974E+02  0.00000000000E+00 0.  1.
          1    1    1    2  501    0  0.17936908604E+02 -0.98339510943E+01  0.15080416060E+02  0.25413741026E+02  0.00000000000E+00 0. -1.
<scales pt_clust_5="13000.00000" pt_clust_6="13000.00000" pt_clust_7="13000.00000" pt_clust_8="13000.00000" pt_clust_9="20.45579"></scales>
<clustering>
<clus scale="   20.456">  1  9  2 -1</clus>
<clus scale="   92.774">  7  8 -1 -1</clus>
<clus scale="   94.394">  5  6 -1 -1</clus>
<clus scale="  184.642">  2  7  1 -1</clus>
<clus scale="   20.456">  1  5  2 -1</clus>
</clustering>
</event>
<event>
 9    1  0.1321469E-005  0.1519409E+03  0.7546771E-02  0.1198159E+00
          1   -1    0    0  502    0 -0.00000000000E+00  0.00000000000E+00  0.88341294912E+03  0.88341294912E+03  0.00000000000E+00 0. -1.
         21   -1    0    0  501  502  0.00000000000E+00 -0.00000000000E+00 -0.44252643053E+02  0.44252643053E+02  0.00000000000E+00 0. -1.
         23    2    1    2    0    0  0.18617484770E+02 -0.13571835992E+03  0.54059961223E+03  0.56514741782E+03  0.91529116534E+02 0.  0.
         23    2    1    2    0    0 -0.36882480721E+02  0.96065580627E+02  0.28557862467E+03  0.31697163659E+03  0.91252147191E+02 0.  0.
        -11    1    3    3    0    0  0.44306809963E+02 -0.76593773810E+02  0.20297922898E+03  0.22142779182E+03  0.00000000000E+00 0.  1.
         11    1    3    3    0    0 -0.25689325193E+02 -0.59124586106E+02  0.33762038325E+03  0.34371962600E+03  0.00000000000E+00 0. -1.
        -13    1    4    4    0    0 -0.27118815326E+02 -0.86440160161E+01  0.96558112221E+02  0.10066587402E+03  0.00000000000E+00 0. -1.
         13    1    4    4    0    0 -0.97636653954E+01  0.10470959664E+03  0.18902051245E+03  0.21630576257E+03  0.00000000000E+00 0.  1.
          1    1    1    2  501    0  0.18264995951E+02  0.39652779289E+02  0.12982069173E+02  0.45546537766E+02  0.00000000000E+00 0. -1.
<scales pt_clust_5="13000.00000" pt_clust_6="13000.00000" pt_clust_7="13000.00000" pt_clust_8="13000.00000" pt_clust_9="43.65722"></scales>
<clustering>
<clus scale="   43.657">  2  9  1 -1</clus>
<clus scale="   91.252">  7  8 -1 -1</clus>
<clus scale="   91.529">  5  6 -1 -1</clus>
<clus scale="  151.774">  2  7  1 -1</clus>
<clus scale="   43.657">  2  5  1 -1</clus>
</clustering>
</event>
<event>
 9    1  0.1321469E-005  0.9832047E+02  0.7546771E-02  0.1285620E+00
          2   -1    0    0  502    0 -0.00000000000E+00  0.00000000000E+00  0.17958329795E+03  0.17958329795E+03  0.00000000000E+00 0. -1.
         21   -1    0    0  501  502  0.00000000000E+00 -0.00000000000E+00 -0.13175386666E+03  0.13175386666E+03  0.00000000000E+00 0.  1.
         23    2    1    2    0    0 -0.26512231062E+02  0.11326515331E+02  0.11825903134E+03  0.15135134783E+03  0.89949117009E+02 0.  0.
         23    2    1    2    0    0  0.21935630833E+02 -0.47581550596E+02 -0.54780631946E+02  0.12023329417E+03  0.93327121105E+02 0.  0.
        -13    1    3    3    0    0 -0.45618349574E+02  0.21217197821E+02  0.26029508604E+02  0.56645729048E+02  0.00000000000E+00 0. -1.
         13    1    3    3    0    0  0.19106118512E+02 -0.98906824894E+01  0.92229522732E+02  0.94705618778E+02  0.00000000000E+00 0.  1.
        -13    1    4    4    0    0 -0.14897201208E+02 -0.62295700922E+02 -0.18986718905E+02  0.66807009003E+02  0.00000000000E+00 0.  1.
         13    1    4    4    0    0  0.36832832042E+02  0.14714150326E+02 -0.35793913042E+02  0.53426285168E+02  0.00000000000E+00 0. -1.
          2    1    1    2  501    0  0.45766002285E+01  0.36255035265E+02 -0.15648968091E+02  0.39752522612E+02  0.00000000000E+00 0. -1.
<scales pt_clust_5="13000.00000" pt_clust_6="13000.00000" pt_clust_7="13000.00000" pt_clust_8="13000.00000" pt_clust_9="36.54275"></scales>
<clustering>
<clus scale="   36.543">  2  9  1 -1</clus>
<clus scale="   89.949">  5  6 -1 -1</clus>
<clus scale="   93.327">  7  8 -1 -1</clus>
<clus scale="   95.120">  1  5  2 -1</clus>
<clus scale="   36.543">  2  5  1 -1</clus>
</clustering>
</event>
<event>
 9    1  0.1321469E-005  0.1095340E+03  0.7546771E-02  0.1262673E+00
          1   -1    0    0  502    0 -0.00000000000E+00  0.00000000000E+00  0.61237751775E+03  0.61237751775E+03  0.00000000000E+00 0. -1.
         21   -1    0    0  501  502  0.00000000000E+00 -0.00000000000E+00 -0.47281806680E+02  0.47281806680E+02  0.00000000000E+00 0. -1.
         23    2    1    2    0    0  0.22076014393E+02  0.47048021686E+02  0.37405245518E+03  0.38839863811E+03  0.90760101974E+02 0.  0.
         23    2    1    2    0    0 -0.75862283804E+02 -0.68362077026E+02  0.13905201178E+03  0.19347674712E+03  0.87574711054E+02 0.  0.
        -11    1    3    3    0    0  0.54168635347E+02  0.33885276337E+02  0.29853338210E+03  0.30529433869E+03  0.00000000000E+00 0. -1.
         11    1    3    3    0    0 -0.32092620954E+02  0.13162745350E+02  0.75519073079E+02  0.83104299429E+02  0.00000000000E+00 0.  1.
        -13    1    4    4    0    0 -0.43610508427E+02 -0.45972012495E+02  0.17496160441E+02  0.65737493170E+02  0.00000000000E+00 0.  1.
         13    1    4    4    0    0 -0.32251775377E+02 -0.22390064531E+02  0.12155585134E+03  0.12773925395E+03  0.00000000000E+00 0. -1.
          1    1    1    2  501    0  0.53786269411E+02  0.21314055339E+02  0.51991244115E+02  0.77783939196E+02  0.00000000000E+00 0. -1.
<scales pt_clust_5="13000.00000" pt_clust_6="13000.00000" pt_clust_7="13000.00000" pt_clust_8="13000.00000" pt_clust_9="57.85544"></scales>
<clustering>
<clus scale="   57.855">  2  9  1 -1</clus>
<clus scale="   87.575">  7  8 -1 -1</clus>
<clus scale="   90.760">  5  6 -1 -1</clus>
<clus scale="  106.909">  2  7  1 -1</clus>
<clus scale="   57.855">  2  5  1 -1</clus>
</clustering>
</event>
<event>
 9    1  0.1321469E-005  0.1382187E+03  0.7546771E-02  0.1216009E+00
         21   -1    0    0  501  502  0.00000000000E+00  0.00000000000E+00  0.14624151602E+03  0.14624151602E+03  0.00000000000E+00 0.  1.
          3   -1    0    0  502    0 -0.00000000000E+00 -0.00000000000E+00 -0.29392257517E+03  0.29392257517E+03  0.00000000000E+00 0. -1.
         23    2    1    2    0    0  0.97698186549E+02 -0.43656161562E+02 -0.18641047074E+03  0.23389876291E+03  0.92244087021E+02 0.  0.
         23    2    1    2    0    0 -0.85170908050E+02  0.11495893517E+02  0.82916136783E+02  0.15019677890E+03  0.91091972785E+02 0.  0.
        -13    1    3    3    0    0  0.94132171776E+01 -0.18930589675E+02 -0.11702863216E+03  0.11892298613E+03  0.00000000000E+00 0. -1.
         13    1    3    3    0    0  0.88284969371E+02 -0.24725571887E+02 -0.69381838578E+02  0.11497577678E+03  0.00000000000E+00 0.  1.
        -13    1    4    4    0    0  0.14453138857E+02  0.15634639468E+02  0.12794608276E+01  0.21330077218E+02  0.00000000000E+00 0. -1.
         13    1    4    4    0    0 -0.99624046907E+02 -0.41387459519E+01  0.81636675956E+02  0.12886670168E+03  0.00000000000E+00 0.  1.
          3    1    1    2  501    0 -0.12527278499E+02  0.32160268046E+02 -0.44186725195E+02  0.56068549391E+02  0.00000000000E+00 0. -1.
<scales pt_clust_5="13000.00000" pt_clust_6="13000.00000" pt_clust_7="13000.00000" pt_clust_8="13000.00000" pt_clust_9="34.51401"></scales>
<clustering>
<clus scale="   34.514">  1  9  2 -1</clus>
<clus scale="   91.092">  7  8 -1 -1</clus>
<clus scale="   92.244">  5  6 -1 -1</clus>
<clus scale="  137.452">  1  7  2 -1</clus>
<clus scale="   34.514">  1  5  2 -1</clus>
</clustering>
</event>
<event>
 9    1  0.1321469E-005  0.1301270E+03  0.7546771E-02  0.1228881E+00
          2   -1    0    0  502    0 -0.00000000000E+00  0.00000000000E+00  0.53610650630E+03  0.53610650630E+03  0.00000000000E+00 0. -1.
         21   -1    0    0  501  502  0.00000000000E+00 -0.00000000000E+00 -0.15788395419E+03  0.15788395419E+03  0.00000000000E+00 0. -1.
         23    2    1    2    0    0  0.96704616923E+02  0.16486618056E+02  0.37900773734E+03  0.40186286254E+03  0.90682433904E+02 0.  0.
         23    2    1    2    0    0 -0.63220134662E+02  0.47884675236E+02  0.10544364546E+03  0.16348297731E+03  0.96532864635E+02 0.  0.
        -13    1    3    3    0    0  0.59070360654E+02 -0.35826482756E+02  0.20223925043E+03  0.21371373093E+03  0.00000000000E+00 0.  1.
         13    1    3    3    0    0  0.37634256269E+02  0.52313100812E+02  0.17676848691E+03  0.18814913161E+03  0.00000000000E+00 0. -1.
        -13    1    4    4    0    0 -0.15913044324E+02  0.24677418396E+02 -0.14298632039E+02  0.32659620888E+02  0.00000000000E+00 0.  1.
         13    1    4    4    0    0 -0.47307090338E+02  0.23207256840E+02  0.11974227750E+03  0.13082335642E+03  0.00000000000E+00 0. -1.
          2    1    1    2  501    0 -0.33484482260E+02 -0.64371293292E+02 -0.10622883068E+03  0.12864462064E+03  0.00000000000E+00 0. -1.
<scales pt_clust_5="13000.00000" pt_clust_6="13000.00000" pt_clust_7="13000.00000" pt_clust_8="13000.00000" pt_clust_9="72.55945"></scales>
<clustering>
<clus scale="   72.559">  2  9  1 -1</clus>
<clus scale="   90.682">  5  6 -1 -1</clus>
<clus scale="   96.533">  7  8 -1 -1</clus>
<clus scale="  125.848">  1  5  2 -1</clus>
<clus scale="   72.559">  2  5  1 -1</clus>
</clustering>
</event>
<event>
 9    1  0.1321469E-005  0.1068302E+03  0.7546771E-02  0.1267249E+00
         21   -1    0    0  501  502  0.00000000000E+00  0.00000000000E+00  0.12278378206E+04  0.12278378206E+04  0.00000000000E+00 0.  1.
         -1   -1    0    0    0  501 -0.00000000000E+00 -0.00000000000E+00 -0.15076358683E+02  0.15076358683E+02  0.00000000000E+00 0.  1.
         23    2    1    2    0    0  0.61154215106E+02 -0.48014207668E+01  0.46314461754E+03  0.47544797700E+03  0.88232365968E+02 0.  0.
         23    2    1    2    0    0 -0.39882274838E+02  0.51371291339E+02  0.56949859334E+03  0.58021281074E+03  0.89936936330E+02 0.  0.
        -11    1    3    3    0    0  0.30446474257E+02 -0.43389547265E+02  0.16654973435E+03  0.17478116208E+03  0.00000000000E+00 0.  1.
         11    1    3    3    0    0  0.30707740848E+02  0.38588126498E+02  0.29659488319E+03  0.30066681492E+03  0.00000000000E+00 0. -1.
        -13    1    4    4    0    0  0.25078652583E+02 -0.17086345039E+00  0.83308512300E+02  0.87001587522E+02  0.00000000000E+00 0. -1.
         13    1    4    4    0    0 -0.64960927420E+02  0.51542154789E+02  0.48619008104E+03  0.49321122322E+03  0.00000000000E+00 0.  1.
         -1    1    1    2    0  502 -0.21271940268E+02 -0.46569870572E+02  0.18011825100E+03  0.18725339151E+03  0.00000000000E+00 0.  1.
<scales pt_clust_5="13000.00000" pt_clust_6="13000.00000" pt_clust_7="13000.00000" pt_clust_8="13000.00000" pt_clust_9="51.19815"></scales>
<clustering>
<clus scale="   51.198">  1  9  2 -1</clus>
<clus scale="   88.232">  5  6 -1 -1</clus>
<clus scale="   89.937">  7  8 -1 -1</clus>
<clus scale="  105.399">  2  5  1 -1</clus>
<clus scale="   51.198">  1  5  2 -1</clus>
</clustering>
</event>
<event>
 9    1  0.1321469E-005  0.1026929E+03  0.7546771E-02  0.1274742E+00
          1   -1    0    0  502    0 -0.00000000000E+00  0.00000000000E+00  0.18151209217E+03  0.18151209217E+03  0.00000000000E+00 0. -1.
         21   -1    0    0  501  502  0.00000000000E+00 -0.00000000000E+00 -0.12227082451E+03  0.12227082451E+03  0.00000000000E+00 0.  1.
         23    2    1    2    0    0 -0.27744469554E+02  0.46637547547E+02  0.83792353869E+02  0.13545402214E+03  0.91552264390E+02 0.  0.
         23    2    1    2    0    0  0.25962918440E+02 -0.26151739815E+02  0.35493678694E+02  0.10486066599E+03  0.91531259225E+02 0.  0.
        -11    1    3    3    0    0  0.15009423079E+02 -0.16825854006E+02  0.43444539885E+02  0.48947116258E+02  0.00000000000E+00 0.  1.
         11    1    3    3    0    0 -0.42753892633E+02  0.63463401552E+02  0.40347813984E+02  0.86506905881E+02  0.00000000000E+00 0. -1.
        -11    1    4    4    0    0  0.74967932869E+01 -0.57820663718E+02  0.76044645414E+01  0.58798460382E+02  0.00000000000E+00 0.  1.
         11    1    4    4    0    0  0.18466125153E+02  0.31668923903E+02  0.27889214152E+02  0.46062205607E+02  0.00000000000E+00 0. -1.
          1    1    1    2  501    0  0.17815511139E+01 -0.20485807732E+02 -0.60044764908E+02  0.63468228553E+02  0.00000000000E+00 0. -1.
<scales pt_clust_5="13000.00000" pt_clust_6="13000.00000" pt_clust_7="13000.00000" pt_clust_8="13000.00000" pt_clust_9="20.56313"></scales>
<clustering>
<clus scale="   20.563">  2  9  1 -1</clus>
<clus scale="   91.531">  7  8 -1 -1</clus>
<clus scale="   91.552">  5  6 -1 -1</clus>
<clus scale="  102.674">  2  7  1 -1</clus>
<clus scale="   20.563">  2  5  1 -1</clus>
</clustering>
</event>
<event>
 9    1  0.1321469E-005  0.1234237E+03  0.7546771E-02  0.1239530E+00
         21   -1    0    0  501  502  0.00000000000E+00  0.00000000000E+00  0.18471568511E+03  0.18471568511E+03  0.00000000000E+00 0.  1.
          3   -1    0    0  502    0 -0.00000000000E+00 -0.00000000000E+00 -0.18093309581E+03  0.18093309581E+03  0.00000000000E+00 0. -1.
         23    2    1    2    0    0  0.50679270682E+01 -0.86727215716E+02 -0.10999024425E+03  0.16674859575E+03  0.90332422326E+02 0.  0.
         23    2    1    2    0    0 -0.37850423686E+02  0.71623219045E+02  0.52251486824E+02  0.12757207779E+03  0.83557627284E+02 0.  0.
        -11    1    4    4    0    0 -0.59357347876E+02  0.53514722533E+02  0.58161131030E+02  0.98842488017E+02  0.00000000000E+00 0.  1.
         11    1    4    4    0    0  0.21506924190E+02  0.18108496512E+02 -0.59096442054E+01  0.28729589776E+02  0.00000000000E+00 0. -1.
        -11    1    3    3    0    0  0.15536392247E+02 -0.15404829812E+02 -0.89026620716E+02  0.91675664501E+02  0.00000000000E+00 0. -1.
         11    1    3    3    0    0 -0.10468465179E+02 -0.71322385904E+02 -0.20963623531E+02  0.75072931245E+02  0.00000000000E+00 0.  1.
          3    1    1    2  501    0  0.32782496618E+02  0.15103996670E+02  0.61521346724E+02  0.71328107381E+02  0.00000000000E+00 0. -1.
<scales pt_clust_5="13000.00000" pt_clust_6="13000.00000" pt_clust_7="13000.00000" pt_clust_8="13000.00000" pt_clust_9="36.09464"></scales>
<clustering>
<clus scale="   36.095">  1  9  2 -1</clus>
<clus scale="   83.558">  5  6 -1 -1</clus>
<clus scale="   90.332">  7  8 -1 -1</clus>
<clus scale="  118.555">  1  5  2 -1</clus>
<clus scale="   36.095">  1  5  2 -1</clus>
</clustering>
</event>
<event>
 9    1  0.1321469E-005  0.1406489E+03  0.7546771E-02  0.1212737E+00
          3   -1    0    0  502    0 -0.00000000000E+00  0.00000000000E+00  0.68104143352E+02  0.68104143352E+02  0.00000000000E+00 0. -1.
         21   -1    0    0  501  502  0.00000000000E+00 -0.00000000000E+00 -0.36471172106E+03  0.36471172106E+03  0.00000000000E+00 0.  1.
         23    2    1    2    0    0 -0.70394303737E+02  0.73112590229E+02 -0.10647920626E+03  0.17340523549E+03  0.91819091045E+02 0.  0.
         23    2    1    2    0    0  0.93102055542E+02 -0.61407736881E+02 -0.13352926953E+03  0.19731309337E+03  0.93077860412E+02 0.  0.
        -11    1    4    4    0    0  0.32598181622E+02  0.22248931506E+02 -0.54524631841E+02  0.67309671487E+02  0.00000000000E+00 0.  1.
         11    1    4    4    0    0  0.60503873920E+02 -0.83656668387E+02 -0.79004637688E+02  0.13000342188E+03  0.00000000000E+00 0. -1.
        -13    1    3    3    0    0 -0.75099716883E+02  0.20394279902E+02 -0.37288760748E+02  0.86292211739E+02  0.00000000000E+00 0. -1.
         13    1    3    3    0    0  0.47054131464E+01  0.52718310328E+02 -0.69190445512E+02  0.87113023749E+02  0.00000000000E+00 0.  1.
          3    1    1    2  501    0 -0.22707751805E+02 -0.11704853348E+02 -0.56599101919E+02  0.62097535555E+02  0.00000000000E+00 0. -1.
<scales pt_clust_5="13000.00000" pt_clust_6="13000.00000" pt_clust_7="13000.00000" pt_clust_8="13000.00000" pt_clust_9="25.54693"></scales>
<clustering>
<clus scale="   25.547">  2  9  1 -1</clus>
<clus scale="   91.819">  7  8 -1 -1</clus>
<clus scale="   93.078">  5  6 -1 -1</clus>
<clus scale="  139.819">  1  7  2 -1</clus>
<clus scale="   25.547">  2  5  1 -1</clus>
</clustering>
</event>
<event>
 9    1  0.1321469E-005  0.1097737E+03  0.7546771E-02  0.1265735E+00
         21   -1    0    0  501  502  0.00000000000E+00  0.00000000000E+00  0.50628684681E+02  0.50628684681E+02  0.00000000000E+00 0.  1.
         -1   -1    0    0    0  501 -0.00000000000E+00 -0.00000000000E+00 -0.59451656477E+03  0.59451656477E+03  0.00000000000E+00 0.  1.
         23    2    1    2    0    0 -0.98518182723E+01 -0.25231798398E+02 -0.27121080173E+03  0.28746174553E+03  0.91352362827E+02 0.  0.
         23    2    1    2    0    0  0.55500799383E+02  0.36880095500E+02 -0.28419764174E+03  0.30918365152E+03  0.10191050299E+03 0.  0.
        -11    1    4    4    0    0 -0.84631745393E+01  0.18532573330E+02 -0.34573885550E+01  0.20664828408E+02  0.00000000000E+00 0. -1.
         11    1    4    4    0    0  0.63963973922E+02  0.18347522170E+02 -0.28074025319E+03  0.28851882311E+03  0.00000000000E+00 0.  1.
        -13    1    3    3    0    0  0.35075214486E+02 -0.33734356820E+02 -0.12011650203E+03  0.12960035324E+03  0.00000000000E+00 0.  1.
         13    1    3    3    0    0 -0.44927032758E+02  0.85025584223E+01 -0.15109429970E+03  0.15786139229E+03  0.00000000000E+00 0. -1.
         -1    1    1    2    0  502 -0.45648981110E+02 -0.11648297102E+02  0.11520563389E+02  0.48499852397E+02  0.00000000000E+00 0.  1.
<scales pt_clust_5="13000.00000" pt_clust_6="13000.00000" pt_clust_7="13000.00000" pt_clust_8="13000.00000" pt_clust_9="47.11170"></scales>
<clustering>
<clus scale="   47.112">  1  9  2 -1</clus>
<clus scale="   91.352">  7  8 -1 -1</clus>
<clus scale="  100.049">  2  7  1 -1</clus>
<clus scale="  101.911">  5  6 -1 -1</clus>
<clus scale="   47.112">  1  5  2 -1</clus>
</clustering>
</event>
<event>
 9    1  0.1321469E-005  0.1081481E+03  0.7546771E-02  0.1265645E+00
         21   -1    0    0  501  502  0.00000000000E+00  0.00000000000E+00  0.41841284962E+02  0.41841284962E+02  0.00000000000E+00 0.  1.
          3   -1    0    0  502    0 -0.00000000000E+00 -0.00000000000E+00 -0.41518228094E+03  0.41518228094E+03  0.00000000000E+00 0. -1.
         23    2    1    2    0    0  0.96015655602E+01 -0.59916272926E+02 -0.27994839627E+03  0.30152657995E+03  0.94154256518E+02 0.  0.
         23    2    1    2    0    0  0.26362184202E+01  0.38111693017E+02 -0.82829171913E+02  0.12835312719E+03  0.90301731691E+02 0.  0.
        -11    1    4    4    0    0  0.19643805169E+02  0.48846961010E+01  0.13977820642E+02  0.24599162738E+02  0.00000000000E+00 0.  1.
         11    1    4    4    0    0 -0.17007586749E+02  0.33226996916E+02 -0.96806992555E+02  0.10375396445E+03  0.00000000000E+00 0. -1.
        -11    1    3    3    0    0  0.44271843734E+02 -0.23840699987E+01 -0.12559362339E+03  0.13318948222E+03  0.00000000000E+00 0.  1.
         11    1    3    3    0    0 -0.34670278174E+02 -0.57532202928E+02 -0.15435477288E+03  0.16833709773E+03  0.00000000000E+00 0. -1.
          3    1    1    2  501    0 -0.12237783980E+02  0.21804579909E+02 -0.10563427793E+02  0.27143858762E+02  0.00000000000E+00 0. -1.
<scales pt_clust_5="13000.00000" pt_clust_6="13000.00000" pt_clust_7="13000.00000" pt_clust_8="13000.00000" pt_clust_9="25.00406"></scales>
<clustering>
<clus scale="   25.004">  1  9  2 -1</clus>
<clus scale="   90.302">  5  6 -1 -1</clus>
<clus scale="   94.154">  7  8 -1 -1</clus>
<clus scale="  104.811">  1  5  2 -1</clus>
<clus scale="   25.004">  1  5  2 -1</clus>
</clustering>
</event>
<event>
 9    1  0.1321469E-005  0.1092673E+03  0.7546771E-02  0.1262067E+00
         21   -1    0    0  501  502  0.00000000000E+00  0.00000000000E+00  0.30377206027E+03  0.30377206027E+03  0.00000000000E+00 0. -1.
         -3   -1    0    0    0  501 -0.00000000000E+00 -0.00000000000E+00 -0.13117935130E+03  0.13117935130E+03  0.00000000000E+00 0.  1.
         23    2    1    2    0    0 -0.48178880412E+02 -0.32657224208E+02 -0.86702722888E+02  0.13886020338E+03  0.91526472217E+02 0.  0.
         23    2    1    2    0    0  0.48080269924E+02  0.57412268524E+02  0.20807821533E+03  0.23920513598E+03  0.91184825760E+02 0.  0.
        -11    1    3    3    0    0 -0.73290767015E+02 -0.17108637107E+02 -0.77244552070E+02  0.10784694162E+03  0.00000000000E+00 0.  1.
         11    1    3    3    0    0  0.25111886604E+02 -0.15548587100E+02 -0.94581708182E+01  0.31013261758E+02  0.00000000000E+00 0. -1.
        -13    1    4    4    0    0  0.33947607288E+00  0.29134251004E+02  0.61317326536E+01  0.29774451648E+02  0.00000000000E+00 0.  1.
         13    1    4    4    0    0  0.47740793851E+02  0.28278017519E+02  0.20194648268E+03  0.20943068433E+03  0.00000000000E+00 0. -1.
         -3    1    1    2    0  502  0.98610487569E-01 -0.24755044316E+02  0.51217216525E+02  0.56886072212E+02  0.00000000000E+00 0.  1.
<scales pt_clust_5="13000.00000" pt_clust_6="13000.00000" pt_clust_7="13000.00000" pt_clust_8="13000.00000" pt_clust_9="24.75524"></scales>
<clustering>
<clus scale="   24.755">  1  9  2 -1</clus>
<clus scale="   91.185">  7  8 -1 -1</clus>
<clus scale="   91.526">  5  6 -1 -1</clus>
<clus scale="  108.981">  1  7  2 -1</clus>
<clus scale="   24.755">  1  5  2 -1</clus>
</clustering>
</event>
<event>
 9    1  0.1321469E-005  0.1618391E+03  0.7546771E-02  0.1186787E+00
         21   -1    0    0  501  502  0.00000000000E+00  0.00000000000E+00  0.60151537983E+02  0.60151537983E+02  0.00000000000E+00 0. -1.
          2   -1    0    0  502    0 -0.00000000000E+00 -0.00000000000E+00 -0.83846756057E+03  0.83846756057E+03  0.00000000000E+00 0.  1.
         23    2    1    2    0    0  0.97121488449E+02  0.88086971013E+02 -0.54005988509E+03  0.56328766660E+03  0.91849974853E+02 0.  0.
         23    2    1    2    0    0 -0.12122265791E+03 -0.70006903042E+02 -0.25196482204E+03  0.30223032533E+03  0.90890036516E+02 0.  0.
        -13    1    3    3    0    0  0.79807030669E+02  0.22912391618E+02 -0.19904066232E+03  0.21566484435E+03  0.00000000000E+00 0. -1.
         13    1    3    3    0    0  0.17314457780E+02  0.65174579396E+02 -0.34101922277E+03  0.34762282225E+03  0.00000000000E+00 0.  1.
        -13    1    4    4    0    0 -0.74729226405E+02 -0.82968632780E+02 -0.13184152943E+03  0.17277279932E+03  0.00000000000E+00 0.  1.
         13    1    4    4    0    0 -0.46493431505E+02  0.12961729738E+02 -0.12012329261E+03  0.12945752601E+03  0.00000000000E+00 0. -1.
          2    1    1    2  501    0  0.24101169461E+02 -0.18080067972E+02  0.13708684549E+02  0.33101106618E+02  0.00000000000E+00 0.  1.
<scales pt_clust_5="13000.00000" pt_clust_6="13000.00000" pt_clust_7="13000.00000" pt_clust_8="13000.00000" pt_clust_9="30.12898"></scales>
<clustering>
<clus scale="   30.129">  1  9  2 -1</clus>
<clus scale="   90.890">  7  8 -1 -1</clus>
<clus scale="   91.850">  5  6 -1 -1</clus>
<clus scale="  161.296">  1  7  2 -1</clus>
<clus scale="   30.129">  1  5  2 -1</clus>
</clustering>
</event>
<event>
 9    1  0.1321469E-005  0.9738703E+02  0.7546771E-02  0.1286541E+00
          2   -1    0    0  502    0 -0.00000000000E+00  0.00000000000E+00  0.30633486156E+03  0.30633486156E+03  0.00000000000E+00 0. -1.
         21   -1    0    0  501  502  0.00000000000E+00 -0.00000000000E+00 -0.65443846064E+02  0.65443846064E+02  0.00000000000E+00 0.  1.
         23    2    1    2    0    0  0.15758740464E+02  0.18430772266E+02  0.13639605712E+03  0.16544505822E+03  0.90444190660E+02 0.  0.
         23    2    1    2    0    0 -0.43688072092E+02 -0.42055898030E+02  0.16679173809E+02  0.11120318030E+03  0.91709357581E+02 0.  0.
        -11    1    3    3    0    0  0.36188526966E+02  0.33698940913E+02  0.34223117957E+02  0.60136926305E+02  0.00000000000E+00 0. -1.
         11    1    3    3    0    0 -0.20429786502E+02 -0.15268168647E+02  0.10217293916E+03  0.10530813191E+03  0.00000000000E+00 0.  1.
        -13    1    4    4    0    0 -0.54160836424E+02 -0.22394526950E+02  0.45911805545E+02  0.74450016305E+02  0.00000000000E+00 0.  1.
         13    1    4    4    0    0  0.10472764333E+02 -0.19661371079E+02 -0.29232631735E+02  0.36753163995E+02  0.00000000000E+00 0. -1.
          2    1    1    2  501    0  0.27929331628E+02  0.23625125764E+02  0.87815784566E+02  0.95130469102E+02  0.00000000000E+00 0. -1.
<scales pt_clust_5="13000.00000" pt_clust_6="13000.00000" pt_clust_7="13000.00000" pt_clust_8="13000.00000" pt_clust_9="36.58135"></scales>
<clustering>
<clus scale="   36.581">  2  9  1 -1</clus>
<clus scale="   90.444">  5  6 -1 -1</clus>
<clus scale="   91.709">  7  8 -1 -1</clus>
<clus scale="   96.197">  1  5  2 -1</clus>
<clus scale="   36.581">  2  5  1 -1</clus>
</clustering>
</event>
<event>
 9    1  0.1321469E-005  0.1138432E+03  0.7546771E-02  0.1256605E+00
         21   -1    0    0  501  502  0.00000000000E+00  0.00000000000E+00  0.59543832957E+02  0.59543832957E+02  0.00000000000E+00 0.  1.
         -1   -1    0    0    0  501 -0.00000000000E+00 -0.00000000000E+00 -0.72992370250E+03  0.72992370250E+03  0.00000000000E+00 0.  1.
         23    2    1    2    0    0 -0.46183870682E+02 -0.49095710897E+02 -0.53026258861E+03  0.54271961837E+03  0.93929934196E+02 0.  0.
         23    2    1    2    0    0  0.82912264367E+02 -0.18648547256E+02 -0.11192295047E+03  0.16469196249E+03  0.85874814525E+02 0.  0.
        -11    1    4    4    0    0  0.69816250166E+02  0.17175115815E+02 -0.37559946378E+02  0.81117463979E+02  0.00000000000E+00 0.  1.
         11    1    4    4    0    0  0.13096014201E+02 -0.35823663071E+02 -0.74363004089E+02  0.83574498509E+02  0.00000000000E+00 0. -1.
        -11    1    3    3    0    0 -0.63117414814E+02 -0.66240947311E+02 -0.41583464362E+03  0.42578177743E+03  0.00000000000E+00 0.  1.
         11    1    3    3    0    0  0.16933544132E+02  0.17145236414E+02 -0.11442794499E+03  0.11693784094E+03  0.00000000000E+00 0. -1.
         -1    1    1    2    0  502 -0.36728393685E+02  0.67744258153E+02 -0.28194330464E+02  0.82055954603E+02  0.00000000000E+00 0.  1.
<scales pt_clust_5="13000.00000" pt_clust_6="13000.00000" pt_clust_7="13000.00000" pt_clust_8="13000.00000" pt_clust_9="77.06010"></scales>
<clustering>
<clus scale="   77.060">  1  9  2 -1</clus>
<clus scale="   85.875">  5  6 -1 -1</clus>
<clus scale="   93.930">  7  8 -1 -1</clus>
<clus scale="  107.294">  1  5  2 -1</clus>
<clus scale="   77.060">  1  5  2 -1</clus>
</clustering>
</event>
<event>
 9    1  0.1321469E-005  0.1289982E+03  0.7546771E-02  0.1230504E+00
         21   -1    0    0  501  502  0.00000000000E+00  0.00000000000E+00  0.28085018774E+02  0.28085018774E+02  0.00000000000E+00 0.  1.
         -1   -1    0    0    0  501 -0.00000000000E+00 -0.00000000000E+00 -0.10580243859E+04  0.10580243859E+04  0.00000000000E+00 0.  1.
         23    2    1    2    0    0 -0.91373072461E+02  0.44931027753E+02 -0.63534611814E+03  0.65010056504E+03  0.92726583006E+02 0.  0.
         23    2    1    2    0    0  0.80648700082E+02  0.11806935821E+02 -0.32133922184E+03  0.34273311307E+03  0.86968239858E+02 0.  0.
        -13    1    3    3    0    0 -0.11069292781E+03  0.37345789201E+02 -0.52860002916E+03  0.54135535747E+03  0.00000000000E+00 0.  1.
         13    1    3    3    0    0  0.19319855350E+02  0.75852385525E+01 -0.10674608898E+03  0.10874520756E+03  0.00000000000E+00 0. -1.
        -13    1    4    4    0    0  0.68813032599E+02  0.42457500851E+02 -0.26941306808E+03  0.28128504064E+03  0.00000000000E+00 0.  1.
         13    1    4    4    0    0  0.11835667483E+02 -0.30650565030E+02 -0.51926153756E+02  0.61448072429E+02  0.00000000000E+00 0. -1.
         -1    1    1    2    0  502  0.10724372379E+02 -0.56737963575E+02 -0.73254027133E+02  0.93275726557E+02  0.00000000000E+00 0.  1.
<scales pt_clust_5="13000.00000" pt_clust_6="13000.00000" pt_clust_7="13000.00000" pt_clust_8="13000.00000" pt_clust_9="57.74261"></scales>
<clustering>
<clus scale="   57.743">  1  9  2 -1</clus>
<clus scale="   86.968">  7  8 -1 -1</clus>
<clus scale="   92.727">  5  6 -1 -1</clus>
<clus scale="  124.923">  1  7  2 -1</clus>
<clus scale="   57.743">  1  5  2 -1</clus>
</clustering>
</event>
<event>
 9    1  0.1321469E-005  0.1886498E+03  0.7546771E-02  0.1160375E+00
         -3   -1    0    0    0  501 -0.00000000000E+00  0.00000000000E+00  0.45063099680E+03  0.45063099680E+03  0.00000000000E+00 0.  1.
         21   -1    0    0  501  502  0.00000000000E+00 -0.00000000000E+00 -0.13980356902E+03  0.13980356902E+03  0.00000000000E+00 0.  1.
         23    2    1    2    0    0 -0.15450495440E+03  0.55270205487E+00  0.12882364745E+03  0.21385980381E+03  0.72583724979E+02 0.  0.
         23    2    1    2    0    0  0.17928601277E+03  0.86823750827E+02  0.18829273726E+03  0.28553468099E+03  0.79962873006E+02 0.  0.
        -13    1    3    3    0    0 -0.13967284464E+03 -0.21495474567E+02  0.12131414103E+03  0.18624628794E+03  0.00000000000E+00 0.  1.
         13    1    3    3    0    0 -0.14832109753E+02  0.22048176622E+02  0.75095064161E+01  0.27613515870E+02  0.00000000000E+00 0. -1.
        -13    1    4    4    0    0  0.10483401885E+03  0.26229582842E+02  0.14340710199E+03  0.17956547392E+03  0.00000000000E+00 0.  1.
         13    1    4    4    0    0  0.74451993918E+02  0.60594167986E+02  0.44885635274E+02  0.10596920707E+03  0.00000000000E+00 0. -1.
         -3    1    1    2    0  502 -0.24781058370E+02 -0.87376452882E+02 -0.62889569333E+01  0.91040081017E+02  0.00000000000E+00 0.  1.
<scales pt_clust_5="13000.00000" pt_clust_6="13000.00000" pt_clust_7="13000.00000" pt_clust_8="13000.00000" pt_clust_9="90.82260"></scales>
<clustering>
<clus scale="   72.584">  5  6 -1 -1</clus>
<clus scale="   79.963">  7  8 -1 -1</clus>
<clus scale="   90.823">  2  9  1 -1</clus>
<clus scale="  185.642">  1  5  2 -1</clus>
<clus scale="   90.823">  2  5  1 -1</clus>
</clustering>
</event>
<event>
 9    1  0.1321469E-005  0.1107861E+03  0.7546771E-02  0.1261753E+00
         21   -1    0    0  501  502  0.00000000000E+00  0.00000000000E+00  0.74215007767E+02  0.74215007767E+02  0.00000000000E+00 0.  1.
         -1   -1    0    0    0  501 -0.00000000000E+00 -0.00000000000E+00 -0.40244568019E+03  0.40244568019E+03  0.00000000000E+00 0.  1.
         23    2    1    2    0    0  0.41000597442E+02 -0.41436263958E+02 -0.23950259493E+03  0.26528475820E+03  0.98063739456E+02 0.  0.
         23    2    1    2    0    0 -0.19598138957E+02  0.39154141461E+02 -0.12989215868E+03  0.16492428940E+03  0.91711038066E+02 0.  0.
        -13    1    3    3    0    0  0.60602430954E+02 -0.60414427722E+02 -0.16361154453E+03  0.18463828211E+03  0.00000000000E+00 0.  1.
         13    1    3    3    0    0 -0.19601833511E+02  0.18978163764E+02 -0.75891050393E+02  0.80646476095E+02  0.00000000000E+00 0. -1.
        -13    1    4    4    0    0  0.33971961319E+01 -0.23385013537E+02 -0.74869156422E+02  0.78509810744E+02  0.00000000000E+00 0.  1.
         13    1    4    4    0    0 -0.22995335089E+02  0.62539154999E+02 -0.55023002261E+02  0.86414478657E+02  0.00000000000E+00 0. -1.
         -1    1    1    2    0  502 -0.21402458485E+02  0.22821224966E+01  0.41164081183E+02  0.46451640358E+02  0.00000000000E+00 0.  1.
<scales pt_clust_5="13000.00000" pt_clust_6="13000.00000" pt_clust_7="13000.00000" pt_clust_8="13000.00000" pt_clust_9="21.52378"></scales>
<clustering>
<clus scale="   21.524">  1  9  2 -1</clus>
<clus scale="   91.711">  7  8 -1 -1</clus>
<clus scale="   98.064">  5  6 -1 -1</clus>
<clus scale="  105.204">  1  7  2 -1</clus>
<clus scale="   21.524">  1  5  2 -1</clus>
</clustering>
</event>
<event>
 9    1  0.1321469E-005  0.1052575E+03  0.7546771E-02  0.1270462E+00
          1   -1    0    0  502    0 -0.00000000000E+00  0.00000000000E+00  0.17116977404E+03  0.17116977404E+03  0.00000000000E+00 0. -1.
         21   -1    0    0  501  502  0.00000000000E+00 -0.00000000000E+00 -0.84511365449E+02  0.84511365449E+02  0.00000000000E+00 0.  1.
         23    2    1    2    0    0  0.44416348291E+02 -0.12117172439E+02  0.28542270919E+02  0.10777100428E+03  0.93168075382E+02 0.  0.
         23    2    1    2    0    0 -0.53639915418E+02 -0.86879928681E+01  0.27365416237E+02  0.10965394666E+03  0.91227190383E+02 0.  0.
        -13    1    4    4    0    0 -0.15693007842E+02  0.34479464967E+02 -0.12289400110E+02  0.39826289742E+02  0.00000000000E+00 0.  1.
         13    1    4    4    0    0 -0.37946907576E+02 -0.43167457835E+02  0.39654816346E+02  0.69827656913E+02  0.00000000000E+00 0. -1.
        -13    1    3    3    0    0  0.64080399544E+02 -0.25187798286E+02  0.41942313899E+02  0.80621836269E+02  0.00000000000E+00 0. -1.
         13    1    3    3    0    0 -0.19664051253E+02  0.13070625847E+02 -0.13400042980E+02  0.27149168009E+02  0.00000000000E+00 0.  1.
          1    1    1    2  501    0  0.92235671273E+01  0.20805165307E+02  0.30750721433E+02  0.38256188554E+02  0.00000000000E+00 0. -1.
<scales pt_clust_5="13000.00000" pt_clust_6="13000.00000" pt_clust_7="13000.00000" pt_clust_8="13000.00000" pt_clust_9="22.75807"></scales>
<clustering>
<clus scale="   22.758">  2  9  1 -1</clus>
<clus scale="   91.227">  5  6 -1 -1</clus>
<clus scale="   93.168">  7  8 -1 -1</clus>
<clus scale="  103.543">  2  5  1 -1</clus>
<clus scale="   22.758">  2  5  1 -1</clus>
</clustering>
</event>
<event>
 9    1  0.1321469E-005  0.8623510E+02  0.7546771E-02  0.1316504E+00
          2   -1    0    0  502    0 -0.00000000000E+00  0.00000000000E+00  0.23970949638E+03  0.23970949638E+03  0.00000000000E+00 0. -1.
         21   -1    0    0  501  502  0.00000000000E+00 -0.00000000000E+00 -0.71231806700E+02  0.71231806700E+02  0.00000000000E+00 0. -1.
         23    2    1    2    0    0 -0.44589801498E+01 -0.25088932194E+02  0.16826783638E+03  0.18599347608E+03  0.75034467825E+02 0.  0.
         23    2    1    2    0    0 -0.17911719449E+02  0.36527946636E+02  0.19321610087E+02  0.93379512192E+02  0.81800294020E+02 0.  0.
        -11    1    3    3    0    0  0.27305220944E+02 -0.33060558912E+02  0.66855623722E+02  0.79424492883E+02  0.00000000000E+00 0.  1.
         11    1    3    3    0    0 -0.31764201093E+02  0.79716267184E+01  0.10141221266E+03  0.10656898320E+03  0.00000000000E+00 0. -1.
        -13    1    4    4    0    0 -0.33682629596E+02  0.52600662279E+02  0.29006252570E+02  0.68867350006E+02  0.00000000000E+00 0. -1.
         13    1    4    4    0    0  0.15770910147E+02 -0.16072715643E+02 -0.96846424824E+01  0.24512162186E+02  0.00000000000E+00 0.  1.
          2    1    1    2  501    0  0.22370699599E+02 -0.11439014443E+02 -0.19111756791E+02  0.31568314805E+02  0.00000000000E+00 0. -1.
<scales pt_clust_5="13000.00000" pt_clust_6="13000.00000" pt_clust_7="13000.00000" pt_clust_8="13000.00000" pt_clust_9="25.12567"></scales>
<clustering>
<clus scale="   25.126">  2  9  1 -1</clus>
<clus scale="   75.034">  5  6 -1 -1</clus>
<clus scale="   79.846">  1  5  2 -1</clus>
<clus scale="   81.800">  7  8 -1 -1</clus>
<clus scale="   25.126">  2  5  1 -1</clus>
</clustering>
</event>
<event>
 9    1  0.1321469E-005  0.1248514E+03  0.7546771E-02  0.1236100E+00
          2   -1    0    0  502    0 -0.00000000000E+00  0.00000000000E+00  0.11861700335E+03  0.11861700335E+03  0.00000000000E+00 0. -1.
         21   -1    0    0  501  502  0.00000000000E+00 -0.00000000000E+00 -0.45586177013E+03  0.45586177013E+03  0.00000000000E+00 0. -1.
         23    2    1    2    0    0  0.76599700218E+02 -0.51353466178E+02  0.38662530599E+02  0.13613363495E+03  0.92373604077E+02 0.  0.
         23    2    1    2    0    0 -0.62118347667E+02  0.32600375979E+01 -0.81797117562E+02  0.13997710185E+03  0.95044745451E+02 0.  0.
        -11    1    4    4    0    0 -0.52914983958E+02 -0.41782952320E+02 -0.52626844281E+02  0.85530084595E+02  0.00000000000E+00 0. -1.
         11    1    4    4    0    0 -0.92033637083E+01  0.45042989918E+02 -0.29170273281E+02  0.54447017251E+02  0.00000000000E+00 0.  1.
        -13    1    3    3    0    0  0.47566538318E+02 -0.67123056080E+01 -0.24165766617E+02  0.53773737924E+02  0.00000000000E+00 0.  1.
         13    1    3    3    0    0  0.29033161900E+02 -0.44641160570E+02  0.62828297216E+02  0.82359897025E+02  0.00000000000E+00 0. -1.
          2    1    1    2  501    0 -0.14481352552E+02  0.48093428580E+02 -0.29411017982E+03  0.29836803669E+03  0.00000000000E+00 0. -1.
<scales pt_clust_5="13000.00000" pt_clust_6="13000.00000" pt_clust_7="13000.00000" pt_clust_8="13000.00000" pt_clust_9="50.22636"></scales>
<clustering>
<clus scale="   50.226">  2  9  1 -1</clus>
<clus scale="   92.374">  7  8 -1 -1</clus>
<clus scale="   95.045">  5  6 -1 -1</clus>
<clus scale="  122.830">  1  7  2 -1</clus>
<clus scale="   50.226">  2  5  1 -1</clus>
</clustering>
</event>
<event>
 9    1  0.1321469E-005  0.9656019E+02  0.7546771E-02  0.1287862E+00
          2   -1    0    0  502    0 -0.00000000000E+00  0.00000000000E+00  0.16794243500E+03  0.16794243500E+03  0.00000000000E+00 0. -1.
         21   -1    0    0  501  502  0.00000000000E+00 -0.00000000000E+00 -0.15087799510E+03  0.15087799510E+03  0.00000000000E+00 0. -1.
         23    2    1    2    0    0 -0.10111697165E+02  0.34215168379E+02  0.68024148859E+02  0.11892675326E+03  0.90792971343E+02 0.  0.
         23    2    1    2    0    0  0.23737347310E+02 -0.19405355133E+02  0.41913624356E+02  0.10486502353E+03  0.91103741896E+02 0.  0.
        -11    1    3    3    0    0 -0.56795896003E+01  0.55912928899E+02  0.76747654116E+02  0.95124737942E+02  0.00000000000E+00 0. -1.
         11    1    3    3    0    0 -0.44321075643E+01 -0.21697760521E+02 -0.87235052570E+01  0.23802015315E+02  0.00000000000E+00 0.  1.
        -11    1    4    4    0    0 -0.23545755696E+02 -0.27140880234E+02 -0.67661061826E+01  0.36562414910E+02  0.00000000000E+00 0.  1.
         11    1    4    4    0    0  0.47283103006E+02  0.77355251011E+01  0.48679730539E+02  0.68302608617E+02  0.00000000000E+00 0. -1.
          2    1    1    2  501    0 -0.13625650145E+02 -0.14809813246E+02 -0.92873333317E+02  0.95028653319E+02  0.00000000000E+00 0. -1.
<scales pt_clust_5="13000.00000" pt_clust_6="13000.00000" pt_clust_7="13000.00000" pt_clust_8="13000.00000" pt_clust_9="20.12434"></scales>
<clustering>
<clus scale="   20.124">  2  9  1 -1</clus>
<clus scale="   90.793">  5  6 -1 -1</clus>
<clus scale="   91.104">  7  8 -1 -1</clus>
<clus scale="   96.267">  1  5  2 -1</clus>
<clus scale="   20.124">  2  5  1 -1</clus>
</clustering>
</event>
<event>
 9    1  0.1321469E-005  0.2272410E+03  0.7546771E-02  0.1130916E+00
          1   -1    0    0  502    0 -0.00000000000E+00  0.00000000000E+00  0.62335571158E+03  0.62335571158E+03  0.00000000000E+00 0. -1.
         21   -1    0    0  501  502  0.00000000000E+00 -0.00000000000E+00 -0.12041116638E+03  0.12041116638E+03  0.00000000000E+00 0. -1.
         23    2    1    2    0    0 -0.13490256622E+03 -0.14215834190E+03  0.29344943414E+03  0.36185626674E+03  0.80122973235E+02 0.  0.
         23    2    1    2    0    0  0.84926543846E+02  0.19432261032E+03  0.19509156605E+03  0.30824803035E+03  0.10946384948E+03 0.  0.
        -11    1    4    4    0    0  0.55185840104E+02  0.73530472234E+02  0.14999208629E+03  0.17592564692E+03  0.00000000000E+00 0.  1.
         11    1    4    4    0    0  0.29740703742E+02  0.12079213808E+03  0.45099479751E+02  0.13232238343E+03  0.00000000000E+00 0. -1.
        -11    1    3    3    0    0 -0.13599810477E+03 -0.11612124301E+03  0.28074970104E+03  0.33286637291E+03  0.00000000000E+00 0. -1.
         11    1    3    3    0    0  0.10955385563E+01 -0.26037098894E+02  0.12699733093E+02  0.28989893828E+02  0.00000000000E+00 0.  1.
          1    1    1    2  501    0  0.49976022372E+02 -0.52164268418E+02  0.14403545023E+02  0.73662580874E+02  0.00000000000E+00 0. -1.
<scales pt_clust_5="13000.00000" pt_clust_6="13000.00000" pt_clust_7="13000.00000" pt_clust_8="13000.00000" pt_clust_9="72.24067"></scales>
<clustering>
<clus scale="   72.241">  2  9  1 -1</clus>
<clus scale="   80.123">  7  8 -1 -1</clus>
<clus scale="  109.464">  5  6 -1 -1</clus>
<clus scale="  214.653">  1  7  2 -1</clus>
<clus scale="   72.241">  2  5  1 -1</clus>
</clustering>
</event>
<event>
 9    1  0.1321469E-005  0.1198335E+03  0.7546771E-02  0.1246039E+00
         21   -1    0    0  501  502  0.00000000000E+00  0.00000000000E+00  0.24113835087E+03  0.24113835087E+03  0.00000000000E+00 0. -1.
          3   -1    0    0  502    0 -0.00000000000E+00 -0.00000000000E+00 -0.18217207351E+03  0.18217207351E+03  0.00000000000E+00 0. -1.
         23    2    1    2    0    0  0.27017631163E+02  0.92028067253E+02 -0.94068889353E+02  0.15948020400E+03  0.85941037740E+02 0.  0.
         23    2    1    2    0    0 -0.40239615533E+02 -0.22639588891E+02  0.11212080714E+02  0.10538979144E+03  0.94071886033E+02 0.  0.
        -13    1    3    3    0    0 -0.12761981669E+02  0.24413297191E+02 -0.73334357988E+02  0.78337764312E+02  0.00000000000E+00 0. -1.
         13    1    3    3    0    0  0.39779612832E+02  0.67614770062E+02 -0.20734531364E+02  0.81142439688E+02  0.00000000000E+00 0.  1.
        -13    1    4    4    0    0 -0.45796571082E+02 -0.25863289395E+00 -0.32370394871E+02  0.56082397220E+02  0.00000000000E+00 0. -1.
         13    1    4    4    0    0  0.55569555494E+01 -0.22380955997E+02  0.43582475585E+02  0.49307394217E+02  0.00000000000E+00 0.  1.
          3    1    1    2  501    0  0.13221984370E+02 -0.69388478362E+02  0.14182308600E+03  0.15844042894E+03  0.00000000000E+00 0. -1.
<scales pt_clust_5="13000.00000" pt_clust_6="13000.00000" pt_clust_7="13000.00000" pt_clust_8="13000.00000" pt_clust_9="70.63697"></scales>
<clustering>
<clus scale="   70.637">  1  9  2 -1</clus>
<clus scale="   85.941">  5  6 -1 -1</clus>
<clus scale="   94.072">  7  8 -1 -1</clus>
<clus scale="  113.562">  2  5  1 -1</clus>
<clus scale="   70.637">  1  5  2 -1</clus>
</clustering>
</event>
<event>
 9    1  0.1321469E-005  0.1097880E+03  0.7546771E-02  0.1261065E+00
         21   -1    0    0  501  502  0.00000000000E+00  0.00000000000E+00  0.53240893854E+02  0.53240893854E+02  0.00000000000E+00 0. -1.
          1   -1    0    0  502    0 -0.00000000000E+00 -0.00000000000E+00 -0.57820246949E+03  0.57820246949E+03  0.00000000000E+00 0. -1.
         23    2    1    2    0    0 -0.34611925234E+02 -0.99142709574E+01 -0.22370567448E+03  0.24406747161E+03  0.90710659623E+02 0.  0.
         23    2    1    2    0    0  0.10350862238E+03 -0.22709655941E+01 -0.28368058631E+03  0.31523625936E+03  0.90443529175E+02 0.  0.
        -13    1    4    4    0    0  0.47505034640E+02  0.10691525354E+02 -0.34920114076E+02  0.59920375480E+02  0.00000000000E+00 0.  1.
         13    1    4    4    0    0  0.56003587739E+02 -0.12962490949E+02 -0.24876047224E+03  0.25531588388E+03  0.00000000000E+00 0. -1.
        -13    1    3    3    0    0 -0.45393171526E+02  0.25813069361E+02 -0.17550341256E+03  0.18310735209E+03  0.00000000000E+00 0. -1.
         13    1    3    3    0    0  0.10781246291E+02 -0.35727340319E+02 -0.48202261923E+02  0.60960119524E+02  0.00000000000E+00 0.  1.
          1    1    1    2  501    0 -0.68896697144E+02  0.12185236552E+02 -0.17575314843E+02  0.72139632374E+02  0.00000000000E+00 0. -1.
<scales pt_clust_5="13000.00000" pt_clust_6="13000.00000" pt_clust_7="13000.00000" pt_clust_8="13000.00000" pt_clust_9="69.96596"></scales>
<clustering>
<clus scale="   69.966">  1  9  2 -1</clus>
<clus scale="   90.444">  5  6 -1 -1</clus>
<clus scale="   90.711">  7  8 -1 -1</clus>
<clus scale="  109.567">  1  5  2 -1</clus>
<clus scale="   69.966">  1  5  2 -1</clus>
</clustering>
</event>
<event>
 9    1  0.1321469E-005  0.9871850E+02  0.7546771E-02  0.1284566E+00
         21   -1    0    0  501  502  0.00000000000E+00  0.00000000000E+00  0.23302629295E+03  0.23302629295E+03  0.00000000000E+00 0.  1.
          1   -1    0    0  502    0 -0.00000000000E+00 -0.00000000000E+00 -0.22268416799E+03  0.22268416799E+03  0.00000000000E+00 0. -1.
         23    2    1    2    0    0 -0.21279252841E+02  0.15957226199E+02 -0.16141851914E+03  0.18670254870E+03  0.89969237515E+02 0.  0.
         23    2    1    2    0    0  0.65635974752E+02 -0.67722717470E+02  0.80155641437E+02  0.15482095423E+03  0.93006200721E+02 0.  0.
        -13    1    4    4    0    0 -0.24683687062E+01 -0.22436867938E+02  0.68605046239E+02  0.72222975959E+02  0.00000000000E+00 0.  1.
         13    1    4    4    0    0  0.68104343458E+02 -0.45285849533E+02  0.11550595198E+02  0.82597978275E+02  0.00000000000E+00 0. -1.
        -13    1    3    3    0    0 -0.38746714695E+02 -0.27090488867E+02 -0.77468094726E+02  0.90755210248E+02  0.00000000000E+00 0.  1.
         13    1    3    3    0    0  0.17467461853E+02  0.43047715067E+02 -0.83950424413E+02  0.95947338447E+02  0.00000000000E+00 0. -1.
          1    1    1    2  501    0 -0.44356721910E+02  0.51765491271E+02  0.91605002669E+02  0.11418695801E+03  0.00000000000E+00 0. -1.
<scales pt_clust_5="13000.00000" pt_clust_6="13000.00000" pt_clust_7="13000.00000" pt_clust_8="13000.00000" pt_clust_9="68.17026"></scales>
<clustering>
<clus scale="   68.170">  1  9  2 -1</clus>
<clus scale="   89.969">  7  8 -1 -1</clus>
<clus scale="   93.006">  5  6 -1 -1</clus>
<clus scale="   95.863">  2  7  1 -1</clus>
<clus scale="   68.170">  1  5  2 -1</clus>
</clustering>
</event>
<event>
 9    1  0.1321469E-005  0.1196249E+03  0.7546771E-02  0.1248549E+00
          2   -1    0    0  502    0 -0.00000000000E+00  0.00000000000E+00  0.66910293991E+03  0.66910293991E+03  0.00000000000E+00 0. -1.
         21   -1    0    0  501  502  0.00000000000E+00 -0.00000000000E+00 -0.76839050804E+02  0.76839050804E+02  0.00000000000E+00 0. -1.
         23    2    1    2    0    0  0.57961750728E+02  0.27292713896E+02  0.57492076833E+03  0.58719312825E+03  0.10078404249E+03 0.  0.
         23    2    1    2    0    0 -0.44325558973E+02 -0.60476121400E+02  0.32775639275E+02  0.11969445315E+03  0.87352178840E+02 0.  0.
        -11    1    4    4    0    0  0.23587344792E+01 -0.24124572420E+02  0.52090062395E+02  0.57453748556E+02  0.00000000000E+00 0.  1.
         11    1    4    4    0    0 -0.46684293452E+02 -0.36351548980E+02 -0.19314423120E+02  0.62240704598E+02  0.00000000000E+00 0. -1.
        -11    1    3    3    0    0  0.75924375676E+02 -0.11326834225E+02  0.37901668669E+03  0.38671236958E+03  0.00000000000E+00 0. -1.
         11    1    3    3    0    0 -0.17962624948E+02  0.38619548121E+02  0.19590408164E+03  0.20048075867E+03  0.00000000000E+00 0.  1.
          2    1    1    2  501    0 -0.13636191755E+02  0.33183407504E+02 -0.15432518505E+02  0.39054409310E+02  0.00000000000E+00 0. -1.
<scales pt_clust_5="13000.00000" pt_clust_6="13000.00000" pt_clust_7="13000.00000" pt_clust_8="13000.00000" pt_clust_9="35.87596"></scales>
<clustering>
<clus scale="   35.876">  2  9  1 -1</clus>
<clus scale="   87.352">  5  6 -1 -1</clus>
<clus scale="  100.784">  7  8 -1 -1</clus>
<clus scale="  108.550">  2  5  1 -1</clus>
<clus scale="   35.876">  2  5  1 -1</clus>
</clustering>
</event>
<event>
 9    1  0.1321469E-005  0.2744553E+03  0.7546771E-02  0.1098871E+00
         21   -1    0    0  501  502  0.00000000000E+00  0.00000000000E+00  0.14752090457E+03  0.14752090457E+03  0.00000000000E+00 0. -1.
          2   -1    0    0  502    0 -0.00000000000E+00 -0.00000000000E+00 -0.11898569978E+04  0.11898569978E+04  0.00000000000E+00 0. -1.
         23    2    1    2    0    0  0.25312844099E+03 -0.10585184024E+03 -0.74650715408E+03  0.80040474058E+03  0.89978874923E+02 0.  0.
         23    2    1    2    0    0 -0.21787620180E+03  0.89224089932E+02 -0.37291089865E+03  0.45059706016E+03  0.92434813566E+02 0.  0.
        -11    1    3    3    0    0  0.22743871115E+02  0.14459642551E+02 -0.10108650283E+03  0.10461761797E+03  0.00000000000E+00 0.  1.
         11    1    3    3    0    0  0.23038456988E+03 -0.12031148279E+03 -0.64542065125E+03  0.69578712261E+03  0.00000000000E+00 0. -1.
        -13    1    4    4    0    0 -0.29317992303E+02  0.52460369416E+02 -0.10398523002E+03  0.12010230262E+03  0.00000000000E+00 0. -1.
         13    1    4    4    0    0 -0.18855820950E+03  0.36763720516E+02 -0.26892566863E+03  0.33049475754E+03  0.00000000000E+00 0.  1.
          2    1    1    2  501    0 -0.35252239193E+02  0.16627750304E+02  0.77081959515E+02  0.86376101619E+02  0.00000000000E+00 0. -1.
<scales pt_clust_5="13000.00000" pt_clust_6="13000.00000" pt_clust_7="13000.00000" pt_clust_8="13000.00000" pt_clust_9="38.97695"></scales>
<clustering>
<clus scale="   38.977">  1  9  2 -1</clus>
<clus scale="   89.979">  5  6 -1 -1</clus>
<clus scale="   92.435">  7  8 -1 -1</clus>
<clus scale="  273.638">  2  5  1 -1</clus>
<clus scale="   38.977">  1  5  2 -1</clus>
</clustering>
</event>
<event>
 9    1  0.1321469E-005  0.1504965E+03  0.7546771E-02  0.1203339E+00
         -4   -1    0    0    0  501 -0.00000000000E+00  0.00000000000E+00  0.72251626585E+03  0.72251626585E+03  0.00000000000E+00 0.  1.
         21   -1    0    0  501  502  0.00000000000E+00 -0.00000000000E+00 -0.86532635967E+02  0.86532635967E+02  0.00000000000E+00 0.  1.
         23    2    1    2    0    0  0.85759193416E+02  0.23994922883E+02  0.34394079860E+03  0.36722422702E+03  0.92886836462E+02 0.  0.
         23    2    1    2    0    0 -0.12985642227E+03 -0.18386459452E+02  0.33763910053E+03  0.37814547708E+03  0.10859598212E+03 0.  0.
        -13    1    4    4    0    0 -0.58022947256E+02  0.21490638771E+02  0.51682618016E+02  0.80620115158E+02  0.00000000000E+00 0. -1.
         13    1    4    4    0    0 -0.71833475014E+02 -0.39877098223E+02  0.28595648251E+03  0.29752536192E+03  0.00000000000E+00 0.  1.
        -13    1    3    3    0    0  0.68095903934E+02 -0.27752802876E+02  0.18163522512E+03  0.19595567153E+03  0.00000000000E+00 0.  1.
         13    1    3    3    0    0  0.17663289482E+02  0.51747725759E+02  0.16230557348E+03  0.17126855549E+03  0.00000000000E+00 0. -1.
         -4    1    1    2    0  502  0.44097228854E+02 -0.56084634310E+01 -0.45596269238E+02  0.63679197726E+02  0.00000000000E+00 0.  1.
<scales pt_clust_5="13000.00000" pt_clust_6="13000.00000" pt_clust_7="13000.00000" pt_clust_8="13000.00000" pt_clust_9="44.45245"></scales>
<clustering>
<clus scale="   44.452">  2  9  1 -1</clus>
<clus scale="   92.887">  7  8 -1 -1</clus>
<clus scale="  108.596">  5  6 -1 -1</clus>
<clus scale="  139.585">  1  7  2 -1</clus>
<clus scale="   44.452">  2  5  1 -1</clus>
</clustering>
</event>
<event>
 9    1  0.1321469E-005  0.1082218E+03  0.7546771E-02  0.1271824E+00
          2   -1    0    0  502    0 -0.00000000000E+00  0.00000000000E+00  0.22525615552E+03  0.22525615552E+03  0.00000000000E+00 0. -1.
         21   -1    0    0  501  502  0.00000000000E+00 -0.00000000000E+00 -0.10116392875E+03  0.10116392875E+03  0.00000000000E+00 0.  1.
         23    2    1    2    0    0  0.53260114509E+02  0.23559994235E+02  0.10497556240E+03  0.15339577403E+03  0.95491788448E+02 0.  0.
         23    2    1    2    0    0 -0.47520159842E+02  0.66269473059E+01  0.69045455225E+02  0.11439767230E+03  0.77572356667E+02 0.  0.
        -11    1    4    4    0    0 -0.68446524706E+02  0.67933110329E+01  0.61137130940E+02  0.92026216910E+02  0.00000000000E+00 0.  1.
         11    1    4    4    0    0  0.20926364865E+02 -0.16636372698E+00  0.79083242843E+01  0.22371455391E+02  0.00000000000E+00 0. -1.
        -13    1    3    3    0    0  0.23576057658E+02 -0.32039344676E+02  0.12906758752E+02  0.41820264507E+02  0.00000000000E+00 0. -1.
         13    1    3    3    0    0  0.29684056851E+02  0.55599338911E+02  0.92068803653E+02  0.11157550952E+03  0.00000000000E+00 0.  1.
          2    1    1    2  501    0 -0.57399546672E+01 -0.30186941541E+02 -0.49928790864E+02  0.58626637942E+02  0.00000000000E+00 0. -1.
<scales pt_clust_5="13000.00000" pt_clust_6="13000.00000" pt_clust_7="13000.00000" pt_clust_8="13000.00000" pt_clust_9="30.72781"></scales>
<clustering>
<clus scale="   30.728">  2  9  1 -1</clus>
<clus scale="   77.572">  5  6 -1 -1</clus>
<clus scale="   92.794">  2  5  1 -1</clus>
<clus scale="   95.492">  7  8 -1 -1</clus>
<clus scale="   30.728">  2  5  1 -1</clus>
</clustering>
</event>
<event>
 9    1  0.1321469E-005  0.1011884E+03  0.7546771E-02  0.1278092E+00
         21   -1    0    0  501  502  0.00000000000E+00  0.00000000000E+00  0.35841671468E+03  0.35841671468E+03  0.00000000000E+00 0. -1.
          1   -1    0    0  502    0 -0.00000000000E+00 -0.00000000000E+00 -0.12229708680E+03  0.12229708680E+03  0.00000000000E+00 0. -1.
         23    2    1    2    0    0 -0.32244512138E+01  0.35638915910E+02 -0.76607141733E+02  0.12559218552E+03  0.92866643567E+02 0.  0.
         23    2    1    2    0    0  0.35875800790E+02 -0.55947266111E+02  0.15517538600E+03  0.19294585268E+03  0.93442666805E+02 0.  0.
        -11    1    4    4    0    0 -0.28044955317E+01  0.24789226484E+02  0.29303873316E+02  0.38484905303E+02  0.00000000000E+00 0.  1.
         11    1    4    4    0    0  0.38680296322E+02 -0.80736492595E+02  0.12587151268E+03  0.15446094738E+03  0.00000000000E+00 0. -1.
        -13    1    3    3    0    0  0.35430259126E+02 -0.96777795803E+01 -0.14352738549E+02  0.39433029090E+02  0.00000000000E+00 0.  1.
         13    1    3    3    0    0 -0.38654710340E+02  0.45316695490E+02 -0.62254403184E+02  0.86159156434E+02  0.00000000000E+00 0. -1.
          1    1    1    2  501    0 -0.32651349576E+02  0.20308350202E+02  0.15755138362E+03  0.16217576328E+03  0.00000000000E+00 0. -1.
<scales pt_clust_5="13000.00000" pt_clust_6="13000.00000" pt_clust_7="13000.00000" pt_clust_8="13000.00000" pt_clust_9="38.45178"></scales>
<clustering>
<clus scale="   38.452">  1  9  2 -1</clus>
<clus scale="   92.867">  7  8 -1 -1</clus>
<clus scale="   93.443">  5  6 -1 -1</clus>
<clus scale="  100.657">  2  7  1 -1</clus>
<clus scale="   38.452">  1  5  2 -1</clus>
</clustering>
</event>
<event>
 9    1  0.1321469E-005  0.1880888E+03  0.7546771E-02  0.1160338E+00
         -1   -1    0    0    0  501 -0.00000000000E+00  0.00000000000E+00  0.50461682253E+03  0.50461682253E+03  0.00000000000E+00 0.  1.
         21   -1    0    0  501  502  0.00000000000E+00 -0.00000000000E+00 -0.12010351876E+03  0.12010351876E+03  0.00000000000E+00 0. -1.
         23    2    1    2    0    0 -0.77600283890E+01  0.16994298614E+03  0.34837963327E+03  0.39856438626E+03  0.92435731925E+02 0.  0.
         23    2    1    2    0    0  0.40846683198E+02 -0.14173532882E+03  0.47764732549E+02  0.18114839720E+03  0.93679865324E+02 0.  0.
        -13    1    4    4    0    0 -0.96552894185E+01 -0.41844824867E+02  0.54059014374E+02  0.69040502728E+02  0.00000000000E+00 0.  1.
         13    1    4    4    0    0  0.50501972616E+02 -0.99890503957E+02 -0.62942818249E+01  0.11210789447E+03  0.00000000000E+00 0. -1.
        -13    1    3    3    0    0  0.83108608455E+01  0.14543239423E+03  0.33697770541E+03  0.36711527569E+03  0.00000000000E+00 0.  1.
         13    1    3    3    0    0 -0.16070889235E+02  0.24510591911E+02  0.11401927856E+02  0.31449110567E+02  0.00000000000E+00 0. -1.
         -1    1    1    2    0  502 -0.33086654809E+02 -0.28207657317E+02 -0.11631062041E+02  0.45007557831E+02  0.00000000000E+00 0.  1.
<scales pt_clust_5="13000.00000" pt_clust_6="13000.00000" pt_clust_7="13000.00000" pt_clust_8="13000.00000" pt_clust_9="43.47871"></scales>
<clustering>
<clus scale="   43.479">  2  9  1 -1</clus>
<clus scale="   92.436">  7  8 -1 -1</clus>
<clus scale="   93.680">  5  6 -1 -1</clus>
<clus scale="  187.472">  1  7  2 -1</clus>
<clus scale="   43.479">  2  5  1 -1</clus>
</clustering>
</event>
<event>
 9    1  0.1321469E-005  0.9793428E+02  0.7546771E-02  0.1286069E+00
          1   -1    0    0  502    0 -0.00000000000E+00  0.00000000000E+00  0.29070416317E+03  0.29070416317E+03  0.00000000000E+00 0. -1.
         21   -1    0    0  501  502  0.00000000000E+00 -0.00000000000E+00 -0.48857177902E+02  0.48857177902E+02  0.00000000000E+00 0.  1.
         23    2    1    2    0    0  0.29982596806E+01 -0.30340999576E+02  0.14893286589E+03  0.17690958294E+03  0.90478926708E+02 0.  0.
         23    2    1    2    0    0 -0.15246450896E+02  0.51517549471E+02  0.52793047840E+02  0.11566064370E+03  0.87771102497E+02 0.  0.
        -11    1    3    3    0    0  0.19644918100E+02  0.10322313469E+02  0.59358867820E+00  0.22199669142E+02  0.00000000000E+00 0.  1.
         11    1    3    3    0    0 -0.16646658419E+02 -0.40663313045E+02  0.14833927721E+03  0.15470991380E+03  0.00000000000E+00 0. -1.
        -13    1    4    4    0    0 -0.23832545728E+01  0.75275446788E+02  0.44125614915E+02  0.87287700641E+02  0.00000000000E+00 0.  1.
         13    1    4    4    0    0 -0.12863196323E+02 -0.23757897317E+02  0.86674329256E+01  0.28372943064E+02  0.00000000000E+00 0. -1.
          1    1    1    2  501    0  0.12248191215E+02 -0.21176549895E+02  0.40121071531E+02  0.46991114419E+02  0.00000000000E+00 0. -1.
<scales pt_clust_5="13000.00000" pt_clust_6="13000.00000" pt_clust_7="13000.00000" pt_clust_8="13000.00000" pt_clust_9="24.46355"></scales>
<clustering>
<clus scale="   24.464">  2  9  1 -1</clus>
<clus scale="   87.771">  7  8 -1 -1</clus>
<clus scale="   90.479">  5  6 -1 -1</clus>
<clus scale="   95.438">  2  7  1 -1</clus>
<clus scale="   24.464">  2  5  1 -1</clus>
</clustering>
</event>
<event>
 9    1  0.1321469E-005  0.1243220E+03  0.7546771E-02  0.1241511E+00
          1   -1    0    0  502    0 -0.00000000000E+00  0.00000000000E+00  0.32607136624E+03  0.32607136624E+03  0.00000000000E+00 0. -1.
         21   -1    0    0  501  502  0.00000000000E+00 -0.00000000000E+00 -0.70860082841E+02  0.70860082841E+02  0.00000000000E+00 0.  1.
         23    2    1    2    0    0  0.67627114737E+02  0.53134728401E+02  0.11509358451E+03  0.16375892443E+03  0.78573062348E+02 0.  0.
         23    2    1    2    0    0 -0.82194154836E+02  0.49512655867E+01  0.97044175530E+02  0.15940593486E+03  0.95980654007E+02 0.  0.
        -13    1    3    3    0    0  0.10059009094E+02 -0.18144024402E+02  0.40909167617E+02  0.45868826893E+02  0.00000000000E+00 0. -1.
         13    1    3    3    0    0  0.57568105642E+02  0.71278752803E+02  0.74184416894E+02  0.11789009754E+03  0.00000000000E+00 0.  1.
        -13    1    4    4    0    0 -0.77708758252E+02 -0.33563133850E+02  0.81888282298E+02  0.11777447024E+03  0.00000000000E+00 0. -1.
         13    1    4    4    0    0 -0.44853965841E+01  0.38514399437E+02  0.15155893232E+02  0.41631464617E+02  0.00000000000E+00 0.  1.
          1    1    1    2  501    0  0.14567040099E+02 -0.58085993988E+02  0.43073523362E+02  0.73766589793E+02  0.00000000000E+00 0. -1.
<scales pt_clust_5="13000.00000" pt_clust_6="13000.00000" pt_clust_7="13000.00000" pt_clust_8="13000.00000" pt_clust_9="59.88473"></scales>
<clustering>
<clus scale="   59.885">  2  9  1 -1</clus>
<clus scale="   78.573">  5  6 -1 -1</clus>
<clus scale="   95.981">  7  8 -1 -1</clus>
<clus scale="  111.433">  1  5  2 -1</clus>
<clus scale="   59.885">  2  5  1 -1</clus>
</clustering>
</event>
<event>
 9    1  0.1321469E-005  0.1177124E+03  0.7546771E-02  0.1247559E+00
         -1   -1    0    0    0  501 -0.00000000000E+00  0.00000000000E+00  0.14650035280E+03  0.14650035280E+03  0.00000000000E+00 0.  1.
         21   -1    0    0  501  502  0.00000000000E+00 -0.00000000000E+00 -0.13405968548E+03  0.13405968548E+03  0.00000000000E+00 0. -1.
         23    2    1    2    0    0  0.69038808446E+00 -0.69764304791E+02  0.45380959746E+02  0.12367184037E+03  0.91475448808E+02 0.  0.
         23    2    1    2    0    0  0.26850434785E+02  0.80881517382E+02 -0.24531987221E+02  0.12602091852E+03  0.89535958170E+02 0.  0.
        -11    1    4    4    0    0  0.17192240059E+02 -0.14180952216E+02  0.99916985406E+01  0.24423483857E+02  0.00000000000E+00 0.  1.
         11    1    4    4    0    0  0.96581947258E+01  0.95062469598E+02 -0.34523685762E+02  0.10159743466E+03  0.00000000000E+00 0. -1.
        -13    1    3    3    0    0 -0.25102272147E+02 -0.17925933313E+02  0.56819412528E+02  0.64652214132E+02  0.00000000000E+00 0.  1.
         13    1    3    3    0    0  0.25792660232E+02 -0.51838371479E+02 -0.11438452782E+02  0.59019626239E+02  0.00000000000E+00 0. -1.
         -1    1    1    2    0  502 -0.27540822870E+02 -0.11117212590E+02 -0.84083052048E+01  0.30867279383E+02  0.00000000000E+00 0.  1.
<scales pt_clust_5="13000.00000" pt_clust_6="13000.00000" pt_clust_7="13000.00000" pt_clust_8="13000.00000" pt_clust_9="29.69999"></scales>
<clustering>
<clus scale="   29.700">  2  9  1 -1</clus>
<clus scale="   89.536">  5  6 -1 -1</clus>
<clus scale="   91.475">  7  8 -1 -1</clus>
<clus scale="  116.212">  2  5  1 -1</clus>
<clus scale="   29.700">  2  5  1 -1</clus>
</clustering>
</event>
<event>
 9    1  0.1321469E-005  0.1188252E+03  0.7546771E-02  0.1247032E+00
         21   -1    0    0  501  502  0.00000000000E+00  0.00000000000E+00  0.19852151413E+03  0.19852151413E+03  0.00000000000E+00 0.  1.
         -1   -1    0    0    0  501 -0.00000000000E+00 -0.00000000000E+00 -0.20097299189E+03  0.20097299189E+03  0.00000000000E+00 0.  1.
         23    2    1    2    0    0  0.24070678411E+02  0.81715344967E+02 -0.48424351840E+02  0.13481934568E+03  0.92598828045E+02 0.  0.
         23    2    1    2    0    0  0.91494979621E+02 -0.45124758267E+02  0.49044224467E+01  0.13668723094E+03  0.90839257147E+02 0.  0.
        -11    1    3    3    0    0  0.50654340479E+02  0.23160860467E+02 -0.42846038895E+02  0.70271407527E+02  0.00000000000E+00 0.  1.
         11    1    3    3    0    0 -0.26583662068E+02  0.58554484500E+02 -0.55783129455E+01  0.64547938149E+02  0.00000000000E+00 0. -1.
        -11    1    4    4    0    0 -0.23575471404E+01  0.20057295953E+02 -0.79404675551E+01  0.21700326598E+02  0.00000000000E+00 0. -1.
         11    1    4    4    0    0  0.93852526761E+02 -0.65182054220E+02  0.12844890002E+02  0.11498690435E+03  0.00000000000E+00 0.  1.
         -1    1    1    2    0  502 -0.11556565803E+03 -0.36590586700E+02  0.41068451637E+02  0.12798792940E+03  0.00000000000E+00 0.  1.
<scales pt_clust_5="13000.00000" pt_clust_6="13000.00000" pt_clust_7="13000.00000" pt_clust_8="13000.00000" pt_clust_9="121.22002"></scales>
<clustering>
<clus scale="   90.839">  7  8 -1 -1</clus>
<clus scale="   92.599">  5  6 -1 -1</clus>
<clus scale="  121.220">  1  9  2 -1</clus>
<clus scale="  121.220">  1  7  2 -1</clus>
<clus scale="  118.825">  1  5  2 -1</clus>
</clustering>
</event>
<event>
 9    1  0.1321469E-005  0.1143790E+03  0.7546771E-02  0.1256039E+00
          1   -1    0    0  502    0 -0.00000000000E+00  0.00000000000E+00  0.20701024634E+03  0.20701024634E+03  0.00000000000E+00 0. -1.
         21   -1    0    0  501  502  0.00000000000E+00 -0.00000000000E+00 -0.15967318909E+03  0.15967318909E+03  0.00000000000E+00 0. -1.
         23    2    1    2    0    0 -0.18960748869E+01  0.75171191644E+02  0.15520046017E+03  0.19566156558E+03  0.92422736680E+02 0.  0.
         23    2    1    2    0    0 -0.53314484248E+01 -0.33559774368E+02 -0.64903528472E+02  0.11077821495E+03  0.83094296447E+02 0.  0.
        -13    1    3    3    0    0 -0.12019429254E+02  0.95082560147E+02  0.13489504026E+03  0.16547456545E+03  0.00000000000E+00 0. -1.
         13    1    3    3    0    0  0.10123354368E+02 -0.19911368503E+02  0.20305419915E+02  0.30187000136E+02  0.00000000000E+00 0.  1.
        -13    1    4    4    0    0 -0.32827329693E+02  0.77833557101E+01 -0.47298579157E+02  0.58097932761E+02  0.00000000000E+00 0. -1.
         13    1    4    4    0    0  0.27495881268E+02 -0.41343130078E+02 -0.17604949314E+02  0.52680282191E+02  0.00000000000E+00 0.  1.
          1    1    1    2  501    0  0.72275233117E+01 -0.41611417276E+02 -0.42959874460E+02  0.60243654891E+02  0.00000000000E+00 0. -1.
<scales pt_clust_5="13000.00000" pt_clust_6="13000.00000" pt_clust_7="13000.00000" pt_clust_8="13000.00000" pt_clust_9="42.23443"></scales>
<clustering>
<clus scale="   42.234">  2  9  1 -1</clus>
<clus scale="   83.094">  7  8 -1 -1</clus>
<clus scale="   92.423">  5  6 -1 -1</clus>
<clus scale="  106.982">  2  7  1 -1</clus>
<clus scale="   42.234">  2  5  1 -1</clus>
</clustering>
</event>
<event>
 9    1  0.1321469E-005  0.2139228E+03  0.7546771E-02  0.1138677E+00
          1   -1    0    0  502    0 -0.00000000000E+00  0.00000000000E+00  0.12191810273E+04  0.12191810273E+04  0.00000000000E+00 0. -1.
         21   -1    0    0  501  502  0.00000000000E+00 -0.00000000000E+00 -0.71440890289E+02  0.71440890289E+02  0.00000000000E+00 0. -1.
         23    2    1    2    0    0  0.19589918007E+03  0.10663655134E+03  0.85852844880E+03  0.89166424195E+03  0.90808480541E+02 0.  0.
         23    2    1    2    0    0 -0.86160865735E+02 -0.10101252573E+03  0.14365562247E+03  0.21658252500E+03  0.92972184706E+02 0.  0.
        -13    1    3    3    0    0  0.15662006306E+03  0.80662687656E+02  0.78365761769E+03  0.80321577119E+03  0.00000000000E+00 0. -1.
         13    1    3    3    0    0  0.39279117006E+02  0.25973863686E+02  0.74870831111E+02  0.88448470755E+02  0.00000000000E+00 0.  1.
        -13    1    4    4    0    0 -0.45753418565E+01 -0.41865385168E+02  0.12550177090E+01  0.42133351372E+02  0.00000000000E+00 0. -1.
         13    1    4    4    0    0 -0.81585523879E+02 -0.59147140566E+02  0.14240060476E+03  0.17444917363E+03  0.00000000000E+00 0.  1.
          1    1    1    2  501    0 -0.10973831433E+03 -0.56240256080E+01  0.14555606574E+03  0.18237515063E+03  0.00000000000E+00 0. -1.
<scales pt_clust_5="13000.00000" pt_clust_6="13000.00000" pt_clust_7="13000.00000" pt_clust_8="13000.00000" pt_clust_9="109.88233"></scales>
<clustering>
<clus scale="   90.808">  5  6 -1 -1</clus>
<clus scale="   92.972">  7  8 -1 -1</clus>
<clus scale="  109.882">  2  9  1 -1</clus>
<clus scale="  212.991">  1  5  2 -1</clus>
<clus scale="  109.882">  2  5  1 -1</clus>
</clustering>
</event>
<event>
 9    1  0.1321469E-005  0.1093538E+03  0.7546771E-02  0.1264150E+00
         21   -1    0    0  501  502  0.00000000000E+00  0.00000000000E+00  0.47993798825E+03  0.47993798825E+03  0.00000000000E+00 0.  1.
          1   -1    0    0  502    0 -0.00000000000E+00 -0.00000000000E+00 -0.71954404113E+02  0.71954404113E+02  0.00000000000E+00 0. -1.
         23    2    1    2    0    0 -0.25210778739E+02  0.44979188875E+02  0.35633530345E+02  0.11517592570E+03  0.96628332184E+02 0.  0.
         23    2    1    2    0    0 -0.66710585584E+02 -0.68988818957E+02  0.19656708381E+03  0.23690242288E+03  0.90963619970E+02 0.  0.
        -11    1    3    3    0    0  0.10187978455E+02 -0.26602023778E+02  0.17006264569E+02  0.33176431524E+02  0.00000000000E+00 0.  1.
         11    1    3    3    0    0 -0.35398757194E+02  0.71581212652E+02  0.18627265776E+02  0.81999494181E+02  0.00000000000E+00 0. -1.
        -13    1    4    4    0    0 -0.56318917489E+02 -0.20540349368E+02  0.17087860185E+03  0.18108899191E+03  0.00000000000E+00 0. -1.
         13    1    4    4    0    0 -0.10391668095E+02 -0.48448469589E+02  0.25688481955E+02  0.55813430968E+02  0.00000000000E+00 0.  1.
          1    1    1    2  501    0  0.91921364323E+02  0.24009630082E+02  0.17578296998E+03  0.19981404378E+03  0.00000000000E+00 0. -1.
<scales pt_clust_5="13000.00000" pt_clust_6="13000.00000" pt_clust_7="13000.00000" pt_clust_8="13000.00000" pt_clust_9="95.00526"></scales>
<clustering>
<clus scale="   90.964">  7  8 -1 -1</clus>
<clus scale="   95.005">  1  9  2 -1</clus>
<clus scale="   96.628">  5  6 -1 -1</clus>
<clus scale="  104.382">  1  7  2 -1</clus>
<clus scale="   95.005">  1  5  2 -1</clus>
</clustering>
</event>
<event>
 9    1  0.1321469E-005  0.9841786E+02  0.7546771E-02  0.1284482E+00
          3   -1    0    0  502    0 -0.00000000000E+00  0.00000000000E+00  0.13447853471E+03  0.13447853471E+03  0.00000000000E+00 0. -1.
         21   -1    0    0  501  502  0.00000000000E+00 -0.00000000000E+00 -0.11735591910E+03  0.11735591910E+03  0.00000000000E+00 0.  1.
         23    2    1    2    0    0  0.53104552973E+01 -0.18395132984E+02  0.43048229485E+02  0.10447820797E+03  0.93252152925E+02 0.  0.
         23    2    1    2    0    0 -0.23228026914E+02  0.50473933698E+02 -0.11148141877E+02  0.10775242650E+03  0.91646850095E+02 0.  0.
        -13    1    4    4    0    0  0.17649217696E+02  0.55648893212E+02 -0.26060863778E+02  0.63933268506E+02  0.00000000000E+00 0.  1.
         13    1    4    4    0    0 -0.40877244611E+02 -0.51749595141E+01  0.14912721901E+02  0.43819157996E+02  0.00000000000E+00 0. -1.
        -13    1    3    3    0    0  0.38728971729E+02 -0.90536739994E+01  0.54915257619E+02  0.67805514403E+02  0.00000000000E+00 0. -1.
         13    1    3    3    0    0 -0.33418516432E+02 -0.93414589846E+01 -0.11867028134E+02  0.36672693564E+02  0.00000000000E+00 0.  1.
          3    1    1    2  501    0  0.17917571617E+02 -0.32078800714E+02 -0.14777472000E+02  0.39603819343E+02  0.00000000000E+00 0. -1.
<scales pt_clust_5="13000.00000" pt_clust_6="13000.00000" pt_clust_7="13000.00000" pt_clust_8="13000.00000" pt_clust_9="36.74355"></scales>
<clustering>
<clus scale="   36.744">  2  9  1 -1</clus>
<clus scale="   91.647">  5  6 -1 -1</clus>
<clus scale="   93.252">  7  8 -1 -1</clus>
<clus scale="   96.898">  2  5  1 -1</clus>
<clus scale="   36.744">  2  5  1 -1</clus>
</clustering>
</event>
<event>
 9    1  0.1321469E-005  0.9393765E+02  0.7546771E-02  0.1294595E+00
         21   -1    0    0  501  502  0.00000000000E+00  0.00000000000E+00  0.24538582404E+03  0.24538582404E+03  0.00000000000E+00 0. -1.
          4   -1    0    0  502    0 -0.00000000000E+00 -0.00000000000E+00 -0.12580603005E+03  0.12580603005E+03  0.00000000000E+00 0. -1.
         23    2    1    2    0    0 -0.85690137409E+01 -0.25054409749E+02 -0.59041378864E+02  0.11236731327E+03  0.91866083126E+02 0.  0.
         23    2    1    2    0    0 -0.22835909844E+01  0.72468506594E+01  0.12337901363E+02  0.91238698435E+02  0.90080767369E+02 0.  0.
        -13    1    3    3    0    0  0.12557115998E+02  0.23946030098E+02 -0.51913212979E+02  0.58532684899E+02  0.00000000000E+00 0.  1.
         13    1    3    3    0    0 -0.21126129739E+02 -0.49000439847E+02 -0.71281658850E+01  0.53834628371E+02  0.00000000000E+00 0. -1.
        -13    1    4    4    0    0  0.32572133913E+02 -0.26202570882E+02  0.93557827167E+01  0.42837475401E+02  0.00000000000E+00 0.  1.
         13    1    4    4    0    0 -0.34855724898E+02  0.33449421541E+02  0.29821186467E+01  0.48401223034E+02  0.00000000000E+00 0. -1.
          4    1    1    2  501    0  0.10852604725E+02  0.17807559090E+02  0.16628327149E+03  0.16758584239E+03  0.00000000000E+00 0. -1.
<scales pt_clust_5="13000.00000" pt_clust_6="13000.00000" pt_clust_7="13000.00000" pt_clust_8="13000.00000" pt_clust_9="20.85397"></scales>
<clustering>
<clus scale="   20.854">  1  9  2 -1</clus>
<clus scale="   90.081">  7  8 -1 -1</clus>
<clus scale="   91.866">  5  6 -1 -1</clus>
<clus scale="   92.192">  1  7  2 -1</clus>
<clus scale="   20.854">  1  5  2 -1</clus>
</clustering>
</event>
<event>
 9    1  0.1321469E-005  0.1074589E+03  0.7546771E-02  0.1265719E+00
         21   -1    0    0  501  502  0.00000000000E+00  0.00000000000E+00  0.43196067774E+03  0.43196067774E+03  0.00000000000E+00 0. -1.
         -1   -1    0    0    0  501 -0.00000000000E+00 -0.00000000000E+00 -0.82393584503E+02  0.82393584503E+02  0.00000000000E+00 0.  1.
         23    2    1    2    0    0  0.41258746694E+01  0.56361743418E+02 -0.21755979505E+02  0.10973515744E+03  0.91514005334E+02 0.  0.
         23    2    1    2    0    0  0.43183088760E+02 -0.44649462528E+02  0.27443679614E+03  0.29616512313E+03  0.92411424770E+02 0.  0.
        -11    1    4    4    0    0  0.48120290038E+02  0.59666460950E+00  0.22002751132E+03  0.22522882599E+03  0.00000000000E+00 0. -1.
         11    1    4    4    0    0 -0.49372012783E+01 -0.45246127137E+02  0.54409284820E+02  0.70936297140E+02  0.00000000000E+00 0.  1.
        -13    1    3    3    0    0 -0.34126374946E+02  0.19416902139E+02  0.18141789107E+02  0.43252168357E+02  0.00000000000E+00 0.  1.
         13    1    3    3    0    0  0.38252249615E+02  0.36944841279E+02 -0.39897768612E+02  0.66482989087E+02  0.00000000000E+00 0. -1.
         -1    1    1    2    0  502 -0.47308963429E+02 -0.11712280890E+02  0.96886276609E+02  0.10845398167E+03  0.00000000000E+00 0.  1.
<scales pt_clust_5="13000.00000" pt_clust_6="13000.00000" pt_clust_7="13000.00000" pt_clust_8="13000.00000" pt_clust_9="48.73721"></scales>
<clustering>
<clus scale="   48.737">  1  9  2 -1</clus>
<clus scale="   91.514">  7  8 -1 -1</clus>
<clus scale="   92.411">  5  6 -1 -1</clus>
<clus scale="  106.688">  2  7  1 -1</clus>
<clus scale="   48.737">  1  5  2 -1</clus>
</clustering>
</event>
<event>
 9    1  0.1321469E-005  0.1055408E+03  0.7546771E-02  0.1281853E+00
         -1   -1    0    0    0  501 -0.00000000000E+00  0.00000000000E+00  0.12059542943E+03  0.12059542943E+03  0.00000000000E+00 0.  1.
         21   -1    0    0  501  502  0.00000000000E+00 -0.00000000000E+00 -0.23222436491E+03  0.23222436491E+03  0.00000000000E+00 0.  1.
         23    2    1    2    0    0 -0.21057293258E+02  0.41578349459E+02  0.43272422185E+02  0.88226539927E+02  0.61149416045E+02 0.  0.
         23    2    1    2    0    0  0.48631588409E+01 -0.97809613594E+02 -0.45317620840E+02  0.14036443155E+03  0.89767009860E+02 0.  0.
        -11    1    3    3    0    0  0.19863421821E+02  0.19833037271E+02  0.27448231811E+02  0.39259525256E+02  0.00000000000E+00 0.  1.
         11    1    3    3    0    0 -0.40920715079E+02  0.21745312188E+02  0.15824190374E+02  0.48967014670E+02  0.00000000000E+00 0. -1.
        -13    1    4    4    0    0  0.39162300062E+02 -0.75382259055E+02 -0.86732980980E+01  0.85389676345E+02  0.00000000000E+00 0.  1.
         13    1    4    4    0    0 -0.34299141221E+02 -0.22427354539E+02 -0.36644322742E+02  0.54974755200E+02  0.00000000000E+00 0. -1.
         -1    1    1    2    0  502  0.16194134417E+02  0.56231264135E+02 -0.10958373682E+03  0.12422882287E+03  0.00000000000E+00 0.  1.
<scales pt_clust_5="13000.00000" pt_clust_6="13000.00000" pt_clust_7="13000.00000" pt_clust_8="13000.00000" pt_clust_9="58.51671"></scales>
<clustering>
<clus scale="   58.517">  2  9  1 -1</clus>
<clus scale="   61.149">  5  6 -1 -1</clus>
<clus scale="   82.583">  1  5  2 -1</clus>
<clus scale="   89.767">  7  8 -1 -1</clus>
<clus scale="   58.517">  2  5  1 -1</clus>
</clustering>
</event>
<event>
 9    1  0.1321469E-005  0.1208878E+03  0.7546771E-02  0.1242651E+00
         21   -1    0    0  501  502  0.00000000000E+00  0.00000000000E+00  0.47824082235E+02  0.47824082235E+02  0.00000000000E+00 0. -1.
          2   -1    0    0  502    0 -0.00000000000E+00 -0.00000000000E+00 -0.57363689348E+03  0.57363689348E+03  0.00000000000E+00 0. -1.
         23    2    1    2    0    0 -0.22917502436E+02  0.57525339302E+02 -0.24626497160E+03  0.26998863773E+03  0.91722689058E+02 0.  0.
         23    2    1    2    0    0  0.34902557350E+02 -0.83267668328E+02 -0.29233599482E+03  0.32032998808E+03  0.94864504937E+02 0.  0.
        -11    1    4    4    0    0 -0.75477060294E+00 -0.46979186840E+02 -0.36533305166E+02  0.59517191308E+02  0.00000000000E+00 0.  1.
         11    1    4    4    0    0  0.35657327953E+02 -0.36288481488E+02 -0.25580268965E+03  0.26081279677E+03  0.00000000000E+00 0. -1.
        -13    1    3    3    0    0  0.14339596934E+02  0.61984238653E+02 -0.96429925568E+02  0.11552662216E+03  0.00000000000E+00 0.  1.
         13    1    3    3    0    0 -0.37257099369E+02 -0.44588993505E+01 -0.14983504603E+03  0.15446201558E+03  0.00000000000E+00 0. -1.
          2    1    1    2  501    0 -0.11985054914E+02  0.25742329026E+02  0.12788155172E+02  0.31142349906E+02  0.00000000000E+00 0. -1.
<scales pt_clust_5="13000.00000" pt_clust_6="13000.00000" pt_clust_7="13000.00000" pt_clust_8="13000.00000" pt_clust_9="28.39558"></scales>
<clustering>
<clus scale="   28.396">  1  9  2 -1</clus>
<clus scale="   91.723">  7  8 -1 -1</clus>
<clus scale="   94.865">  5  6 -1 -1</clus>
<clus scale="  118.438">  2  7  1 -1</clus>
<clus scale="   28.396">  1  5  2 -1</clus>
</clustering>
</event>
<event>
 9    1  0.1321469E-005  0.2595164E+03  0.7546771E-02  0.1107438E+00
         21   -1    0    0  501  502  0.00000000000E+00  0.00000000000E+00  0.53500134557E+03  0.53500134557E+03  0.00000000000E+00 0.  1.
         -3   -1    0    0    0  501 -0.00000000000E+00 -0.00000000000E+00 -0.24069488778E+03  0.24069488778E+03  0.00000000000E+00 0.  1.
         23    2    1    2    0    0 -0.22811685818E+03 -0.11922301643E+03 -0.26840605904E+02  0.27438966078E+03  0.91202188497E+02 0.  0.
         23    2    1    2    0    0  0.20094684888E+03  0.98502215774E+02  0.75374263928E+02  0.25316985604E+03  0.91276359245E+02 0.  0.
        -13    1    4    4    0    0  0.46472051042E+02  0.33763417329E+02  0.62947603745E+02  0.85217490546E+02  0.00000000000E+00 0.  1.
         13    1    4    4    0    0  0.15447479784E+03  0.64738798445E+02  0.12426660183E+02  0.16795236550E+03  0.00000000000E+00 0. -1.
        -13    1    3    3    0    0 -0.65250436057E+02 -0.61424732399E+02  0.26633053112E+02  0.93487628454E+02  0.00000000000E+00 0. -1.
         13    1    3    3    0    0 -0.16286642212E+03 -0.57798284027E+02 -0.53473659016E+02  0.18090203232E+03  0.00000000000E+00 0.  1.
         -3    1    1    2    0  502  0.27170009292E+02  0.20720800652E+02  0.24577279977E+03  0.24813671653E+03  0.00000000000E+00 0.  1.
<scales pt_clust_5="13000.00000" pt_clust_6="13000.00000" pt_clust_7="13000.00000" pt_clust_8="13000.00000" pt_clust_9="34.16959"></scales>
<clustering>
<clus scale="   34.170">  1  9  2 -1</clus>
<clus scale="   91.202">  7  8 -1 -1</clus>
<clus scale="   91.276">  5  6 -1 -1</clus>
<clus scale="  259.490">  2  7  1 -1</clus>
<clus scale="   34.170">  1  5  2 -1</clus>
</clustering>
</event>
<event>
 9    1  0.1321469E-005  0.1661149E+03  0.7546771E-02  0.1182358E+00
         21   -1    0    0  501  502  0.00000000000E+00  0.00000000000E+00  0.10139223385E+03  0.10139223385E+03  0.00000000000E+00 0. -1.
          1   -1    0    0  502    0 -0.00000000000E+00 -0.00000000000E+00 -0.62755755322E+03  0.62755755322E+03  0.00000000000E+00 0. -1.
         23    2    1    2    0    0  0.81915871669E+02 -0.10185097677E+03 -0.43550581275E+03  0.46419029367E+03  0.93399594744E+02 0.  0.
         23    2    1    2    0    0 -0.80367935906E+02  0.14242040297E+03 -0.11290386967E+03  0.21846601508E+03  0.90760892753E+02 0.  0.
        -13    1    4    4    0    0 -0.59376448126E+01  0.23608988055E+02  0.15078622128E+02  0.28635725732E+02  0.00000000000E+00 0.  1.
         13    1    4    4    0    0 -0.74430291094E+02  0.11881141492E+03 -0.12798249180E+03  0.18983028935E+03  0.00000000000E+00 0. -1.
        -13    1    3    3    0    0  0.84898663896E+02 -0.79501582765E+02 -0.42237718706E+03  0.43809904467E+03  0.00000000000E+00 0. -1.
         13    1    3    3    0    0 -0.29827922273E+01 -0.22349394006E+02 -0.13128625694E+02  0.26091249003E+02  0.00000000000E+00 0.  1.
          1    1    1    2  501    0 -0.15479357625E+01 -0.40569426203E+02  0.22244363046E+02  0.46293478319E+02  0.00000000000E+00 0. -1.
<scales pt_clust_5="13000.00000" pt_clust_6="13000.00000" pt_clust_7="13000.00000" pt_clust_8="13000.00000" pt_clust_9="40.59895"></scales>
<clustering>
<clus scale="   40.599">  1  9  2 -1</clus>
<clus scale="   90.761">  5  6 -1 -1</clus>
<clus scale="   93.400">  7  8 -1 -1</clus>
<clus scale="  164.646">  1  5  2 -1</clus>
<clus scale="   40.599">  1  5  2 -1</clus>
</clustering>
</event>
<event>
 9    1  0.1321469E-005  0.2319296E+03  0.7546771E-02  0.1125800E+00
          1   -1    0    0  502    0 -0.00000000000E+00  0.00000000000E+00  0.47482069302E+03  0.47482069302E+03  0.00000000000E+00 0. -1.
         21   -1    0    0  501  502  0.00000000000E+00 -0.00000000000E+00 -0.17947092760E+03  0.17947092760E+03  0.00000000000E+00 0.  1.
         23    2    1    2    0    0 -0.20789440916E+03  0.68608624930E+02  0.22978658810E+03  0.33006132982E+03  0.90616646365E+02 0.  0.
         23    2    1    2    0    0  0.18464054207E+03 -0.75849318731E+02  0.12850539359E+03  0.25674034657E+03  0.97758480191E+02 0.  0.
        -11    1    4    4    0    0  0.25206512241E+02 -0.15335073016E+02 -0.15689468674E+02  0.33416944070E+02  0.00000000000E+00 0.  1.
         11    1    4    4    0    0  0.15943402983E+03 -0.60514245715E+02  0.14419486227E+03  0.22332340250E+03  0.00000000000E+00 0. -1.
        -13    1    3    3    0    0 -0.13396852013E+03  0.82074526827E+02  0.12322300031E+03  0.19966897643E+03  0.00000000000E+00 0.  1.
         13    1    3    3    0    0 -0.73925889026E+02 -0.13465901897E+02  0.10656358779E+03  0.13039235340E+03  0.00000000000E+00 0. -1.
          1    1    1    2  501    0  0.23253867092E+02  0.72406938002E+01 -0.62942216278E+02  0.67489944225E+02  0.00000000000E+00 0. -1.
<scales pt_clust_5="13000.00000" pt_clust_6="13000.00000" pt_clust_7="13000.00000" pt_clust_8="13000.00000" pt_clust_9="24.35508"></scales>
<clustering>
<clus scale="   24.355">  2  9  1 -1</clus>
<clus scale="   90.617">  7  8 -1 -1</clus>
<clus scale="   97.758">  5  6 -1 -1</clus>
<clus scale="  229.011">  1  7  2 -1</clus>
<clus scale="   24.355">  2  5  1 -1</clus>
</clustering>
</event>
<event>
 9    1  0.1321469E-005  0.9282636E+02  0.7546771E-02  0.1298015E+00
         21   -1    0    0  501  502  0.00000000000E+00  0.00000000000E+00  0.13577094482E+03  0.13577094482E+03  0.00000000000E+00 0.  1.
          1   -1    0    0  502    0 -0.00000000000E+00 -0.00000000000E+00 -0.15125360774E+03  0.15125360774E+03  0.00000000000E+00 0. -1.
         23    2    1    2    0    0  0.94339199804E+01  0.49713621936E+01 -0.78751410369E+02  0.12214302555E+03  0.92754626665E+02 0.  0.
         23    2    1    2    0    0  0.27257584918E+02  0.11364202142E+01  0.25722434612E+01  0.93694188705E+02  0.89597528840E+02 0.  0.
        -11    1    4    4    0    0  0.58475366744E+02  0.60319999511E+01 -0.10102964036E+02  0.59647493003E+02  0.00000000000E+00 0.  1.
         11    1    4    4    0    0 -0.31217781826E+02 -0.48955797368E+01  0.12675207497E+02  0.34046695702E+02  0.00000000000E+00 0. -1.
        -13    1    3    3    0    0 -0.30382176596E+02  0.16578231420E+02 -0.17164346140E+01  0.34653435032E+02  0.00000000000E+00 0. -1.
         13    1    3    3    0    0  0.39816096577E+02 -0.11606869227E+02 -0.77034975755E+02  0.87489590520E+02  0.00000000000E+00 0.  1.
          1    1    1    2  501    0 -0.36691504898E+02 -0.61077824078E+01  0.60696503990E+02  0.71187338300E+02  0.00000000000E+00 0. -1.
<scales pt_clust_5="13000.00000" pt_clust_6="13000.00000" pt_clust_7="13000.00000" pt_clust_8="13000.00000" pt_clust_9="37.19639"></scales>
<clustering>
<clus scale="   37.196">  1  9  2 -1</clus>
<clus scale="   89.598">  5  6 -1 -1</clus>
<clus scale="   89.672">  1  5  2 -1</clus>
<clus scale="   92.755">  7  8 -1 -1</clus>
<clus scale="   37.196">  1  5  2 -1</clus>
</clustering>
</event>
<event>
 9    1  0.1321469E-005  0.9221125E+02  0.7546771E-02  0.1301064E+00
         21   -1    0    0  501  502  0.00000000000E+00  0.00000000000E+00  0.67584497669E+02  0.67584497669E+02  0.00000000000E+00 0. -1.
          1   -1    0    0  502    0 -0.00000000000E+00 -0.00000000000E+00 -0.35953506510E+03  0.35953506510E+03  0.00000000000E+00 0. -1.
         23    2    1    2    0    0 -0.18804504886E+02  0.83386740718E+01 -0.25399120269E+03  0.26779369953E+03  0.82333417119E+02 0.  0.
         23    2    1    2    0    0  0.41040483645E+02 -0.32581338984E+02 -0.60725365495E+02  0.11932040932E+03  0.88339827471E+02 0.  0.
        -11    1    3    3    0    0 -0.26897276929E+02 -0.33026565118E+02 -0.13481075005E+03  0.14137947461E+03  0.00000000000E+00 0. -1.
         11    1    3    3    0    0  0.80927720425E+01  0.41365239190E+02 -0.11918045264E+03  0.12641422492E+03  0.00000000000E+00 0.  1.
        -11    1    4    4    0    0  0.49666915365E+02  0.16899666601E+02 -0.32243964488E+02  0.61579821850E+02  0.00000000000E+00 0. -1.
         11    1    4    4    0    0 -0.86264317204E+01 -0.49481005585E+02 -0.28481401007E+02  0.57740587468E+02  0.00000000000E+00 0.  1.
          1    1    1    2  501    0 -0.22235978759E+02  0.24242664912E+02  0.22766000753E+02  0.40005453924E+02  0.00000000000E+00 0. -1.
<scales pt_clust_5="13000.00000" pt_clust_6="13000.00000" pt_clust_7="13000.00000" pt_clust_8="13000.00000" pt_clust_9="32.89598"></scales>
<clustering>
<clus scale="   32.896">  1  9  2 -1</clus>
<clus scale="   82.333">  5  6 -1 -1</clus>
<clus scale="   86.474">  2  5  1 -1</clus>
<clus scale="   88.340">  7  8 -1 -1</clus>
<clus scale="   32.896">  1  5  2 -1</clus>
</clustering>
</event>
<event>
 9    1  0.1321469E-005  0.9637943E+02  0.7546771E-02  0.1288447E+00
          2   -1    0    0  502    0 -0.00000000000E+00  0.00000000000E+00  0.28650726001E+03  0.28650726001E+03  0.00000000000E+00 0. -1.
         21   -1    0    0  501  502  0.00000000000E+00 -0.00000000000E+00 -0.10132940882E+03  0.10132940882E+03  0.00000000000E+00 0.  1.
         23    2    1    2    0    0  0.14998306707E+02 -0.36831756867E+01  0.13571293610E+03  0.16375869394E+03  0.90334898190E+02 0.  0.
         23    2    1    2    0    0 -0.95481414487E+02  0.25322518870E+02  0.20599570851E+02  0.13587933595E+03  0.90999566735E+02 0.  0.
        -13    1    3    3    0    0  0.35309496662E+02 -0.35184210713E+02  0.10118892123E+03  0.11280020841E+03  0.00000000000E+00 0. -1.
         13    1    3    3    0    0 -0.20311189956E+02  0.31501035026E+02  0.34524014862E+02  0.50958485528E+02  0.00000000000E+00 0.  1.
        -13    1    4    4    0    0 -0.67024575330E+02  0.14651137831E+02  0.56474662860E+02  0.88861336266E+02  0.00000000000E+00 0. -1.
         13    1    4    4    0    0 -0.28456839157E+02  0.10671381039E+02 -0.35875092009E+02  0.47017999688E+02  0.00000000000E+00 0.  1.
          2    1    1    2  501    0  0.80483107780E+02 -0.21639343183E+02  0.28865344248E+02  0.88198638935E+02  0.00000000000E+00 0. -1.
<scales pt_clust_5="13000.00000" pt_clust_6="13000.00000" pt_clust_7="13000.00000" pt_clust_8="13000.00000" pt_clust_9="83.34142"></scales>
<clustering>
<clus scale="   83.341">  2  9  1 -1</clus>
<clus scale="   90.335">  5  6 -1 -1</clus>
<clus scale="   91.000">  7  8 -1 -1</clus>
<clus scale="   95.752">  1  5  2 -1</clus>
<clus scale="   83.341">  2  5  1 -1</clus>
</clustering>
</event>
<event>
 9    1  0.1321469E-005  0.9419574E+02  0.7546771E-02  0.1293075E+00
         -1   -1    0    0    0  501 -0.00000000000E+00  0.00000000000E+00  0.16134555560E+03  0.16134555560E+03  0.00000000000E+00 0.  1.
         21   -1    0    0  501  502  0.00000000000E+00 -0.00000000000E+00 -0.84867430134E+02  0.84867430134E+02  0.00000000000E+00 0. -1.
         23    2    1    2    0    0 -0.11838351876E+02  0.63403066796E+01  0.71479304726E+02  0.11680890784E+03  0.91403959883E+02 0.  0.
         23    2    1    2    0    0  0.37651592558E+02 -0.97454714298E+01  0.16705659695E+02  0.10085642265E+03  0.91544100235E+02 0.  0.
        -11    1    3    3    0    0 -0.36303177824E+02  0.16132036071E+02  0.79827906219E+02  0.89166461852E+02  0.00000000000E+00 0.  1.
         11    1    3    3    0    0  0.24464825949E+02 -0.97917293911E+01 -0.83486014936E+01  0.27642445986E+02  0.00000000000E+00 0. -1.
        -13    1    4    4    0    0  0.42221823817E+02  0.19721046219E+02 -0.22379214335E+02  0.51695563684E+02  0.00000000000E+00 0. -1.
         13    1    4    4    0    0 -0.45702312586E+01 -0.29466517649E+02  0.39084874030E+02  0.49160858964E+02  0.00000000000E+00 0.  1.
         -1    1    1    2    0  502 -0.25813240683E+02  0.34051647502E+01 -0.11706838959E+02  0.28547655244E+02  0.00000000000E+00 0.  1.
<scales pt_clust_5="13000.00000" pt_clust_6="13000.00000" pt_clust_7="13000.00000" pt_clust_8="13000.00000" pt_clust_9="26.03687"></scales>
<clustering>
<clus scale="   26.037">  2  9  1 -1</clus>
<clus scale="   91.404">  5  6 -1 -1</clus>
<clus scale="   91.544">  7  8 -1 -1</clus>
<clus scale="   94.060">  1  5  2 -1</clus>
<clus scale="   26.037">  2  5  1 -1</clus>
</clustering>
</event>
<event>
 9    1  0.1321469E-005  0.1798275E+03  0.7546771E-02  0.1173539E+00
          2   -1    0    0  502    0 -0.00000000000E+00  0.00000000000E+00  0.13912259514E+03  0.13912259514E+03  0.00000000000E+00 0. -1.
         21   -1    0    0  501  502  0.00000000000E+00 -0.00000000000E+00 -0.62831057497E+03  0.62831057497E+03  0.00000000000E+00 0. -1.
         23    2    1    2    0    0  0.40924854022E+02 -0.12350128170E+03  0.89155779281E+00  0.15834749731E+03  0.90253669004E+02 0.  0.
         23    2    1    2    0    0 -0.14801214318E+03 -0.27486247431E+02 -0.24974904434E+03  0.30573164291E+03  0.91837704690E+02 0.  0.
        -13    1    3    3    0    0  0.14227073245E+02 -0.32482000598E+02 -0.41384149594E+02  0.54498970757E+02  0.00000000000E+00 0.  1.
         13    1    3    3    0    0  0.26697780777E+02 -0.91019281106E+02  0.42275707386E+02  0.10384852655E+03  0.00000000000E+00 0. -1.
        -13    1    4    4    0    0 -0.73351876684E+02  0.21633791265E+02 -0.64468360723E+02  0.10002343861E+03  0.00000000000E+00 0.  1.
         13    1    4    4    0    0 -0.74660266497E+02 -0.49120038697E+02 -0.18528068362E+03  0.20570820430E+03  0.00000000000E+00 0. -1.
          2    1    1    2  501    0  0.10708728916E+03  0.15098752914E+03 -0.24033049328E+03  0.30335402989E+03  0.00000000000E+00 0. -1.
<scales pt_clust_5="13000.00000" pt_clust_6="13000.00000" pt_clust_7="13000.00000" pt_clust_8="13000.00000" pt_clust_9="154.60848"></scales>
<clustering>
<clus scale="   90.254">  5  6 -1 -1</clus>
<clus scale="   91.838">  7  8 -1 -1</clus>
<clus scale="  158.345">  1  5  2 -1</clus>
<clus scale="  154.608">  2  9  1 -1</clus>
<clus scale="  154.608">  2  5  1 -1</clus>
</clustering>
</event>
<event>
 9    1  0.1505553E-005  0.2012803E+03  0.7546771E-02  0.1148768E+00
         21   -1    0    0  501  502  0.00000000000E+00  0.00000000000E+00  0.14367507874E+03  0.14367507874E+03  0.00000000000E+00 0. -1.
          2   -1    0    0  502    0 -0.00000000000E+00 -0.00000000000E+00 -0.11037579992E+04  0.11037579992E+04  0.00000000000E+00 0. -1.
         23    2    1    2    0    0 -0.20889936871E+02  0.20169081615E+03 -0.97099720344E+03  0.99608706989E+03  0.90765119610E+02 0.  0.
         23    2    1    2    0    0  0.19029705942E+02 -0.80128383618E+02 -0.22161926101E+02  0.12535028955E+03  0.91863249191E+02 0.  0.
        -11    1    3    3    0    0  0.30384973469E+02  0.84308725764E+02 -0.30543523633E+03  0.31831099799E+03  0.00000000000E+00 0.  1.
         11    1    3    3    0    0 -0.51274910340E+02  0.11738209038E+03 -0.66556196711E+03  0.67777607190E+03  0.00000000000E+00 0. -1.
        -11    1    4    4    0    0  0.52445989650E+02 -0.70820628212E+02 -0.10474951617E+02  0.88746086236E+02  0.00000000000E+00 0.  1.
         11    1    4    4    0    0 -0.33416283708E+02 -0.93077554055E+01 -0.11686974484E+02  0.36604203312E+02  0.00000000000E+00 0. -1.
          2    1    1    2  501    0  0.18602309285E+01 -0.12156243253E+03  0.33076209117E+02  0.12599571846E+03  0.00000000000E+00 0. -1.
<scales pt_clust_5="13000.00000" pt_clust_6="13000.00000" pt_clust_7="13000.00000" pt_clust_8="13000.00000" pt_clust_9="121.57666"></scales>
<clustering>
<clus scale="   90.765">  5  6 -1 -1</clus>
<clus scale="   91.863">  7  8 -1 -1</clus>
<clus scale="  121.577">  1  9  2 -1</clus>
<clus scale="  200.781">  2  5  1 -1</clus>
<clus scale="  121.577">  1  5  2 -1</clus>
</clustering>
</event>
<event>
 9    1  0.1321469E-005  0.1006263E+03  0.7546771E-02  0.1279875E+00
          2   -1    0    0  502    0 -0.00000000000E+00  0.00000000000E+00  0.51887819074E+03  0.51887819074E+03  0.00000000000E+00 0. -1.
         21   -1    0    0  501  502  0.00000000000E+00 -0.00000000000E+00 -0.41195559392E+02  0.41195559392E+02  0.00000000000E+00 0.  1.
         23    2    1    2    0    0 -0.31474746820E+02  0.26471479298E+02  0.41064381184E+03  0.42305674790E+03  0.93044466971E+02 0.  0.
         23    2    1    2    0    0  0.85549124805E+01 -0.27611407759E+02  0.47237387919E+02  0.10670669152E+03  0.91210585081E+02 0.  0.
        -11    1    3    3    0    0  0.32381703530E+02  0.21246234873E+01  0.10675559249E+03  0.11157887468E+03  0.00000000000E+00 0.  1.
         11    1    3    3    0    0 -0.63856450349E+02  0.24346855811E+02  0.30388821935E+03  0.31147787321E+03  0.00000000000E+00 0. -1.
        -13    1    4    4    0    0  0.31769699884E+02  0.13849914998E+02 -0.61893982421E+01  0.35205718666E+02  0.00000000000E+00 0.  1.
         13    1    4    4    0    0 -0.23214787404E+02 -0.41461322757E+02  0.53426786161E+02  0.71500972850E+02  0.00000000000E+00 0. -1.
          2    1    1    2  501    0  0.22919834339E+02  0.11399284605E+01  0.19801431590E+02  0.30310310722E+02  0.00000000000E+00 0. -1.
<scales pt_clust_5="13000.00000" pt_clust_6="13000.00000" pt_clust_7="13000.00000" pt_clust_8="13000.00000" pt_clust_9="22.94816"></scales>
<clustering>
<clus scale="   22.948">  2  9  1 -1</clus>
<clus scale="   91.211">  7  8 -1 -1</clus>
<clus scale="   93.044">  5  6 -1 -1</clus>
<clus scale="   98.933">  2  7  1 -1</clus>
<clus scale="   22.948">  2  5  1 -1</clus>
</clustering>
</event>
<event>
 9    1  0.1321469E-005  0.1154085E+03  0.7546771E-02  0.1251566E+00
         21   -1    0    0  501  502  0.00000000000E+00  0.00000000000E+00  0.15231490920E+03  0.15231490920E+03  0.00000000000E+00 0. -1.
          3   -1    0    0  502    0 -0.00000000000E+00 -0.00000000000E+00 -0.40704375789E+03  0.40704375789E+03  0.00000000000E+00 0. -1.
         23    2    1    2    0    0 -0.21412007984E+02 -0.76007334207E+02 -0.35319820391E+03  0.37312639829E+03  0.90767554320E+02 0.  0.
         23    2    1    2    0    0 -0.80604064092E+01  0.16081126469E+02  0.47652560182E+02  0.10231492707E+03  0.88735590550E+02 0.  0.
        -11    1    3    3    0    0 -0.42693748174E+02 -0.16284331239E+01 -0.11502502028E+03  0.12270355829E+03  0.00000000000E+00 0. -1.
         11    1    3    3    0    0  0.21281740190E+02 -0.74378901083E+02 -0.23817318363E+03  0.25042284000E+03  0.00000000000E+00 0.  1.
        -13    1    4    4    0    0 -0.28609796752E+02 -0.29141003740E+02  0.22827029283E+02  0.46784525594E+02  0.00000000000E+00 0.  1.
         13    1    4    4    0    0  0.20549390343E+02  0.45222130209E+02  0.24825530899E+02  0.55530401480E+02  0.00000000000E+00 0. -1.
          3    1    1    2  501    0  0.29472414393E+02  0.59926207738E+02  0.50816795037E+02  0.83917341722E+02  0.00000000000E+00 0. -1.
<scales pt_clust_5="13000.00000" pt_clust_6="13000.00000" pt_clust_7="13000.00000" pt_clust_8="13000.00000" pt_clust_9="66.78154"></scales>
<clustering>
<clus scale="   66.782">  1  9  2 -1</clus>
<clus scale="   88.736">  7  8 -1 -1</clus>
<clus scale="   90.768">  5  6 -1 -1</clus>
<clus scale="  113.817">  1  7  2 -1</clus>
<clus scale="   66.782">  1  5  2 -1</clus>
</clustering>
</event>
<event>
 9    1  0.1321469E-005  0.9424791E+02  0.7546771E-02  0.1293042E+00
         21   -1    0    0  501  502  0.00000000000E+00  0.00000000000E+00  0.68789077569E+02  0.68789077569E+02  0.00000000000E+00 0.  1.
         -2   -1    0    0    0  501 -0.00000000000E+00 -0.00000000000E+00 -0.20058184703E+03  0.20058184703E+03  0.00000000000E+00 0. -1.
         23    2    1    2    0    0  0.12751606362E+02  0.13672324746E+02 -0.11161876975E+03  0.14509488830E+03  0.90797802411E+02 0.  0.
         23    2    1    2    0    0 -0.28874895947E+02 -0.28611668839E+02 -0.23729905346E+02  0.10200971793E+03  0.90501309022E+02 0.  0.
        -13    1    4    4    0    0  0.21432229042E+00  0.29873294072E+02 -0.21216687274E+02  0.36641608202E+02  0.00000000000E+00 0. -1.
         13    1    4    4    0    0 -0.29089218238E+02 -0.58484962911E+02 -0.25132180719E+01  0.65368109728E+02  0.00000000000E+00 0.  1.
        -13    1    3    3    0    0  0.38765147278E+02 -0.22990544183E+02 -0.38563734159E+02  0.59316636432E+02  0.00000000000E+00 0.  1.
         13    1    3    3    0    0 -0.26013540915E+02  0.36662868929E+02 -0.73055035589E+02  0.85778251871E+02  0.00000000000E+00 0. -1.
         -2    1    1    2    0  502  0.16123289585E+02  0.14939344093E+02  0.35559056292E+01  0.22266318371E+02  0.00000000000E+00 0. -1.
<scales pt_clust_5="13000.00000" pt_clust_6="13000.00000" pt_clust_7="13000.00000" pt_clust_8="13000.00000" pt_clust_9="21.98055"></scales>
<clustering>
<clus scale="   21.981">  1  9  2 -1</clus>
<clus scale="   90.501">  5  6 -1 -1</clus>
<clus scale="   90.798">  7  8 -1 -1</clus>
<clus scale="   93.962">  1  5  2 -1</clus>
<clus scale="   21.981">  1  5  2 -1</clus>
</clustering>
</event>
<event>
 9    1  0.1321469E-005  0.1054108E+03  0.7546771E-02  0.1269764E+00
         -4   -1    0    0    0  501 -0.00000000000E+00  0.00000000000E+00  0.83639193444E+02  0.83639193444E+02  0.00000000000E+00 0.  1.
         21   -1    0    0  501  502  0.00000000000E+00 -0.00000000000E+00 -0.21592843356E+03  0.21592843356E+03  0.00000000000E+00 0. -1.
         23    2    1    2    0    0  0.35049849020E+02 -0.52755128110E+02 -0.11557389929E+01  0.11145130132E+03  0.91697662862E+02 0.  0.
         23    2    1    2    0    0 -0.29066425152E+02  0.17559314037E+02 -0.79053610394E+02  0.12497472523E+03  0.90642275183E+02 0.  0.
        -11    1    3    3    0    0  0.59222231050E+02 -0.56986448790E+02 -0.14594001188E+02  0.83472827117E+02  0.00000000000E+00 0. -1.
         11    1    3    3    0    0 -0.24172382030E+02  0.42313206801E+01  0.13438262195E+02  0.27978474200E+02  0.00000000000E+00 0.  1.
        -11    1    4    4    0    0 -0.16624189766E+02  0.50623851259E+02 -0.21530114235E+02  0.57468981378E+02  0.00000000000E+00 0. -1.
         11    1    4    4    0    0 -0.12442235385E+02 -0.33064537223E+02 -0.57523496159E+02  0.67505743855E+02  0.00000000000E+00 0.  1.
         -4    1    1    2    0  502 -0.59834238687E+01  0.35195814073E+02 -0.52079890726E+02  0.63141600450E+02  0.00000000000E+00 0.  1.
<scales pt_clust_5="13000.00000" pt_clust_6="13000.00000" pt_clust_7="13000.00000" pt_clust_8="13000.00000" pt_clust_9="35.70079"></scales>
<clustering>
<clus scale="   35.701">  2  9  1 -1</clus>
<clus scale="   90.642">  7  8 -1 -1</clus>
<clus scale="   91.698">  5  6 -1 -1</clus>
<clus scale="  104.494">  2  7  1 -1</clus>
<clus scale="   35.701">  2  5  1 -1</clus>
</clustering>
</event>
<event>
 9    1  0.1321469E-005  0.1636540E+03  0.7546771E-02  0.1184710E+00
         21   -1    0    0  501  502  0.00000000000E+00  0.00000000000E+00  0.18798571242E+03  0.18798571242E+03  0.00000000000E+00 0.  1.
          3   -1    0    0  502    0 -0.00000000000E+00 -0.00000000000E+00 -0.40941628031E+03  0.40941628031E+03  0.00000000000E+00 0. -1.
         23    2    1    2    0    0 -0.33957877931E+02  0.16895026482E+03 -0.28077405206E+03  0.34148713523E+03  0.89900310138E+02 0.  0.
         23    2    1    2    0    0  0.59654476312E+02 -0.54869916155E+02 -0.67119142429E+01  0.12160939678E+03  0.90412561901E+02 0.  0.
        -13    1    3    3    0    0 -0.55319797066E+02  0.71020431831E+02 -0.16806172823E+03  0.19065394352E+03  0.00000000000E+00 0.  1.
         13    1    3    3    0    0  0.21361919135E+02  0.97929832991E+02 -0.11271232383E+03  0.15083319171E+03  0.00000000000E+00 0. -1.
        -13    1    4    4    0    0  0.21418763043E+02  0.12164136315E+01 -0.40465574510E+02  0.45800718257E+02  0.00000000000E+00 0.  1.
         13    1    4    4    0    0  0.38235713269E+02 -0.56086329786E+02  0.33753660267E+02  0.75808678524E+02  0.00000000000E+00 0. -1.
          3    1    1    2  501    0 -0.25696598381E+02 -0.11408034867E+03  0.66055398406E+02  0.13430546072E+03  0.00000000000E+00 0. -1.
<scales pt_clust_5="13000.00000" pt_clust_6="13000.00000" pt_clust_7="13000.00000" pt_clust_8="13000.00000" pt_clust_9="116.93862"></scales>
<clustering>
<clus scale="   89.900">  5  6 -1 -1</clus>
<clus scale="   90.413">  7  8 -1 -1</clus>
<clus scale="  116.939">  1  9  2 -1</clus>
<clus scale="  163.372">  2  5  1 -1</clus>
<clus scale="  116.939">  1  5  2 -1</clus>
</clustering>
</event>
<event>
 9    1  0.1321469E-005  0.1345352E+03  0.7546771E-02  0.1221038E+00
         21   -1    0    0  501  502  0.00000000000E+00  0.00000000000E+00  0.62704858647E+03  0.62704858647E+03  0.00000000000E+00 0.  1.
         -2   -1    0    0    0  501 -0.00000000000E+00 -0.00000000000E+00 -0.28055907134E+03  0.28055907134E+03  0.00000000000E+00 0.  1.
         23    2    1    2    0    0 -0.17870925978E+02  0.10159061919E+03 -0.19777510851E+03  0.24149063584E+03  0.92534910984E+02 0.  0.
         23    2    1    2    0    0 -0.97559990907E+02 -0.77603484877E+02  0.57358877305E+02  0.16514108942E+03  0.91876470969E+02 0.  0.
        -13    1    4    4    0    0 -0.57702120766E+02  0.90152721491E+01  0.12309056425E+02  0.59685197016E+02  0.00000000000E+00 0.  1.
         13    1    4    4    0    0 -0.39857870141E+02 -0.86618757026E+02  0.45049820880E+02  0.10545589240E+03  0.00000000000E+00 0. -1.
        -13    1    3    3    0    0 -0.12513341345E+01  0.11479349774E+03 -0.18143518259E+03  0.21470407179E+03  0.00000000000E+00 0.  1.
         13    1    3    3    0    0 -0.16619591844E+02 -0.13202878545E+02 -0.16339925917E+02  0.26786564056E+02  0.00000000000E+00 0. -1.
         -2    1    1    2    0  502  0.11543091689E+03 -0.23987134314E+02  0.48690574633E+03  0.50097593255E+03  0.00000000000E+00 0.  1.
<scales pt_clust_5="13000.00000" pt_clust_6="13000.00000" pt_clust_7="13000.00000" pt_clust_8="13000.00000" pt_clust_9="117.89690"></scales>
<clustering>
<clus scale="   91.876">  5  6 -1 -1</clus>
<clus scale="   92.535">  7  8 -1 -1</clus>
<clus scale="  117.897">  1  9  2 -1</clus>
<clus scale="  134.083">  1  5  2 -1</clus>
<clus scale="  117.897">  1  5  2 -1</clus>
</clustering>
</event>
<event>
 9    1  0.1321469E-005  0.1631871E+03  0.7546771E-02  0.1186750E+00
         -2   -1    0    0    0  501 -0.00000000000E+00  0.00000000000E+00  0.37177207288E+03  0.37177207288E+03  0.00000000000E+00 0.  1.
         21   -1    0    0  501  502  0.00000000000E+00 -0.00000000000E+00 -0.89354772572E+02  0.89354772572E+02  0.00000000000E+00 0.  1.
         23    2    1    2    0    0 -0.24771307795E+02  0.12051185801E+03  0.14176799017E+03  0.21355183205E+03  0.10183072385E+03 0.  0.
         23    2    1    2    0    0 -0.67256580493E+01 -0.13566152758E+03  0.93912327204E+02  0.18921477935E+03  0.92376528317E+02 0.  0.
        -11    1    4    4    0    0  0.16806141604E+02 -0.26466021903E+02 -0.13604030064E+02  0.34175522600E+02  0.00000000000E+00 0. -1.
         11    1    4    4    0    0 -0.23531799653E+02 -0.10919550567E+03  0.10751635727E+03  0.15503925675E+03  0.00000000000E+00 0.  1.
        -13    1    3    3    0    0 -0.38022660444E+02  0.10058105099E+03  0.49762962481E+02  0.11848469505E+03  0.00000000000E+00 0.  1.
         13    1    3    3    0    0  0.13251352650E+02  0.19930807019E+02  0.92005027694E+02  0.95067136995E+02  0.00000000000E+00 0. -1.
         -2    1    1    2    0  502  0.31496965844E+02  0.15149669565E+02  0.46736982925E+02  0.58360234049E+02  0.00000000000E+00 0.  1.
<scales pt_clust_5="13000.00000" pt_clust_6="13000.00000" pt_clust_7="13000.00000" pt_clust_8="13000.00000" pt_clust_9="34.95100"></scales>
<clustering>
<clus scale="   34.951">  2  9  1 -1</clus>
<clus scale="   92.377">  5  6 -1 -1</clus>
<clus scale="  101.831">  7  8 -1 -1</clus>
<clus scale="  157.461">  2  5  1 -1</clus>
<clus scale="   34.951">  2  5  1 -1</clus>
</clustering>
</event>
<event>
 9    1  0.1321469E-005  0.9615941E+02  0.7546771E-02  0.1288698E+00
         21   -1    0    0  501  502  0.00000000000E+00  0.00000000000E+00  0.68485420687E+02  0.68485420687E+02  0.00000000000E+00 0. -1.
          3   -1    0    0  502    0 -0.00000000000E+00 -0.00000000000E+00 -0.35376144228E+03  0.35376144228E+03  0.00000000000E+00 0. -1.
         23    2    1    2    0    0 -0.10803004067E+02  0.33280389774E+02 -0.24608055966E+03  0.26479540667E+03  0.91305401323E+02 0.  0.
         23    2    1    2    0    0  0.28578308027E+02 -0.56327355018E+01 -0.65024724730E+02  0.11564828615E+03  0.91092611471E+02 0.  0.
        -11    1    3    3    0    0  0.39474492254E+02  0.19057250900E+02 -0.13709166235E+03  0.14392893468E+03  0.00000000000E+00 0. -1.
         11    1    3    3    0    0 -0.50277496322E+02  0.14223138874E+02 -0.10898889730E+03  0.12086647199E+03  0.00000000000E+00 0.  1.
        -13    1    4    4    0    0 -0.27205068245E+02 -0.81819906602E+01  0.19168568600E+01  0.28473409518E+02  0.00000000000E+00 0.  1.
         13    1    4    4    0    0  0.55783376272E+02  0.25492551583E+01 -0.66941581590E+02  0.87174876633E+02  0.00000000000E+00 0. -1.
          3    1    1    2  501    0 -0.17775303960E+02 -0.27647654272E+02  0.25829262796E+02  0.41803170146E+02  0.00000000000E+00 0. -1.
<scales pt_clust_5="13000.00000" pt_clust_6="13000.00000" pt_clust_7="13000.00000" pt_clust_8="13000.00000" pt_clust_9="32.86874"></scales>
<clustering>
<clus scale="   32.869">  1  9  2 -1</clus>
<clus scale="   91.093">  7  8 -1 -1</clus>
<clus scale="   91.305">  5  6 -1 -1</clus>
<clus scale="   95.957">  1  7  2 -1</clus>
<clus scale="   32.869">  1  5  2 -1</clus>
</clustering>
</event>
<event>
 9    1  0.1321469E-005  0.9726340E+02  0.7546771E-02  0.1286562E+00
         21   -1    0    0  501  502  0.00000000000E+00  0.00000000000E+00  0.28566665441E+03  0.28566665441E+03  0.00000000000E+00 0.  1.
         -1   -1    0    0    0  501 -0.00000000000E+00 -0.00000000000E+00 -0.27723870018E+03  0.27723870018E+03  0.00000000000E+00 0.  1.
         23    2    1    2    0    0  0.54282095849E+01  0.16274041414E+02 -0.16055707357E+03  0.18616076368E+03  0.92644191288E+02 0.  0.
         23    2    1    2    0    0  0.45970684817E+01 -0.49973310165E+02 -0.75228122433E+02  0.13001354369E+03  0.93411917717E+02 0.  0.
        -11    1    3    3    0    0 -0.12755029231E+02  0.50452871924E+02 -0.11597197262E+03  0.12711286909E+03  0.00000000000E+00 0.  1.
         11    1    3    3    0    0  0.18183238816E+02 -0.34178830510E+02 -0.44585100948E+02  0.59047894589E+02  0.00000000000E+00 0. -1.
        -13    1    4    4    0    0 -0.31045087716E+01 -0.21084427344E+02  0.20593552180E+02  0.29635880997E+02  0.00000000000E+00 0. -1.
         13    1    4    4    0    0  0.77015772532E+01 -0.28888882822E+02 -0.95821674612E+02  0.10037766270E+03  0.00000000000E+00 0.  1.
         -1    1    1    2    0  502 -0.10025278067E+02  0.33699268751E+02  0.24421315023E+03  0.24673104722E+03  0.00000000000E+00 0.  1.
<scales pt_clust_5="13000.00000" pt_clust_6="13000.00000" pt_clust_7="13000.00000" pt_clust_8="13000.00000" pt_clust_9="35.15888"></scales>
<clustering>
<clus scale="   35.159">  1  9  2 -1</clus>
<clus scale="   92.644">  5  6 -1 -1</clus>
<clus scale="   93.412">  7  8 -1 -1</clus>
<clus scale="   96.526">  2  5  1 -1</clus>
<clus scale="   35.159">  1  5  2 -1</clus>
</clustering>
</event>
<event>
 9    1  0.1321469E-005  0.9760470E+02  0.7546771E-02  0.1291027E+00
         21   -1    0    0  501  502  0.00000000000E+00  0.00000000000E+00  0.43123454050E+02  0.43123454050E+02  0.00000000000E+00 0. -1.
          2   -1    0    0  502    0 -0.00000000000E+00 -0.00000000000E+00 -0.62106380157E+03  0.62106380157E+03  0.00000000000E+00 0. -1.
         23    2    1    2    0    0 -0.23120858818E+02  0.50675455379E+02 -0.42103679307E+03  0.43415601737E+03  0.90093786749E+02 0.  0.
         23    2    1    2    0    0  0.16107074457E+02 -0.39457260857E+01 -0.16330625617E+03  0.18234627877E+03  0.79411746458E+02 0.  0.
        -11    1    4    4    0    0  0.28212677111E+02  0.32308575522E+02 -0.87777947949E+02  0.97697325184E+02  0.00000000000E+00 0.  1.
         11    1    4    4    0    0 -0.12105602654E+02 -0.36254301607E+02 -0.75528308224E+02  0.84648953590E+02  0.00000000000E+00 0. -1.
        -11    1    3    3    0    0  0.34140959942E+02  0.22721924478E+02 -0.19759062665E+03  0.20180175107E+03  0.00000000000E+00 0.  1.
         11    1    3    3    0    0 -0.57261818760E+02  0.27953530901E+02 -0.22344616642E+03  0.23235426629E+03  0.00000000000E+00 0. -1.
          2    1    1    2  501    0  0.70137843612E+01 -0.46729729293E+02  0.64027017219E+01  0.47684959476E+02  0.00000000000E+00 0. -1.
<scales pt_clust_5="13000.00000" pt_clust_6="13000.00000" pt_clust_7="13000.00000" pt_clust_8="13000.00000" pt_clust_9="47.25316"></scales>
<clustering>
<clus scale="   47.253">  1  9  2 -1</clus>
<clus scale="   79.412">  5  6 -1 -1</clus>
<clus scale="   87.841">  1  5  2 -1</clus>
<clus scale="   90.094">  7  8 -1 -1</clus>
<clus scale="   47.253">  1  5  2 -1</clus>
</clustering>
</event>
<event>
 9    1  0.1321469E-005  0.1410301E+03  0.7546771E-02  0.1212168E+00
         21   -1    0    0  501  502  0.00000000000E+00  0.00000000000E+00  0.95031451869E+02  0.95031451869E+02  0.00000000000E+00 0. -1.
          2   -1    0    0  502    0 -0.00000000000E+00 -0.00000000000E+00 -0.67858076846E+03  0.67858076846E+03  0.00000000000E+00 0.  1.
         23    2    1    2    0    0  0.10922626120E+03 -0.34156833566E+02 -0.55446858496E+03  0.57353391758E+03  0.91698841315E+02 0.  0.
         23    2    1    2    0    0 -0.41227851823E+02  0.52290236397E+02  0.20006742428E+02  0.11427513214E+03  0.90689202752E+02 0.  0.
        -11    1    4    4    0    0 -0.28637689401E+02 -0.22359088014E+02  0.11426300005E+02  0.38086827156E+02  0.00000000000E+00 0.  1.
         11    1    4    4    0    0 -0.12590162422E+02  0.74649324411E+02  0.85804424233E+01  0.76188304988E+02  0.00000000000E+00 0. -1.
        -13    1    3    3    0    0  0.10557216618E+03  0.65476121826E+01 -0.39776515991E+03  0.41158896479E+03  0.00000000000E+00 0.  1.
         13    1    3    3    0    0  0.36540950190E+01 -0.40704445748E+02 -0.15670342505E+03  0.16194495280E+03  0.00000000000E+00 0. -1.
          2    1    1    2  501    0 -0.67998409374E+02 -0.18133402831E+02 -0.49087474064E+02  0.85803170603E+02  0.00000000000E+00 0.  1.
<scales pt_clust_5="13000.00000" pt_clust_6="13000.00000" pt_clust_7="13000.00000" pt_clust_8="13000.00000" pt_clust_9="70.37474"></scales>
<clustering>
<clus scale="   70.375">  1  9  2 -1</clus>
<clus scale="   90.689">  5  6 -1 -1</clus>
<clus scale="   91.699">  7  8 -1 -1</clus>
<clus scale="  140.376">  1  5  2 -1</clus>
<clus scale="   70.375">  1  5  2 -1</clus>
</clustering>
</event>
<event>
 9    1  0.1321469E-005  0.1722526E+03  0.7546771E-02  0.1187511E+00
         21   -1    0    0  501  502  0.00000000000E+00  0.00000000000E+00  0.11052373924E+04  0.11052373924E+04  0.00000000000E+00 0. -1.
          1   -1    0    0  502    0 -0.00000000000E+00 -0.00000000000E+00 -0.12287035997E+03  0.12287035997E+03  0.00000000000E+00 0. -1.
         23    2    1    2    0    0 -0.88428384324E+02  0.32341164839E+02  0.21329413622E+03  0.25064769877E+03  0.92001903537E+02 0.  0.
         23    2    1    2    0    0  0.19923585273E+02  0.10129253598E+03 -0.48300752520E+02  0.14640617139E+03  0.91894924958E+02 0.  0.
        -11    1    3    3    0    0 -0.65760214838E+02  0.64522656135E+02  0.15484737136E+03  0.18018126270E+03  0.00000000000E+00 0. -1.
         11    1    3    3    0    0 -0.22668169486E+02 -0.32181491295E+02  0.58446764862E+02  0.70466436072E+02  0.00000000000E+00 0.  1.
        -11    1    4    4    0    0  0.38763570247E+02  0.19283353143E+02 -0.44631715004E+02  0.62180801466E+02  0.00000000000E+00 0.  1.
         11    1    4    4    0    0 -0.18839984975E+02  0.82009182834E+02 -0.36690375163E+01  0.84225369927E+02  0.00000000000E+00 0. -1.
          1    1    1    2  501    0  0.68504799051E+02 -0.13363370082E+03  0.81737364872E+03  0.83105388220E+03  0.00000000000E+00 0. -1.
<scales pt_clust_5="13000.00000" pt_clust_6="13000.00000" pt_clust_7="13000.00000" pt_clust_8="13000.00000" pt_clust_9="145.69239"></scales>
<clustering>
<clus scale="   91.895">  7  8 -1 -1</clus>
<clus scale="   92.002">  5  6 -1 -1</clus>
<clus scale="  131.643">  2  5  1 -1</clus>
<clus scale="  145.692">  1  9  2 -1</clus>
<clus scale="  145.692">  1  5  2 -1</clus>
</clustering>
</event>
<event>
 9    1  0.1321469E-005  0.9904041E+02  0.7546771E-02  0.1282673E+00
         21   -1    0    0  501  502  0.00000000000E+00  0.00000000000E+00  0.10242979927E+03  0.10242979927E+03  0.00000000000E+00 0.  1.
          3   -1    0    0  502    0 -0.00000000000E+00 -0.00000000000E+00 -0.12264294188E+03  0.12264294188E+03  0.00000000000E+00 0. -1.
         23    2    1    2    0    0  0.33438583738E+02 -0.86512411105E+01 -0.22741170556E+02  0.10012873777E+03  0.91190023760E+02 0.  0.
         23    2    1    2    0    0 -0.30036795029E+02  0.31475759365E+02 -0.50340257068E+00  0.10166911625E+03  0.91888102067E+02 0.  0.
        -11    1    4    4    0    0 -0.13208521884E+02  0.63649618700E+02  0.37385637637E+01  0.65113100602E+02  0.00000000000E+00 0. -1.
         11    1    4    4    0    0 -0.16828273145E+02 -0.32173859335E+02 -0.42419663344E+01  0.36556015647E+02  0.00000000000E+00 0.  1.
        -13    1    3    3    0    0 -0.23992561396E+01 -0.33911204204E+02  0.19545520690E+02  0.39214201249E+02  0.00000000000E+00 0.  1.
         13    1    3    3    0    0  0.35837839877E+02  0.25259963093E+02 -0.42286691246E+02  0.60914536517E+02  0.00000000000E+00 0. -1.
          3    1    1    2  501    0 -0.34017887086E+01 -0.22824518255E+02  0.30314305196E+01  0.23274887131E+02  0.00000000000E+00 0. -1.
<scales pt_clust_5="13000.00000" pt_clust_6="13000.00000" pt_clust_7="13000.00000" pt_clust_8="13000.00000" pt_clust_9="23.07663"></scales>
<clustering>
<clus scale="   23.077">  1  9  2 -1</clus>
<clus scale="   91.190">  7  8 -1 -1</clus>
<clus scale="   91.888">  5  6 -1 -1</clus>
<clus scale="   98.393">  2  7  1 -1</clus>
<clus scale="   23.077">  1  5  2 -1</clus>
</clustering>
</event>
<event>
 9    1  0.1321469E-005  0.1093002E+03  0.7546771E-02  0.1261947E+00
         21   -1    0    0  501  502  0.00000000000E+00  0.00000000000E+00  0.33100008618E+03  0.33100008618E+03  0.00000000000E+00 0.  1.
          2   -1    0    0  502    0 -0.00000000000E+00 -0.00000000000E+00 -0.62058672664E+02  0.62058672664E+02  0.00000000000E+00 0. -1.
         23    2    1    2    0    0  0.16784112468E+02 -0.45171009873E+02  0.37121737743E+02  0.11076541416E+03  0.92567958796E+02 0.  0.
         23    2    1    2    0    0 -0.29053877944E+02  0.75681171775E+02  0.14877229684E+03  0.19297210269E+03  0.92375692287E+02 0.  0.
        -11    1    3    3    0    0  0.27176815994E+01  0.23929200948E+02  0.32017043916E+02  0.40063494011E+02  0.00000000000E+00 0. -1.
         11    1    3    3    0    0  0.14066430869E+02 -0.69100210822E+02  0.51046938276E+01  0.70701920144E+02  0.00000000000E+00 0.  1.
        -13    1    4    4    0    0 -0.32960570351E+01  0.48022207322E+02  0.14749983928E+03  0.15515540266E+03  0.00000000000E+00 0.  1.
         13    1    4    4    0    0 -0.25757820909E+02  0.27658964453E+02  0.12724575560E+01  0.37816700026E+02  0.00000000000E+00 0. -1.
          2    1    1    2  501    0  0.12269765476E+02 -0.30510161902E+02  0.83047378942E+02  0.89321242004E+02  0.00000000000E+00 0. -1.
<scales pt_clust_5="13000.00000" pt_clust_6="13000.00000" pt_clust_7="13000.00000" pt_clust_8="13000.00000" pt_clust_9="32.88491"></scales>
<clustering>
<clus scale="   32.885">  1  9  2 -1</clus>
<clus scale="   92.376">  7  8 -1 -1</clus>
<clus scale="   92.568">  5  6 -1 -1</clus>
<clus scale="  109.137">  1  7  2 -1</clus>
<clus scale="   32.885">  1  5  2 -1</clus>
</clustering>
</event>
<event>
 9    1  0.1321469E-005  0.9812816E+02  0.7546771E-02  0.1285095E+00
         -1   -1    0    0    0  501 -0.00000000000E+00  0.00000000000E+00  0.62677783544E+02  0.62677783544E+02  0.00000000000E+00 0.  1.
         21   -1    0    0  501  502  0.00000000000E+00 -0.00000000000E+00 -0.26463088432E+03  0.26463088432E+03  0.00000000000E+00 0. -1.
         23    2    1    2    0    0 -0.41661236619E-01  0.25225918932E+02 -0.42158386602E+02  0.10149612781E+03  0.88813206662E+02 0.  0.
         23    2    1    2    0    0 -0.18044722593E+00 -0.54122127638E+02 -0.58637852205E+02  0.12060916115E+03  0.90437463370E+02 0.  0.
        -11    1    4    4    0    0 -0.42325102183E+02 -0.12495144568E+02 -0.13546972339E+02  0.46163441944E+02  0.00000000000E+00 0.  1.
         11    1    4    4    0    0  0.42144654957E+02 -0.41626983070E+02 -0.45090879865E+02  0.74445719205E+02  0.00000000000E+00 0. -1.
        -11    1    3    3    0    0 -0.25263207478E+02  0.49785455789E+02 -0.33975061226E+02  0.65353852568E+02  0.00000000000E+00 0.  1.
         11    1    3    3    0    0  0.25221546241E+02 -0.24559536856E+02 -0.81833253758E+01  0.36142275241E+02  0.00000000000E+00 0. -1.
         -1    1    1    2    0  502  0.22210846255E+00  0.28896208705E+02 -0.10115686197E+03  0.10520337891E+03  0.00000000000E+00 0.  1.
<scales pt_clust_5="13000.00000" pt_clust_6="13000.00000" pt_clust_7="13000.00000" pt_clust_8="13000.00000" pt_clust_9="28.89706"></scales>
<clustering>
<clus scale="   28.897">  2  9  1 -1</clus>
<clus scale="   88.813">  7  8 -1 -1</clus>
<clus scale="   90.437">  5  6 -1 -1</clus>
<clus scale="   96.633">  1  7  2 -1</clus>
<clus scale="   28.897">  2  5  1 -1</clus>
</clustering>
</event>
<event>
 9    1  0.1321469E-005  0.9447936E+02  0.7546771E-02  0.1292432E+00
          1   -1    0    0  502    0 -0.00000000000E+00  0.00000000000E+00  0.11202644777E+03  0.11202644777E+03  0.00000000000E+00 0. -1.
         21   -1    0    0  501  502  0.00000000000E+00 -0.00000000000E+00 -0.15619311927E+03  0.15619311927E+03  0.00000000000E+00 0.  1.
         23    2    1    2    0    0 -0.27211986457E+02 -0.16135616038E+02  0.55920204021E+02  0.11029798098E+03  0.89653360664E+02 0.  0.
         23    2    1    2    0    0  0.58029737040E+01  0.31722532729E+02 -0.71946657714E+02  0.11928003257E+03  0.89506485945E+02 0.  0.
        -13    1    4    4    0    0 -0.67734792165E+01  0.54543297992E+02 -0.75066987269E+02  0.93037110629E+02  0.00000000000E+00 0.  1.
         13    1    4    4    0    0  0.12576452920E+02 -0.22820765263E+02  0.31203295558E+01  0.26242921937E+02  0.00000000000E+00 0. -1.
        -13    1    3    3    0    0  0.18464506433E+02  0.15914819994E+02 -0.78050562076E+01  0.25595671425E+02  0.00000000000E+00 0.  1.
         13    1    3    3    0    0 -0.45676492891E+02 -0.32050436032E+02  0.63725260228E+02  0.84702309554E+02  0.00000000000E+00 0. -1.
          1    1    1    2  501    0  0.21409012753E+02 -0.15586916691E+02 -0.28140217807E+02  0.38641553505E+02  0.00000000000E+00 0. -1.
<scales pt_clust_5="13000.00000" pt_clust_6="13000.00000" pt_clust_7="13000.00000" pt_clust_8="13000.00000" pt_clust_9="26.48203"></scales>
<clustering>
<clus scale="   26.482">  2  9  1 -1</clus>
<clus scale="   89.506">  5  6 -1 -1</clus>
<clus scale="   89.653">  7  8 -1 -1</clus>
<clus scale="   94.340">  2  5  1 -1</clus>
<clus scale="   26.482">  2  5  1 -1</clus>
</clustering>
</event>
<event>
 9    1  0.1321469E-005  0.9217443E+02  0.7546771E-02  0.1298738E+00
          3   -1    0    0  502    0 -0.00000000000E+00  0.00000000000E+00  0.10066993705E+03  0.10066993705E+03  0.00000000000E+00 0. -1.
         21   -1    0    0  501  502  0.00000000000E+00 -0.00000000000E+00 -0.21009488265E+03  0.21009488265E+03  0.00000000000E+00 0.  1.
         23    2    1    2    0    0 -0.41037075372E+01  0.72728903404E+01  0.54300355065E+02  0.10680762562E+03  0.91594786860E+02 0.  0.
         23    2    1    2    0    0 -0.93013302825E+01 -0.23233707280E+02 -0.99053106529E+02  0.13600915945E+03  0.89781143026E+02 0.  0.
        -11    1    4    4    0    0  0.28003364559E+02 -0.38602608446E+02 -0.75471625406E+02  0.89276626543E+02  0.00000000000E+00 0.  1.
         11    1    4    4    0    0 -0.37304694841E+02  0.15368901166E+02 -0.23581481123E+02  0.46732532910E+02  0.00000000000E+00 0. -1.
        -13    1    3    3    0    0  0.34014725491E+02 -0.24426851245E+02  0.19235371451E+02  0.46083317229E+02  0.00000000000E+00 0.  1.
         13    1    3    3    0    0 -0.38118433028E+02  0.31699741586E+02  0.35064983614E+02  0.60724308386E+02  0.00000000000E+00 0. -1.
          3    1    1    2  501    0  0.13405037820E+02  0.15960816940E+02 -0.64672194137E+02  0.67948034635E+02  0.00000000000E+00 0. -1.
<scales pt_clust_5="13000.00000" pt_clust_6="13000.00000" pt_clust_7="13000.00000" pt_clust_8="13000.00000" pt_clust_9="20.84329"></scales>
<clustering>
<clus scale="   20.843">  2  9  1 -1</clus>
<clus scale="   89.781">  5  6 -1 -1</clus>
<clus scale="   90.372">  2  5  1 -1</clus>
<clus scale="   91.595">  7  8 -1 -1</clus>
<clus scale="   20.843">  2  5  1 -1</clus>
</clustering>
</event>
<event>
 9    1  0.1321469E-005  0.1103803E+03  0.7546771E-02  0.1260363E+00
         21   -1    0    0  501  502  0.00000000000E+00  0.00000000000E+00  0.17067129322E+03  0.17067129322E+03  0.00000000000E+00 0.  1.
         -4   -1    0    0    0  501 -0.00000000000E+00 -0.00000000000E+00 -0.15661773032E+03  0.15661773032E+03  0.00000000000E+00 0.  1.
         23    2    1    2    0    0  0.40516014876E+02 -0.50854121031E+02 -0.96107638534E+02  0.14652634043E+03  0.89474025103E+02 0.  0.
         23    2    1    2    0    0 -0.15746854595E+02  0.56410796327E+02  0.57681523022E+02  0.12246598863E+03  0.90777854678E+02 0.  0.
        -11    1    3    3    0    0  0.66033638643E+02 -0.32396782606E+02 -0.86619114000E+02  0.11363478282E+03  0.00000000000E+00 0.  1.
         11    1    3    3    0    0 -0.25517623767E+02 -0.18457338425E+02 -0.94885245340E+01  0.32891557614E+02  0.00000000000E+00 0. -1.
        -11    1    4    4    0    0 -0.24980876948E+02 -0.18122921776E+02  0.63843794672E+01  0.31515786647E+02  0.00000000000E+00 0.  1.
         11    1    4    4    0    0  0.92340223531E+01  0.74533718102E+02  0.51297143555E+02  0.90950201978E+02  0.00000000000E+00 0. -1.
         -4    1    1    2    0  502 -0.24769160281E+02 -0.55566752959E+01  0.52479678411E+02  0.58296694482E+02  0.00000000000E+00 0.  1.
<scales pt_clust_5="13000.00000" pt_clust_6="13000.00000" pt_clust_7="13000.00000" pt_clust_8="13000.00000" pt_clust_9="25.38480"></scales>
<clustering>
<clus scale="   25.385">  1  9  2 -1</clus>
<clus scale="   89.474">  5  6 -1 -1</clus>
<clus scale="   90.778">  7  8 -1 -1</clus>
<clus scale="  109.311">  2  5  1 -1</clus>
<clus scale="   25.385">  1  5  2 -1</clus>
</clustering>
</event>
<event>
 9    1  0.1321469E-005  0.9337911E+02  0.7546771E-02  0.1296616E+00
          1   -1    0    0  502    0 -0.00000000000E+00  0.00000000000E+00  0.12983990251E+03  0.12983990251E+03  0.00000000000E+00 0. -1.
         21   -1    0    0  501  502  0.00000000000E+00 -0.00000000000E+00 -0.12997503454E+03  0.12997503454E+03  0.00000000000E+00 0.  1.
         23    2    1    2    0    0  0.96419244446E+01  0.19374893829E+02  0.26091521477E+02  0.99311799356E+02  0.93347269807E+02 0.  0.
         23    2    1    2    0    0  0.13874712001E+02  0.35852476920E+02 -0.13295231550E+02  0.99100235945E+02  0.90366951082E+02 0.  0.
        -13    1    3    3    0    0 -0.15055673673E+02  0.29924340140E+02 -0.24860275481E+02  0.41715377735E+02  0.00000000000E+00 0.  1.
         13    1    3    3    0    0  0.24697598118E+02 -0.10549446311E+02  0.50951796958E+02  0.57596421621E+02  0.00000000000E+00 0. -1.
        -13    1    4    4    0    0  0.13259646752E+02  0.66184867076E+02 -0.13108200732E+02  0.68761033938E+02  0.00000000000E+00 0.  1.
         13    1    4    4    0    0  0.61506524876E+00 -0.30332390156E+02 -0.18703081828E+00  0.30339202006E+02  0.00000000000E+00 0. -1.
          1    1    1    2  501    0 -0.23516636446E+02 -0.55227370749E+02 -0.12931421959E+02  0.61402901751E+02  0.00000000000E+00 0. -1.
<scales pt_clust_5="13000.00000" pt_clust_6="13000.00000" pt_clust_7="13000.00000" pt_clust_8="13000.00000" pt_clust_9="60.02578"></scales>
<clustering>
<clus scale="   60.026">  2  9  1 -1</clus>
<clus scale="   90.367">  7  8 -1 -1</clus>
<clus scale="   90.400">  2  7  1 -1</clus>
<clus scale="   93.347">  5  6 -1 -1</clus>
<clus scale="   60.026">  2  5  1 -1</clus>
</clustering>
</event>
<event>
 9    1  0.1321469E-005  0.1108912E+03  0.7546771E-02  0.1266300E+00
         21   -1    0    0  501  502  0.00000000000E+00  0.00000000000E+00  0.27550757142E+02  0.27550757142E+02  0.00000000000E+00 0.  1.
          4   -1    0    0  502    0 -0.00000000000E+00 -0.00000000000E+00 -0.65707795491E+03  0.65707795491E+03  0.00000000000E+00 0. -1.
         23    2    1    2    0    0  0.12350542521E+02 -0.27511623606E+02 -0.41882232009E+03  0.43319257816E+03  0.10646242828E+03 0.  0.
         23    2    1    2    0    0 -0.42735901761E+02  0.89146183813E+01 -0.16694254736E+03  0.19500688426E+03  0.90840756648E+02 0.  0.
        -13    1    3    3    0    0 -0.43105054694E+02 -0.30077038048E+02 -0.15751164513E+03  0.16604996931E+03  0.00000000000E+00 0.  1.
         13    1    3    3    0    0  0.55455597215E+02  0.25654144418E+01 -0.26131067496E+03  0.26714260884E+03  0.00000000000E+00 0. -1.
        -13    1    4    4    0    0 -0.56713191160E+02  0.31464497188E+02 -0.74226127242E+02  0.98569359337E+02  0.00000000000E+00 0.  1.
         13    1    4    4    0    0  0.13977289399E+02 -0.22549878806E+02 -0.92716420120E+02  0.96437524922E+02  0.00000000000E+00 0. -1.
          4    1    1    2  501    0  0.30385359240E+02  0.18597005225E+02 -0.43762330324E+02  0.56429249639E+02  0.00000000000E+00 0. -1.
<scales pt_clust_5="13000.00000" pt_clust_6="13000.00000" pt_clust_7="13000.00000" pt_clust_8="13000.00000" pt_clust_9="35.62469"></scales>
<clustering>
<clus scale="   35.625">  1  9  2 -1</clus>
<clus scale="   90.841">  7  8 -1 -1</clus>
<clus scale="   95.993">  1  7  2 -1</clus>
<clus scale="  106.462">  5  6 -1 -1</clus>
<clus scale="   35.625">  1  5  2 -1</clus>
</clustering>
</event>
<event>
 9    1  0.1321469E-005  0.9550821E+02  0.7546771E-02  0.1290218E+00
          2   -1    0    0  502    0 -0.00000000000E+00  0.00000000000E+00  0.37055084861E+03  0.37055084861E+03  0.00000000000E+00 0. -1.
         21   -1    0    0  501  502  0.00000000000E+00 -0.00000000000E+00 -0.22768708033E+03  0.22768708033E+03  0.00000000000E+00 0. -1.
         23    2    1    2    0    0  0.26340142533E+02 -0.30184096880E+01  0.29575140964E+03  0.31028800257E+03  0.90037960490E+02 0.  0.
         23    2    1    2    0    0 -0.79797248844E+02  0.58207651342E+02 -0.20644100091E+02  0.13500592088E+03  0.89692185866E+02 0.  0.
        -11    1    3    3    0    0  0.49383877052E+02 -0.84055634768E+01  0.27266051596E+03  0.27722405699E+03  0.00000000000E+00 0. -1.
         11    1    3    3    0    0 -0.23043734519E+02  0.53871537888E+01  0.23090893686E+02  0.33063945587E+02  0.00000000000E+00 0.  1.
        -13    1    4    4    0    0  0.34249780357E+01  0.44320245852E+02  0.94147436672E+01  0.45438442593E+02  0.00000000000E+00 0.  1.
         13    1    4    4    0    0 -0.83222226880E+02  0.13887405490E+02 -0.30058843759E+02  0.89567478284E+02  0.00000000000E+00 0. -1.
          2    1    1    2  501    0  0.53457106312E+02 -0.55189241654E+02 -0.13224354127E+03  0.15294400549E+03  0.00000000000E+00 0. -1.
<scales pt_clust_5="13000.00000" pt_clust_6="13000.00000" pt_clust_7="13000.00000" pt_clust_8="13000.00000" pt_clust_9="76.83433"></scales>
<clustering>
<clus scale="   76.834">  2  9  1 -1</clus>
<clus scale="   89.692">  7  8 -1 -1</clus>
<clus scale="   90.038">  5  6 -1 -1</clus>
<clus scale="   95.182">  2  7  1 -1</clus>
<clus scale="   76.834">  2  5  1 -1</clus>
</clustering>
</event>
<event>
 9    1  0.1321469E-005  0.1555982E+03  0.7546771E-02  0.1193774E+00
         21   -1    0    0  501  502  0.00000000000E+00  0.00000000000E+00  0.42386986428E+03  0.42386986428E+03  0.00000000000E+00 0. -1.
          1   -1    0    0  502    0 -0.00000000000E+00 -0.00000000000E+00 -0.11923648812E+03  0.11923648812E+03  0.00000000000E+00 0. -1.
         23    2    1    2    0    0  0.87015739624E+02  0.14277562523E+02  0.91279975252E+02  0.15566417332E+03  0.90131643949E+02 0.  0.
         23    2    1    2    0    0 -0.14976105587E+03 -0.10368312583E+03  0.88695838787E+02  0.22170190861E+03  0.90034549068E+02 0.  0.
        -13    1    3    3    0    0 -0.11875275393E+01  0.26792662190E+02  0.51572328339E+02  0.58128839823E+02  0.00000000000E+00 0.  1.
         13    1    3    3    0    0  0.88203267163E+02 -0.12515099666E+02  0.39707646913E+02  0.97535333502E+02  0.00000000000E+00 0. -1.
        -13    1    4    4    0    0 -0.76486367037E+02 -0.10487756988E+03  0.59962147359E+02  0.14298576196E+03  0.00000000000E+00 0. -1.
         13    1    4    4    0    0 -0.73274688835E+02  0.11944440555E+01  0.28733691428E+02  0.78716146651E+02  0.00000000000E+00 0.  1.
          1    1    1    2  501    0  0.62745316248E+02  0.89405563304E+02  0.12465756212E+03  0.16574027047E+03  0.00000000000E+00 0. -1.
<scales pt_clust_5="13000.00000" pt_clust_6="13000.00000" pt_clust_7="13000.00000" pt_clust_8="13000.00000" pt_clust_9="109.22605"></scales>
<clustering>
<clus scale="   90.035">  7  8 -1 -1</clus>
<clus scale="   90.132">  5  6 -1 -1</clus>
<clus scale="  109.226">  1  9  2 -1</clus>
<clus scale="  155.542">  1  7  2 -1</clus>
<clus scale="  109.226">  1  5  2 -1</clus>
</clustering>
</event>
<event>
 9    1  0.1321469E-005  0.9556829E+02  0.7546771E-02  0.1291475E+00
         21   -1    0    0  501  502  0.00000000000E+00  0.00000000000E+00  0.90893177167E+02  0.90893177167E+02  0.00000000000E+00 0.  1.
         -1   -1    0    0    0  501 -0.00000000000E+00 -0.00000000000E+00 -0.45224028674E+03  0.45224028674E+03  0.00000000000E+00 0.  1.
         23    2    1    2    0    0 -0.10771916969E+02  0.34308024511E+02 -0.34227389002E+03  0.35587041748E+03  0.90549784702E+02 0.  0.
         23    2    1    2    0    0  0.17478681679E+02 -0.90014927230E+01 -0.80432626837E+02  0.12055189214E+03  0.87617464320E+02 0.  0.
        -11    1    3    3    0    0  0.16081017623E+02  0.58874537889E+02 -0.21562859758E+03  0.22409931378E+03  0.00000000000E+00 0.  1.
         11    1    3    3    0    0 -0.26852934593E+02 -0.24566513378E+02 -0.12664529244E+03  0.13177110371E+03  0.00000000000E+00 0. -1.
        -13    1    4    4    0    0  0.30520635560E+02  0.33508269263E+02 -0.41310738514E+02  0.61326099016E+02  0.00000000000E+00 0.  1.
         13    1    4    4    0    0 -0.13041953881E+02 -0.42509761986E+02 -0.39121888323E+02  0.59225793123E+02  0.00000000000E+00 0. -1.
         -1    1    1    2    0  502 -0.67067647098E+01 -0.25306531788E+02  0.61359407283E+02  0.66711154286E+02  0.00000000000E+00 0.  1.
<scales pt_clust_5="13000.00000" pt_clust_6="13000.00000" pt_clust_7="13000.00000" pt_clust_8="13000.00000" pt_clust_9="26.18017"></scales>
<clustering>
<clus scale="   26.180">  1  9  2 -1</clus>
<clus scale="   87.617">  7  8 -1 -1</clus>
<clus scale="   90.550">  5  6 -1 -1</clus>
<clus scale="   92.795">  1  7  2 -1</clus>
<clus scale="   26.180">  1  5  2 -1</clus>
</clustering>
</event>
<event>
 9    1  0.1321469E-005  0.1157466E+03  0.7546771E-02  0.1256232E+00
         21   -1    0    0  501  502  0.00000000000E+00  0.00000000000E+00  0.46551259949E+03  0.46551259949E+03  0.00000000000E+00 0.  1.
         -1   -1    0    0    0  501 -0.00000000000E+00 -0.00000000000E+00 -0.13307271481E+03  0.13307271481E+03  0.00000000000E+00 0.  1.
         23    2    1    2    0    0 -0.64515003126E+02 -0.52558225133E+02 -0.29432974841E+02  0.12613419395E+03  0.90105395050E+02 0.  0.
         23    2    1    2    0    0  0.23644136181E+02 -0.33655716401E+02  0.15834323328E+02  0.11349995374E+03  0.10459331375E+03 0.  0.
        -11    1    3    3    0    0 -0.13758812178E+02 -0.32463126478E+02  0.29377144556E+02  0.45893094421E+02  0.00000000000E+00 0. -1.
         11    1    3    3    0    0 -0.50756190947E+02 -0.20095098656E+02 -0.58810119397E+02  0.80241099525E+02  0.00000000000E+00 0.  1.
        -13    1    4    4    0    0 -0.94267018324E+01 -0.56380755972E+02 -0.19128195565E+02  0.60278853813E+02  0.00000000000E+00 0.  1.
         13    1    4    4    0    0  0.33070838013E+02  0.22725039571E+02  0.34962518892E+02  0.53221099930E+02  0.00000000000E+00 0. -1.
         -1    1    1    2    0  502  0.40870866945E+02  0.86213941534E+02  0.34603853619E+03  0.35895116661E+03  0.00000000000E+00 0.  1.
<scales pt_clust_5="13000.00000" pt_clust_6="13000.00000" pt_clust_7="13000.00000" pt_clust_8="13000.00000" pt_clust_9="95.41107"></scales>
<clustering>
<clus scale="   90.105">  5  6 -1 -1</clus>
<clus scale="   95.411">  1  9  2 -1</clus>
<clus scale="  102.842">  2  5  1 -1</clus>
<clus scale="  104.593">  7  8 -1 -1</clus>
<clus scale="   95.411">  1  5  2 -1</clus>
</clustering>
</event>
<event>
 9    1  0.1321469E-005  0.9371609E+02  0.7546771E-02  0.1294731E+00
         21   -1    0    0  501  502  0.00000000000E+00  0.00000000000E+00  0.33979872019E+03  0.33979872019E+03  0.00000000000E+00 0. -1.
          3   -1    0    0  502    0 -0.00000000000E+00 -0.00000000000E+00 -0.11473861562E+03  0.11473861562E+03  0.00000000000E+00 0. -1.
         23    2    1    2    0    0 -0.32619905799E+02  0.12388584782E+02 -0.22275325663E+02  0.99902421900E+02  0.90921771215E+02 0.  0.
         23    2    1    2    0    0  0.16239675611E+01  0.10300207124E+02 -0.11156734863E+02  0.93304225166E+02  0.92046043715E+02 0.  0.
        -13    1    4    4    0    0  0.36412577658E+02 -0.90362002518E+01 -0.31150276711E+02  0.48763392682E+02  0.00000000000E+00 0. -1.
         13    1    4    4    0    0 -0.34788610097E+02  0.19336407376E+02  0.19993541848E+02  0.44540832484E+02  0.00000000000E+00 0.  1.
        -13    1    3    3    0    0 -0.37209821946E+00  0.21941391908E+02  0.30347081773E+02  0.37450080214E+02  0.00000000000E+00 0.  1.
         13    1    3    3    0    0 -0.32247807580E+02 -0.95528071262E+01 -0.52622407436E+02  0.62452341686E+02  0.00000000000E+00 0. -1.
          3    1    1    2  501    0  0.30995938238E+02 -0.22688791906E+02  0.25849216510E+03  0.26133068875E+03  0.00000000000E+00 0. -1.
<scales pt_clust_5="13000.00000" pt_clust_6="13000.00000" pt_clust_7="13000.00000" pt_clust_8="13000.00000" pt_clust_9="38.41262"></scales>
<clustering>
<clus scale="   38.413">  1  9  2 -1</clus>
<clus scale="   90.922">  7  8 -1 -1</clus>
<clus scale="   92.046">  5  6 -1 -1</clus>
<clus scale="   92.612">  2  7  1 -1</clus>
<clus scale="   38.413">  1  5  2 -1</clus>
</clustering>
</event>
<event>
 9    1  0.1321469E-005  0.1151167E+03  0.7546771E-02  0.1252193E+00
          2   -1    0    0  502    0 -0.00000000000E+00  0.00000000000E+00  0.31594172347E+03  0.31594172347E+03  0.00000000000E+00 0. -1.
         21   -1    0    0  501  502  0.00000000000E+00 -0.00000000000E+00 -0.93795824594E+02  0.93795824594E+02  0.00000000000E+00 0. -1.
         23    2    1    2    0    0  0.12136327601E+02  0.59313037105E+02  0.19612543174E+03  0.22492255020E+03  0.91976311049E+02 0.  0.
         23    2    1    2    0    0 -0.27202252332E+02 -0.76526916201E+02  0.64429843893E+02  0.14010951783E+03  0.94250415217E+02 0.  0.
        -11    1    4    4    0    0  0.63061612699E+01 -0.48411467853E+02 -0.13579430576E+02  0.50673847539E+02  0.00000000000E+00 0.  1.
         11    1    4    4    0    0 -0.33508413602E+02 -0.28115448348E+02  0.78009274469E+02  0.89435670295E+02  0.00000000000E+00 0. -1.
        -13    1    3    3    0    0 -0.27647837920E+02  0.58824125616E+02  0.15307093262E+03  0.16629910135E+03  0.00000000000E+00 0. -1.
         13    1    3    3    0    0  0.39784165521E+02  0.48891148854E+00  0.43054499124E+02  0.58623448853E+02  0.00000000000E+00 0.  1.
          2    1    1    2  501    0  0.15065924731E+02  0.17213879096E+02 -0.38409376760E+02  0.44705480029E+02  0.00000000000E+00 0. -1.
<scales pt_clust_5="13000.00000" pt_clust_6="13000.00000" pt_clust_7="13000.00000" pt_clust_8="13000.00000" pt_clust_9="22.87575"></scales>
<clustering>
<clus scale="   22.876">  2  9  1 -1</clus>
<clus scale="   91.976">  7  8 -1 -1</clus>
<clus scale="   94.250">  5  6 -1 -1</clus>
<clus scale="  113.262">  1  7  2 -1</clus>
<clus scale="   22.876">  2  5  1 -1</clus>
</clustering>
</event>
<event>
 9    1  0.1321469E-005  0.1506518E+03  0.7546771E-02  0.1200577E+00
         -1   -1    0    0    0  501 -0.00000000000E+00  0.00000000000E+00  0.11957697682E+03  0.11957697682E+03  0.00000000000E+00 0.  1.
         21   -1    0    0  501  502  0.00000000000E+00 -0.00000000000E+00 -0.26297565564E+03  0.26297565564E+03  0.00000000000E+00 0. -1.
         23    2    1    2    0    0  0.10258085756E+03 -0.13617892944E+02 -0.42670671838E+02  0.14673702466E+03  0.94882500097E+02 0.  0.
         23    2    1    2    0    0 -0.12803217627E+03  0.53546146926E+02 -0.84021144887E+02  0.18560451011E+03  0.90166808611E+02 0.  0.
        -11    1    3    3    0    0  0.46658847704E+02 -0.45304955736E+02  0.71317519981E+01  0.65425140198E+02  0.00000000000E+00 0.  1.
         11    1    3    3    0    0  0.55922009852E+02  0.31687062792E+02 -0.49802423836E+02  0.81311884459E+02  0.00000000000E+00 0. -1.
        -13    1    4    4    0    0  0.14974391943E+01  0.24267790508E+02  0.61586498554E+01  0.25081805125E+02  0.00000000000E+00 0.  1.
         13    1    4    4    0    0 -0.12952961547E+03  0.29278356417E+02 -0.90179794743E+02  0.16052270499E+03  0.00000000000E+00 0. -1.
         -1    1    1    2    0  502  0.25451318715E+02 -0.39928253982E+02 -0.16706862097E+02  0.50211097692E+02  0.00000000000E+00 0.  1.
<scales pt_clust_5="13000.00000" pt_clust_6="13000.00000" pt_clust_7="13000.00000" pt_clust_8="13000.00000" pt_clust_9="47.35016"></scales>
<clustering>
<clus scale="   47.350">  2  9  1 -1</clus>
<clus scale="   90.167">  7  8 -1 -1</clus>
<clus scale="   94.883">  5  6 -1 -1</clus>
<clus scale="  147.727">  2  7  1 -1</clus>
<clus scale="   47.350">  2  5  1 -1</clus>
</clustering>
</event>
<event>
 9    1  0.1321469E-005  0.9384932E+02  0.7546771E-02  0.1296284E+00
         21   -1    0    0  501  502  0.00000000000E+00  0.00000000000E+00  0.13305145632E+03  0.13305145632E+03  0.00000000000E+00 0. -1.
          2   -1    0    0  502    0 -0.00000000000E+00 -0.00000000000E+00 -0.22188657138E+03  0.22188657138E+03  0.00000000000E+00 0. -1.
         23    2    1    2    0    0 -0.26685485186E+02 -0.17436422875E+02 -0.14245345593E+03  0.17198447282E+03  0.90936944196E+02 0.  0.
         23    2    1    2    0    0  0.66602691802E+01 -0.28758018953E+00 -0.32572591920E+02  0.92709294921E+02  0.86542462020E+02 0.  0.
        -11    1    3    3    0    0  0.11632331095E+02  0.31632989087E+02 -0.57685863572E+02  0.66810298468E+02  0.00000000000E+00 0.  1.
         11    1    3    3    0    0 -0.38317816281E+02 -0.49069411962E+02 -0.84767592362E+02  0.10517417435E+03  0.00000000000E+00 0. -1.
        -13    1    4    4    0    0 -0.24719845680E+00 -0.20915894669E+02 -0.56573502322E+02  0.60316638847E+02  0.00000000000E+00 0. -1.
         13    1    4    4    0    0  0.69074676370E+01  0.20628314479E+02  0.24000910402E+02  0.32392656074E+02  0.00000000000E+00 0.  1.
          2    1    1    2  501    0  0.20025216005E+02  0.17724003064E+02  0.86190932792E+02  0.90244259963E+02  0.00000000000E+00 0. -1.
<scales pt_clust_5="13000.00000" pt_clust_6="13000.00000" pt_clust_7="13000.00000" pt_clust_8="13000.00000" pt_clust_9="26.74228"></scales>
<clustering>
<clus scale="   26.742">  1  9  2 -1</clus>
<clus scale="   86.542">  7  8 -1 -1</clus>
<clus scale="   89.598">  1  7  2 -1</clus>
<clus scale="   90.937">  5  6 -1 -1</clus>
<clus scale="   26.742">  1  5  2 -1</clus>
</clustering>
</event>
<event>
 9    1  0.1321469E-005  0.1467091E+03  0.7546771E-02  0.1205254E+00
         21   -1    0    0  501  502  0.00000000000E+00  0.00000000000E+00  0.81361357664E+03  0.81361357664E+03  0.00000000000E+00 0. -1.
         -1   -1    0    0    0  501 -0.00000000000E+00 -0.00000000000E+00 -0.49414458417E+02  0.49414458417E+02  0.00000000000E+00 0.  1.
         23    2    1    2    0    0 -0.92347857424E+02  0.65804371625E+02  0.10268454950E+03  0.17785780518E+03  0.90724528453E+02 0.  0.
         23    2    1    2    0    0  0.90730052133E+02 -0.85790685103E+02  0.62714372264E+03  0.64537795574E+03  0.87243755608E+02 0.  0.
        -11    1    3    3    0    0 -0.48537648535E+02  0.15522565434E+01 -0.60457707927E+00  0.48566226322E+02  0.00000000000E+00 0.  1.
         11    1    3    3    0    0 -0.43810208889E+02  0.64252115081E+02  0.10328912657E+03  0.12929157886E+03  0.00000000000E+00 0. -1.
        -11    1    4    4    0    0  0.35609462888E+02 -0.88040341569E+02  0.44697034013E+03  0.45694815959E+03  0.00000000000E+00 0.  1.
         11    1    4    4    0    0  0.55120589245E+02  0.22496564662E+01  0.18017338251E+03  0.18842979615E+03  0.00000000000E+00 0. -1.
         -1    1    1    2    0  502  0.16178052916E+01  0.19986313479E+02  0.34370846087E+02  0.39792274139E+02  0.00000000000E+00 0.  1.
<scales pt_clust_5="13000.00000" pt_clust_6="13000.00000" pt_clust_7="13000.00000" pt_clust_8="13000.00000" pt_clust_9="20.05169"></scales>
<clustering>
<clus scale="   20.052">  1  9  2 -1</clus>
<clus scale="   87.244">  7  8 -1 -1</clus>
<clus scale="   90.725">  5  6 -1 -1</clus>
<clus scale="  144.583">  1  7  2 -1</clus>
<clus scale="   20.052">  1  5  2 -1</clus>
</clustering>
</event>
<event>
 9    1  0.1321469E-005  0.1089142E+03  0.7546771E-02  0.1266812E+00
         21   -1    0    0  501  502  0.00000000000E+00  0.00000000000E+00  0.13342390167E+03  0.13342390167E+03  0.00000000000E+00 0.  1.
          2   -1    0    0  502    0 -0.00000000000E+00 -0.00000000000E+00 -0.27031850074E+03  0.27031850074E+03  0.00000000000E+00 0. -1.
         23    2    1    2    0    0  0.70189857756E+01 -0.47331566294E+02 -0.16906331007E+03  0.19433830732E+03  0.83038735250E+02 0.  0.
         23    2    1    2    0    0 -0.41924838528E+02  0.94369672989E+02 -0.63819155079E+01  0.13928168182E+03  0.93248757517E+02 0.  0.
        -11    1    3    3    0    0 -0.35050381699E+02 -0.36332152470E+02 -0.10964303131E+03  0.12070687170E+03  0.00000000000E+00 0.  1.
         11    1    3    3    0    0  0.42069367475E+02 -0.10999413824E+02 -0.59420278762E+02  0.73631435626E+02  0.00000000000E+00 0. -1.
        -13    1    4    4    0    0 -0.61591068880E+01  0.29251335416E+02 -0.46171586366E+02  0.55003550875E+02  0.00000000000E+00 0. -1.
         13    1    4    4    0    0 -0.35765731640E+02  0.65118337573E+02  0.39789670859E+02  0.84278130942E+02  0.00000000000E+00 0.  1.
          2    1    1    2  501    0  0.34905852753E+02 -0.47038106695E+02  0.38550626511E+02  0.70122413266E+02  0.00000000000E+00 0. -1.
<scales pt_clust_5="13000.00000" pt_clust_6="13000.00000" pt_clust_7="13000.00000" pt_clust_8="13000.00000" pt_clust_9="58.57476"></scales>
<clustering>
<clus scale="   58.575">  1  9  2 -1</clus>
<clus scale="   83.039">  5  6 -1 -1</clus>
<clus scale="   93.249">  7  8 -1 -1</clus>
<clus scale="  100.311">  2  5  1 -1</clus>
<clus scale="   58.575">  1  5  2 -1</clus>
</clustering>
</event>
<event>
 9    1  0.1321469E-005  0.1312452E+03  0.7546771E-02  0.1225894E+00
         -3   -1    0    0    0  501 -0.00000000000E+00  0.00000000000E+00  0.35488419784E+02  0.35488419784E+02  0.00000000000E+00 0.  1.
         21   -1    0    0  501  502  0.00000000000E+00 -0.00000000000E+00 -0.11893110422E+04  0.11893110422E+04  0.00000000000E+00 0.  1.
         23    2    1    2    0    0 -0.21198581666E+01 -0.64931241370E+02 -0.26471135942E+03  0.28741100108E+03  0.91172472998E+02 0.  0.
         23    2    1    2    0    0 -0.61486136386E+02  0.11740690902E+03 -0.27915867610E+03  0.32188738332E+03  0.90094360805E+02 0.  0.
        -11    1    4    4    0    0 -0.72879267818E+02  0.50337544852E+02 -0.19094655416E+03  0.21048953097E+03  0.00000000000E+00 0. -1.
         11    1    4    4    0    0  0.11393131432E+02  0.67069364167E+02 -0.88212121935E+02  0.11139785236E+03  0.00000000000E+00 0.  1.
        -13    1    3    3    0    0  0.39114429168E+02 -0.53343249781E+01 -0.92308916871E+02  0.10039586508E+03  0.00000000000E+00 0.  1.
         13    1    3    3    0    0 -0.41234287335E+02 -0.59596916392E+02 -0.17240244255E+03  0.18701513600E+03  0.00000000000E+00 0. -1.
         -3    1    1    2    0  502  0.63605994553E+02 -0.52475667649E+02 -0.60995258693E+03  0.61550107761E+03  0.00000000000E+00 0.  1.
<scales pt_clust_5="13000.00000" pt_clust_6="13000.00000" pt_clust_7="13000.00000" pt_clust_8="13000.00000" pt_clust_9="82.45858"></scales>
<clustering>
<clus scale="   82.459">  2  9  1 -1</clus>
<clus scale="   90.094">  5  6 -1 -1</clus>
<clus scale="   91.172">  7  8 -1 -1</clus>
<clus scale="  130.499">  2  5  1 -1</clus>
<clus scale="   82.459">  2  5  1 -1</clus>
</clustering>
</event>
<event>
 9    1  0.1321469E-005  0.1068660E+03  0.7546771E-02  0.1267060E+00
         21   -1    0    0  501  502  0.00000000000E+00  0.00000000000E+00  0.16666191361E+03  0.16666191361E+03  0.00000000000E+00 0.  1.
         -1   -1    0    0    0  501 -0.00000000000E+00 -0.00000000000E+00 -0.11568855088E+03  0.11568855088E+03  0.00000000000E+00 0.  1.
         23    2    1    2    0    0 -0.47584141467E+02  0.38864931421E+02 -0.49108873726E+02  0.12121672802E+03  0.92233834683E+02 0.  0.
         23    2    1    2    0    0  0.27893284152E+02 -0.21561067404E+02  0.64226129446E+02  0.11671736582E+03  0.90857211336E+02 0.  0.
        -11    1    4    4    0    0 -0.80473359016E+01 -0.50573249811E+02  0.35790399760E+02  0.62476923152E+02  0.00000000000E+00 0. -1.
         11    1    4    4    0    0  0.35940620054E+02  0.29012182408E+02  0.28435729686E+02  0.54240442667E+02  0.00000000000E+00 0.  1.
        -11    1    3    3    0    0 -0.14043402621E+02  0.64696371732E+02 -0.17775861721E+02  0.68547931641E+02  0.00000000000E+00 0.  1.
         11    1    3    3    0    0 -0.33540738846E+02 -0.25831440311E+02 -0.31333012005E+02  0.52668796381E+02  0.00000000000E+00 0. -1.
         -1    1    1    2    0  502  0.19690857315E+02 -0.17303864017E+02  0.35856107009E+02  0.44416370649E+02  0.00000000000E+00 0.  1.
<scales pt_clust_5="13000.00000" pt_clust_6="13000.00000" pt_clust_7="13000.00000" pt_clust_8="13000.00000" pt_clust_9="26.21361"></scales>
<clustering>
<clus scale="   26.214">  1  9  2 -1</clus>
<clus scale="   90.857">  5  6 -1 -1</clus>
<clus scale="   92.234">  7  8 -1 -1</clus>
<clus scale="  105.680">  1  5  2 -1</clus>
<clus scale="   26.214">  1  5  2 -1</clus>
</clustering>
</event>
<event>
 9    1  0.1321469E-005  0.3383597E+03  0.7546771E-02  0.1067543E+00
          1   -1    0    0  502    0 -0.00000000000E+00  0.00000000000E+00  0.17993145456E+04  0.17993145456E+04  0.00000000000E+00 0. -1.
         21   -1    0    0  501  502  0.00000000000E+00 -0.00000000000E+00 -0.86781839132E+02  0.86781839132E+02  0.00000000000E+00 0.  1.
         23    2    1    2    0    0 -0.31709033203E+03  0.91149644914E+02  0.10629887251E+04  0.11167897988E+04  0.91759950673E+02 0.  0.
         23    2    1    2    0    0  0.29900774366E+03 -0.11435338004E+03  0.65919752874E+03  0.73834557335E+03  0.90169160399E+02 0.  0.
        -11    1    3    3    0    0 -0.94853753809E+02  0.41752941412E+02  0.21350469904E+03  0.23732846277E+03  0.00000000000E+00 0.  1.
         11    1    3    3    0    0 -0.22223657822E+03  0.49396703501E+02  0.84948402609E+03  0.87946133604E+03  0.00000000000E+00 0. -1.
        -11    1    4    4    0    0  0.36310498899E+02  0.62172151105E+01  0.13275813316E+03  0.13777455503E+03  0.00000000000E+00 0. -1.
         11    1    4    4    0    0  0.26269724476E+03 -0.12057059515E+03  0.52643939558E+03  0.60057101831E+03  0.00000000000E+00 0.  1.
          1    1    1    2  501    0  0.18082588372E+02  0.23203735129E+02 -0.96535473503E+01  0.30961012623E+02  0.00000000000E+00 0. -1.
<scales pt_clust_5="13000.00000" pt_clust_6="13000.00000" pt_clust_7="13000.00000" pt_clust_8="13000.00000" pt_clust_9="29.41757"></scales>
<clustering>
<clus scale="   29.418">  2  9  1 -1</clus>
<clus scale="   90.169">  7  8 -1 -1</clus>
<clus scale="   91.760">  5  6 -1 -1</clus>
<clus scale="  337.932">  2  7  1 -1</clus>
<clus scale="   29.418">  2  5  1 -1</clus>
</clustering>
</event>
<event>
 9    1  0.1321469E-005  0.2138359E+03  0.7546771E-02  0.1168268E+00
          1   -1    0    0  502    0 -0.00000000000E+00  0.00000000000E+00  0.98764816191E+03  0.98764816191E+03  0.00000000000E+00 0. -1.
         21   -1    0    0  501  502  0.00000000000E+00 -0.00000000000E+00 -0.10077680708E+03  0.10077680708E+03  0.00000000000E+00 0.  1.
         23    2    1    2    0    0 -0.31823847185E+02 -0.39034736377E+02  0.48850026763E+03  0.49991534936E+03  0.93522067799E+02 0.  0.
         23    2    1    2    0    0  0.85000282433E+02 -0.15534539967E+03  0.30920644277E+03  0.36814241615E+03  0.92536333959E+02 0.  0.
        -11    1    3    3    0    0  0.88490557352E+01 -0.57333515360E+02  0.33812694794E+03  0.34306744336E+03  0.00000000000E+00 0. -1.
         11    1    3    3    0    0 -0.40672902920E+02  0.18298778983E+02  0.15037331969E+03  0.15684790601E+03  0.00000000000E+00 0.  1.
        -13    1    4    4    0    0  0.44772295495E+02 -0.87760386271E+02  0.83571318166E+02  0.12919214009E+03  0.00000000000E+00 0.  1.
         13    1    4    4    0    0  0.40227986939E+02 -0.67585013398E+02  0.22563512461E+03  0.23895027605E+03  0.00000000000E+00 0. -1.
          1    1    1    2  501    0 -0.53176435249E+02  0.19438013605E+03  0.89164644425E+02  0.22036720348E+03  0.00000000000E+00 0. -1.
<scales pt_clust_5="13000.00000" pt_clust_6="13000.00000" pt_clust_7="13000.00000" pt_clust_8="13000.00000" pt_clust_9="192.77659"></scales>
<clustering>
<clus scale="   92.536">  7  8 -1 -1</clus>
<clus scale="   93.522">  5  6 -1 -1</clus>
<clus scale="  106.221">  1  5  2 -1</clus>
<clus scale="  192.777">  2  9  1 -1</clus>
<clus scale="  192.777">  2  5  1 -1</clus>
</clustering>
</event>
<event>
 9    1  0.1321469E-005  0.1792457E+03  0.7546771E-02  0.1184718E+00
         21   -1    0    0  501  502  0.00000000000E+00  0.00000000000E+00  0.21799402489E+03  0.21799402489E+03  0.00000000000E+00 0.  1.
         -3   -1    0    0    0  501 -0.00000000000E+00 -0.00000000000E+00 -0.43181487557E+03  0.43181487557E+03  0.00000000000E+00 0.  1.
         23    2    1    2    0    0  0.43699020416E+02 -0.72309300837E+02 -0.14942414001E+03  0.19437675373E+03  0.91194897872E+02 0.  0.
         23    2    1    2    0    0 -0.24726975154E+02 -0.95941764427E+02 -0.19958461907E+03  0.23876620562E+03  0.85784819846E+02 0.  0.
        -13    1    4    4    0    0 -0.21742256977E+02 -0.34615165700E+02 -0.16132260883E+03  0.16642091080E+03  0.00000000000E+00 0. -1.
         13    1    4    4    0    0 -0.29847181771E+01 -0.61326598727E+02 -0.38262010241E+02  0.72345294814E+02  0.00000000000E+00 0.  1.
        -13    1    3    3    0    0  0.40739969918E+02 -0.93936956399E+02 -0.12601498478E+03  0.16236894197E+03  0.00000000000E+00 0.  1.
         13    1    3    3    0    0  0.29590504978E+01  0.21627655561E+02 -0.23409155230E+02  0.32007811758E+02  0.00000000000E+00 0. -1.
         -3    1    1    2    0  502 -0.18972045262E+02  0.16825106526E+03  0.13518790840E+03  0.21666594112E+03  0.00000000000E+00 0.  1.
<scales pt_clust_5="13000.00000" pt_clust_6="13000.00000" pt_clust_7="13000.00000" pt_clust_8="13000.00000" pt_clust_9="157.38487"></scales>
<clustering>
<clus scale="   85.785">  5  6 -1 -1</clus>
<clus scale="   91.195">  7  8 -1 -1</clus>
<clus scale="  124.317">  2  7  1 -1</clus>
<clus scale="  157.385">  1  9  2 -1</clus>
<clus scale="  157.385">  1  5  2 -1</clus>
</clustering>
</event>
<event>
 9    1  0.1321469E-005  0.1018653E+03  0.7546771E-02  0.1277003E+00
         -3   -1    0    0    0  501 -0.00000000000E+00  0.00000000000E+00  0.18814046304E+03  0.18814046304E+03  0.00000000000E+00 0.  1.
         21   -1    0    0  501  502  0.00000000000E+00 -0.00000000000E+00 -0.23085357963E+03  0.23085357963E+03  0.00000000000E+00 0.  1.
         23    2    1    2    0    0 -0.43142070180E+02 -0.12106002468E+02  0.15214669201E+03  0.18302548102E+03  0.91334097135E+02 0.  0.
         23    2    1    2    0    0  0.52999059028E+02 -0.12974119857E+02 -0.14387057831E+03  0.17829643346E+03  0.90075783852E+02 0.  0.
        -11    1    3    3    0    0 -0.65255042891E+02 -0.23005246374E+02  0.75027805203E+02  0.10206191031E+03  0.00000000000E+00 0.  1.
         11    1    3    3    0    0  0.22112972711E+02  0.10899243905E+02  0.77118886804E+02  0.80963570707E+02  0.00000000000E+00 0. -1.
        -11    1    4    4    0    0 -0.19921177322E+02 -0.18295303146E+02 -0.66774480210E+02  0.72044448990E+02  0.00000000000E+00 0.  1.
         11    1    4    4    0    0  0.72920236350E+02  0.53211832886E+01 -0.77096098101E+02  0.10625198447E+03  0.00000000000E+00 0. -1.
         -3    1    1    2    0  502 -0.98569888488E+01  0.25080122325E+02 -0.50989230285E+02  0.57672128191E+02  0.00000000000E+00 0.  1.
<scales pt_clust_5="13000.00000" pt_clust_6="13000.00000" pt_clust_7="13000.00000" pt_clust_8="13000.00000" pt_clust_9="26.94759"></scales>
<clustering>
<clus scale="   26.948">  2  9  1 -1</clus>
<clus scale="   90.076">  7  8 -1 -1</clus>
<clus scale="   91.334">  5  6 -1 -1</clus>
<clus scale="  100.739">  2  7  1 -1</clus>
<clus scale="   26.948">  2  5  1 -1</clus>
</clustering>
</event>
<event>
 9    1  0.1321469E-005  0.1058425E+03  0.7546771E-02  0.1269238E+00
         -1   -1    0    0    0  501 -0.00000000000E+00  0.00000000000E+00  0.16101460055E+03  0.16101460055E+03  0.00000000000E+00 0.  1.
         21   -1    0    0  501  502  0.00000000000E+00 -0.00000000000E+00 -0.19516525190E+03  0.19516525190E+03  0.00000000000E+00 0.  1.
         23    2    1    2    0    0 -0.50414751377E+02 -0.35406754207E+02  0.45185088346E+02  0.11975112586E+03  0.92213635304E+02 0.  0.
         23    2    1    2    0    0  0.44409740335E+02 -0.64293055876E+02 -0.34881506744E+02  0.12710219223E+03  0.93980985773E+02 0.  0.
        -11    1    3    3    0    0 -0.54424917151E+02 -0.55979495098E+02  0.98869142271E+01  0.78698961563E+02  0.00000000000E+00 0.  1.
         11    1    3    3    0    0  0.40101657735E+01  0.20572740891E+02  0.35298174119E+02  0.41052164296E+02  0.00000000000E+00 0. -1.
        -13    1    4    4    0    0  0.61428915517E+02 -0.48337494147E+02 -0.55581960691E+02  0.95913395083E+02  0.00000000000E+00 0.  1.
         13    1    4    4    0    0 -0.17019175182E+02 -0.15955561729E+02  0.20700453947E+02  0.31188797149E+02  0.00000000000E+00 0. -1.
         -1    1    1    2    0  502  0.60050110419E+01  0.99699810083E+02 -0.44454232950E+02  0.10932653436E+03  0.00000000000E+00 0.  1.
<scales pt_clust_5="13000.00000" pt_clust_6="13000.00000" pt_clust_7="13000.00000" pt_clust_8="13000.00000" pt_clust_9="99.88049"></scales>
<clustering>
<clus scale="   92.214">  5  6 -1 -1</clus>
<clus scale="   93.981">  7  8 -1 -1</clus>
<clus scale="   99.880">  2  9  1 -1</clus>
<clus scale="  104.276">  1  5  2 -1</clus>
<clus scale="   99.880">  2  5  1 -1</clus>
</clustering>
</event>
<event>
 9    1  0.1321469E-005  0.9816176E+02  0.7546771E-02  0.1287136E+00
         21   -1    0    0  501  502  0.00000000000E+00  0.00000000000E+00  0.14076086927E+03  0.14076086927E+03  0.00000000000E+00 0. -1.
          1   -1    0    0  502    0 -0.00000000000E+00 -0.00000000000E+00 -0.19422988056E+03  0.19422988056E+03  0.00000000000E+00 0. -1.
         23    2    1    2    0    0  0.24857055978E+02  0.32287693632E+02 -0.65131347580E+02  0.12408285370E+03  0.97437640335E+02 0.  0.
         23    2    1    2    0    0  0.86497310014E+00  0.34204087149E+02 -0.55583713721E+02  0.11290375880E+03  0.92125141867E+02 0.  0.
        -13    1    3    3    0    0  0.33458921164E+02  0.57760987658E+02 -0.70037234080E+02  0.96752494843E+02  0.00000000000E+00 0. -1.
         13    1    3    3    0    0 -0.86018651856E+01 -0.25473294026E+02  0.49058865003E+01  0.27330358862E+02  0.00000000000E+00 0.  1.
        -13    1    4    4    0    0  0.95487045695E+01  0.61551864780E+02 -0.16533168418E+02  0.64444980214E+02  0.00000000000E+00 0.  1.
         13    1    4    4    0    0 -0.86837314693E+01 -0.27347777631E+02 -0.39050545303E+02  0.48458778586E+02  0.00000000000E+00 0. -1.
          1    1    1    2  501    0 -0.25722029078E+02 -0.66491780781E+02  0.67246050006E+02  0.98004137324E+02  0.00000000000E+00 0. -1.
<scales pt_clust_5="13000.00000" pt_clust_6="13000.00000" pt_clust_7="13000.00000" pt_clust_8="13000.00000" pt_clust_9="71.29362"></scales>
<clustering>
<clus scale="   71.294">  1  9  2 -1</clus>
<clus scale="   92.125">  7  8 -1 -1</clus>
<clus scale="   92.891">  1  7  2 -1</clus>
<clus scale="   97.438">  5  6 -1 -1</clus>
<clus scale="   71.294">  1  5  2 -1</clus>
</clustering>
</event>
<event>
 9    1  0.1321469E-005  0.9277037E+02  0.7546771E-02  0.1296823E+00
         21   -1    0    0  501  502  0.00000000000E+00  0.00000000000E+00  0.24380824108E+03  0.24380824108E+03  0.00000000000E+00 0.  1.
          1   -1    0    0  502    0 -0.00000000000E+00 -0.00000000000E+00 -0.51342555043E+02  0.51342555043E+02  0.00000000000E+00 0. -1.
         23    2    1    2    0    0 -0.12074658255E+02  0.80455404410E+01  0.49830968152E+02  0.10453912065E+03  0.90745657012E+02 0.  0.
         23    2    1    2    0    0 -0.91864053361E+01 -0.21570076359E+02  0.83027392443E+02  0.12589707787E+03  0.91688974706E+02 0.  0.
        -11    1    4    4    0    0 -0.29919591128E+02 -0.41251806881E+02  0.16625942894E+02  0.53603315954E+02  0.00000000000E+00 0.  1.
         11    1    4    4    0    0  0.20733185792E+02  0.19681730522E+02  0.66401449549E+02  0.72293761913E+02  0.00000000000E+00 0. -1.
        -11    1    3    3    0    0  0.13107869616E+01  0.27354202735E+02  0.68987726668E+02  0.74224504044E+02  0.00000000000E+00 0.  1.
         11    1    3    3    0    0 -0.13385445216E+02 -0.19308662294E+02 -0.19156758516E+02  0.30314616607E+02  0.00000000000E+00 0. -1.
          1    1    1    2  501    0  0.21261063591E+02  0.13524535918E+02  0.59607325446E+02  0.64714597609E+02  0.00000000000E+00 0. -1.
<scales pt_clust_5="13000.00000" pt_clust_6="13000.00000" pt_clust_7="13000.00000" pt_clust_8="13000.00000" pt_clust_9="25.19813"></scales>
<clustering>
<clus scale="   25.198">  1  9  2 -1</clus>
<clus scale="   90.746">  7  8 -1 -1</clus>
<clus scale="   91.689">  5  6 -1 -1</clus>
<clus scale="   91.838">  2  7  1 -1</clus>
<clus scale="   25.198">  1  5  2 -1</clus>
</clustering>
</event>
<event>
 9    1  0.1321469E-005  0.9772057E+02  0.7546771E-02  0.1285469E+00
          3   -1    0    0  502    0 -0.00000000000E+00  0.00000000000E+00  0.44491678974E+02  0.44491678974E+02  0.00000000000E+00 0. -1.
         21   -1    0    0  501  502  0.00000000000E+00 -0.00000000000E+00 -0.30194155173E+03  0.30194155173E+03  0.00000000000E+00 0.  1.
         23    2    1    2    0    0 -0.29441390852E+02 -0.63648917264E+01 -0.58949110205E+02  0.11253902562E+03  0.91009490450E+02 0.  0.
         23    2    1    2    0    0  0.43634084177E+02 -0.99973649070E+01 -0.16698308012E+03  0.19565129343E+03  0.91608945887E+02 0.  0.
        -11    1    4    4    0    0  0.32916911184E+02 -0.46416505903E+02 -0.62693511172E+02  0.84666943993E+02  0.00000000000E+00 0.  1.
         11    1    4    4    0    0  0.10717172993E+02  0.36419140996E+02 -0.10428956895E+03  0.11098434944E+03  0.00000000000E+00 0. -1.
        -13    1    3    3    0    0  0.15968974002E+02  0.29079393455E+02 -0.39845036230E+02  0.51848299554E+02  0.00000000000E+00 0.  1.
         13    1    3    3    0    0 -0.45410364854E+02 -0.35444285182E+02 -0.19104073975E+02  0.60690726068E+02  0.00000000000E+00 0. -1.
          3    1    1    2  501    0 -0.14192693325E+02  0.16362256633E+02 -0.31517682425E+02  0.38242911650E+02  0.00000000000E+00 0. -1.
<scales pt_clust_5="13000.00000" pt_clust_6="13000.00000" pt_clust_7="13000.00000" pt_clust_8="13000.00000" pt_clust_9="21.66001"></scales>
<clustering>
<clus scale="   21.660">  2  9  1 -1</clus>
<clus scale="   91.009">  7  8 -1 -1</clus>
<clus scale="   91.609">  5  6 -1 -1</clus>
<clus scale="   97.159">  1  7  2 -1</clus>
<clus scale="   21.660">  2  5  1 -1</clus>
</clustering>
</event>
<event>
 9    1  0.1321469E-005  0.1379819E+03  0.7546771E-02  0.1216777E+00
          2   -1    0    0  502    0 -0.00000000000E+00  0.00000000000E+00  0.61476653139E+03  0.61476653139E+03  0.00000000000E+00 0. -1.
         21   -1    0    0  501  502  0.00000000000E+00 -0.00000000000E+00 -0.60133210079E+02  0.60133210079E+02  0.00000000000E+00 0.  1.
         23    2    1    2    0    0  0.80978720723E+02 -0.67512834449E+02  0.45292467462E+03  0.47453803561E+03  0.94498943565E+02 0.  0.
         23    2    1    2    0    0 -0.80859963956E+02  0.38398152119E+02  0.11139109539E+03  0.16967899667E+03  0.91488982504E+02 0.  0.
        -11    1    4    4    0    0  0.33736731776E+01  0.26196338597E+02 -0.35559541620E+01  0.26650978154E+02  0.00000000000E+00 0.  1.
         11    1    4    4    0    0 -0.84233637133E+02  0.12201813522E+02  0.11494704956E+03  0.14302801851E+03  0.00000000000E+00 0. -1.
        -11    1    3    3    0    0  0.88747469076E+02 -0.27625294441E+02  0.37846086703E+03  0.38970745186E+03  0.00000000000E+00 0.  1.
         11    1    3    3    0    0 -0.77687483525E+01 -0.39887540008E+02  0.74463807591E+02  0.84830583752E+02  0.00000000000E+00 0. -1.
          2    1    1    2  501    0 -0.11875676755E+00  0.29114682330E+02 -0.96824487054E+01  0.30682709191E+02  0.00000000000E+00 0. -1.
<scales pt_clust_5="13000.00000" pt_clust_6="13000.00000" pt_clust_7="13000.00000" pt_clust_8="13000.00000" pt_clust_9="29.11492"></scales>
<clustering>
<clus scale="   29.115">  2  9  1 -1</clus>
<clus scale="   91.489">  5  6 -1 -1</clus>
<clus scale="   94.499">  7  8 -1 -1</clus>
<clus scale="  135.938">  2  5  1 -1</clus>
<clus scale="   29.115">  2  5  1 -1</clus>
</clustering>
</event>
<event>
 9    1  0.1321469E-005  0.1003208E+03  0.7546771E-02  0.1281228E+00
         21   -1    0    0  501  502  0.00000000000E+00  0.00000000000E+00  0.18650896388E+03  0.18650896388E+03  0.00000000000E+00 0. -1.
         -3   -1    0    0    0  501 -0.00000000000E+00 -0.00000000000E+00 -0.10236499412E+03  0.10236499412E+03  0.00000000000E+00 0.  1.
         23    2    1    2    0    0 -0.17733366611E+02 -0.27318176804E+02 -0.27162788801E+02  0.10220317801E+03  0.92988802681E+02 0.  0.
         23    2    1    2    0    0  0.54229038273E+02  0.26471375005E+02  0.10277697911E+03  0.14918200486E+03  0.89725363490E+02 0.  0.
        -11    1    3    3    0    0  0.66208868626E+01 -0.54308182447E+02  0.32484314467E+01  0.54806634000E+02  0.00000000000E+00 0.  1.
         11    1    3    3    0    0 -0.24354253474E+02  0.26990005643E+02 -0.30411220248E+02  0.47396544008E+02  0.00000000000E+00 0. -1.
        -11    1    4    4    0    0  0.33356548861E+02 -0.29537098213E+02  0.24994239554E+02  0.51086314543E+02  0.00000000000E+00 0.  1.
         11    1    4    4    0    0  0.20872489412E+02  0.56008473218E+02  0.77782739558E+02  0.98095690321E+02  0.00000000000E+00 0. -1.
         -3    1    1    2    0  502 -0.36495671662E+02  0.84680179841E+00  0.85297794535E+01  0.37488775131E+02  0.00000000000E+00 0.  1.
<scales pt_clust_5="13000.00000" pt_clust_6="13000.00000" pt_clust_7="13000.00000" pt_clust_8="13000.00000" pt_clust_9="36.50551"></scales>
<clustering>
<clus scale="   36.506">  1  9  2 -1</clus>
<clus scale="   89.725">  7  8 -1 -1</clus>
<clus scale="   92.989">  5  6 -1 -1</clus>
<clus scale="   97.304">  1  7  2 -1</clus>
<clus scale="   36.506">  1  5  2 -1</clus>
</clustering>
</event>
<event>
 9    1  0.1321469E-005  0.9762515E+02  0.7546771E-02  0.1286871E+00
         -2   -1    0    0    0  501 -0.00000000000E+00  0.00000000000E+00  0.35116112811E+02  0.35116112811E+02  0.00000000000E+00 0.  1.
         21   -1    0    0  501  502  0.00000000000E+00 -0.00000000000E+00 -0.48639108547E+03  0.48639108547E+03  0.00000000000E+00 0. -1.
         23    2    1    2    0    0  0.18597986079E+02  0.11612042486E+02 -0.84101285718E+02  0.12695174144E+03  0.92536445671E+02 0.  0.
         23    2    1    2    0    0 -0.44993671523E+02 -0.20529207373E+02 -0.19606127560E+03  0.22118964316E+03  0.89660223169E+02 0.  0.
        -11    1    3    3    0    0 -0.32222904179E+02 -0.15957022496E+02 -0.22247324840E+02  0.42283396070E+02  0.00000000000E+00 0. -1.
         11    1    3    3    0    0  0.50820890259E+02  0.27569064983E+02 -0.61853960879E+02  0.84668345366E+02  0.00000000000E+00 0.  1.
        -13    1    4    4    0    0  0.18945732451E+02 -0.20465826278E+02 -0.21280545405E+02  0.35080656152E+02  0.00000000000E+00 0.  1.
         13    1    4    4    0    0 -0.63939403973E+02 -0.63381095385E-01 -0.17478073019E+03  0.18610898701E+03  0.00000000000E+00 0. -1.
         -2    1    1    2    0  502  0.26395685444E+02  0.89171648867E+01 -0.17111241134E+03  0.17336581369E+03  0.00000000000E+00 0.  1.
<scales pt_clust_5="13000.00000" pt_clust_6="13000.00000" pt_clust_7="13000.00000" pt_clust_8="13000.00000" pt_clust_9="27.86123"></scales>
<clustering>
<clus scale="   27.861">  2  9  1 -1</clus>
<clus scale="   89.660">  7  8 -1 -1</clus>
<clus scale="   92.536">  5  6 -1 -1</clus>
<clus scale="   94.903">  2  7  1 -1</clus>
<clus scale="   27.861">  2  5  1 -1</clus>
</clustering>
</event>
<event>
 9    1  0.1321469E-005  0.1088923E+03  0.7546771E-02  0.1263338E+00
         21   -1    0    0  501  502  0.00000000000E+00  0.00000000000E+00  0.29016552188E+03  0.29016552188E+03  0.00000000000E+00 0.  1.
         -4   -1    0    0    0  501 -0.00000000000E+00 -0.00000000000E+00 -0.15473334621E+03  0.15473334621E+03  0.00000000000E+00 0.  1.
         23    2    1    2    0    0  0.16221542566E+02 -0.77638352819E+02 -0.58219267023E+02  0.13231648645E+03  0.88472127032E+02 0.  0.
         23    2    1    2    0    0 -0.90228544202E+01  0.38864227710E+02 -0.15359803136E+02  0.99883169668E+02  0.90271168893E+02 0.  0.
        -11    1    4    4    0    0 -0.46873220025E+02  0.27326229291E+02  0.65525704946E+01  0.54651237341E+02  0.00000000000E+00 0. -1.
         11    1    4    4    0    0  0.37850365605E+02  0.11537998419E+02 -0.21912373630E+02  0.45231932327E+02  0.00000000000E+00 0.  1.
        -13    1    3    3    0    0  0.21298224176E+02 -0.46140642441E+02 -0.79221322303E+02  0.94120088957E+02  0.00000000000E+00 0.  1.
         13    1    3    3    0    0 -0.50766816103E+01 -0.31497710378E+02  0.21002055281E+02  0.38196397491E+02  0.00000000000E+00 0. -1.
         -4    1    1    2    0  502 -0.71986881453E+01  0.38774125109E+02  0.20901124584E+03  0.21269921198E+03  0.00000000000E+00 0.  1.
<scales pt_clust_5="13000.00000" pt_clust_6="13000.00000" pt_clust_7="13000.00000" pt_clust_8="13000.00000" pt_clust_9="39.43671"></scales>
<clustering>
<clus scale="   39.437">  1  9  2 -1</clus>
<clus scale="   88.472">  7  8 -1 -1</clus>
<clus scale="   90.271">  5  6 -1 -1</clus>
<clus scale="  107.406">  2  7  1 -1</clus>
<clus scale="   39.437">  1  5  2 -1</clus>
</clustering>
</event>
<event>
 9    1  0.1321469E-005  0.1262685E+03  0.7546771E-02  0.1233386E+00
         21   -1    0    0  501  502  0.00000000000E+00  0.00000000000E+00  0.46438990715E+03  0.46438990715E+03  0.00000000000E+00 0.  1.
         -1   -1    0    0    0  501 -0.00000000000E+00 -0.00000000000E+00 -0.24815804401E+03  0.24815804401E+03  0.00000000000E+00 0.  1.
         23    2    1    2    0    0  0.14528510102E+02  0.10688293951E+03 -0.18499914497E+03  0.23229254745E+03  0.90000575532E+02 0.  0.
         23    2    1    2    0    0 -0.10266901561E+02 -0.30085232607E+02  0.29765593231E+02  0.10091043730E+03  0.91029639830E+02 0.  0.
        -11    1    3    3    0    0 -0.32403955899E+02  0.54742775695E+02 -0.52957509198E+02  0.82772493192E+02  0.00000000000E+00 0. -1.
         11    1    3    3    0    0  0.46932466000E+02  0.52140163814E+02 -0.13204163577E+03  0.14952005425E+03  0.00000000000E+00 0.  1.
        -11    1    4    4    0    0  0.11104082618E+02 -0.22455953147E+02  0.58885670262E+02  0.63992910894E+02  0.00000000000E+00 0. -1.
         11    1    4    4    0    0 -0.21370984179E+02 -0.76292794603E+01 -0.29120077031E+02  0.36917526409E+02  0.00000000000E+00 0.  1.
         -1    1    1    2    0  502 -0.42616085410E+01 -0.76797706902E+02  0.37146541487E+03  0.37934496641E+03  0.00000000000E+00 0.  1.
<scales pt_clust_5="13000.00000" pt_clust_6="13000.00000" pt_clust_7="13000.00000" pt_clust_8="13000.00000" pt_clust_9="76.91586"></scales>
<clustering>
<clus scale="   76.916">  1  9  2 -1</clus>
<clus scale="   90.001">  5  6 -1 -1</clus>
<clus scale="   91.030">  7  8 -1 -1</clus>
<clus scale="  125.529">  2  5  1 -1</clus>
<clus scale="   76.916">  1  5  2 -1</clus>
</clustering>
</event>
<event>
 9    1  0.1321469E-005  0.2803858E+03  0.7546771E-02  0.1123273E+00
         -1   -1    0    0    0  501 -0.00000000000E+00  0.00000000000E+00  0.14502990679E+04  0.14502990679E+04  0.00000000000E+00 0.  1.
         21   -1    0    0  501  502  0.00000000000E+00 -0.00000000000E+00 -0.78959205779E+03  0.78959205779E+03  0.00000000000E+00 0.  1.
         23    2    1    2    0    0  0.93066855910E+02 -0.43818198156E+02  0.25791695363E+03  0.29251644342E+03  0.91995872429E+02 0.  0.
         23    2    1    2    0    0 -0.32785627324E+03 -0.75774867902E+02  0.11253838968E+04  0.11782385240E+04  0.92333838679E+02 0.  0.
        -11    1    3    3    0    0  0.53178039067E+02  0.16174990878E+02  0.59492658674E+02  0.81418122092E+02  0.00000000000E+00 0. -1.
         11    1    3    3    0    0  0.39888816843E+02 -0.59993189034E+02  0.19842429495E+03  0.21109832133E+03  0.00000000000E+00 0.  1.
        -13    1    4    4    0    0 -0.90529058633E+02 -0.42591517388E+01  0.18903516115E+03  0.20963764686E+03  0.00000000000E+00 0. -1.
         13    1    4    4    0    0 -0.23732721461E+03 -0.71515716163E+02  0.93634873562E+03  0.96860087711E+03  0.00000000000E+00 0.  1.
         -1    1    1    2    0  502  0.23478941733E+03  0.11959306606E+03 -0.72259384030E+03  0.76913615828E+03  0.00000000000E+00 0.  1.
<scales pt_clust_5="13000.00000" pt_clust_6="13000.00000" pt_clust_7="13000.00000" pt_clust_8="13000.00000" pt_clust_9="264.74636"></scales>
<clustering>
<clus scale="   91.996">  5  6 -1 -1</clus>
<clus scale="   92.334">  7  8 -1 -1</clus>
<clus scale="  138.003">  1  5  2 -1</clus>
<clus scale="  264.746">  2  9  1 -1</clus>
<clus scale="  264.746">  2  5  1 -1</clus>
</clustering>
</event>
<event>
 9    1  0.1836116E-005  0.1453032E+03  0.7546771E-02  0.1220857E+00
         21   -1    0    0  501  502  0.00000000000E+00  0.00000000000E+00  0.59099960483E+03  0.59099960483E+03  0.00000000000E+00 0. -1.
          1   -1    0    0  502    0 -0.00000000000E+00 -0.00000000000E+00 -0.20525006935E+03  0.20525006935E+03  0.00000000000E+00 0. -1.
         23    2    1    2    0    0 -0.29317932322E+02  0.44581867477E+02  0.40996530387E+02  0.11442879754E+03  0.92553498791E+02 0.  0.
         23    2    1    2    0    0  0.68179955101E+02  0.62403961257E+02 -0.13565871587E+03  0.18810876822E+03  0.91863272481E+02 0.  0.
        -11    1    3    3    0    0 -0.20923195345E+02 -0.15320036435E+02  0.46963939770E+02  0.53647882144E+02  0.00000000000E+00 0.  1.
         11    1    3    3    0    0 -0.83947369770E+01  0.59901903912E+02 -0.59674093829E+01  0.60780915392E+02  0.00000000000E+00 0. -1.
        -11    1    4    4    0    0  0.20344963500E+02  0.30588133683E+02  0.41373847001E+01  0.36968492182E+02  0.00000000000E+00 0.  1.
         11    1    4    4    0    0  0.47834991601E+02  0.31815827574E+02 -0.13979610057E+03  0.15114027604E+03  0.00000000000E+00 0. -1.
          1    1    1    2  501    0 -0.38862022779E+02 -0.10698582873E+03  0.48041172096E+03  0.49371210842E+03  0.00000000000E+00 0. -1.
<scales pt_clust_5="13000.00000" pt_clust_6="13000.00000" pt_clust_7="13000.00000" pt_clust_8="13000.00000" pt_clust_9="112.57958"></scales>
<clustering>
<clus scale="   91.863">  7  8 -1 -1</clus>
<clus scale="   92.553">  5  6 -1 -1</clus>
<clus scale="  106.833">  2  5  1 -1</clus>
<clus scale="  112.580">  1  9  2 -1</clus>
<clus scale="  112.580">  1  5  2 -1</clus>
</clustering>
</event>
<event>
 9    1  0.1321469E-005  0.1281569E+03  0.7546771E-02  0.1242585E+00
          2   -1    0    0  502    0 -0.00000000000E+00  0.00000000000E+00  0.34938212397E+03  0.34938212397E+03  0.00000000000E+00 0. -1.
         21   -1    0    0  501  502  0.00000000000E+00 -0.00000000000E+00 -0.10598909060E+03  0.10598909060E+03  0.00000000000E+00 0. -1.
         23    2    1    2    0    0 -0.45210862133E+02 -0.22029034225E+01  0.17189985380E+03  0.21620723581E+03  0.12307369436E+03 0.  0.
         23    2    1    2    0    0 -0.23363153866E+02  0.74353370859E+02  0.72603142976E+02  0.13961842315E+03  0.90265314477E+02 0.  0.
        -11    1    3    3    0    0  0.38942346812E+02  0.20325123020E+02  0.61436420087E+02  0.75525166098E+02  0.00000000000E+00 0.  1.
         11    1    3    3    0    0 -0.84153208946E+02 -0.22528026443E+02  0.11046343371E+03  0.14068206971E+03  0.00000000000E+00 0. -1.
        -13    1    4    4    0    0 -0.49142811345E+01  0.91091334780E+02  0.69148791116E+02  0.11446980713E+03  0.00000000000E+00 0. -1.
         13    1    4    4    0    0 -0.18448872731E+02 -0.16737963922E+02  0.34543518607E+01  0.25148616027E+02  0.00000000000E+00 0.  1.
          2    1    1    2  501    0  0.68574015999E+02 -0.72150467436E+02 -0.11099634061E+01  0.99545555603E+02  0.00000000000E+00 0. -1.
<scales pt_clust_5="13000.00000" pt_clust_6="13000.00000" pt_clust_7="13000.00000" pt_clust_8="13000.00000" pt_clust_9="99.53937"></scales>
<clustering>
<clus scale="   90.265">  7  8 -1 -1</clus>
<clus scale="   99.539">  2  9  1 -1</clus>
<clus scale="   99.539">  2  7  1 -1</clus>
<clus scale="  123.074">  5  6 -1 -1</clus>
<clus scale="   99.539">  2  5  1 -1</clus>
</clustering>
</event>
<event>
 9    1  0.1321469E-005  0.1106225E+03  0.7546771E-02  0.1259824E+00
          1   -1    0    0  502    0 -0.00000000000E+00  0.00000000000E+00  0.14244105507E+03  0.14244105507E+03  0.00000000000E+00 0. -1.
         21   -1    0    0  501  502  0.00000000000E+00 -0.00000000000E+00 -0.23271656202E+03  0.23271656202E+03  0.00000000000E+00 0. -1.
         23    2    1    2    0    0 -0.51574131978E+02  0.14388730059E+02  0.45263732111E+02  0.11573633293E+03  0.92082390678E+02 0.  0.
         23    2    1    2    0    0  0.10382270554E+03  0.27029944698E+02 -0.13156507120E+03  0.19262896373E+03  0.91031739586E+02 0.  0.
        -13    1    3    3    0    0 -0.45734568442E+02  0.50065403546E+02  0.17163956029E+02  0.69948529429E+02  0.00000000000E+00 0.  1.
         13    1    3    3    0    0 -0.58395635361E+01 -0.35676673486E+02  0.28099776082E+02  0.45787803498E+02  0.00000000000E+00 0. -1.
        -13    1    4    4    0    0  0.64976249389E+02 -0.23159656946E+01 -0.15605798182E+02  0.66864172908E+02  0.00000000000E+00 0.  1.
         13    1    4    4    0    0  0.38846456153E+02  0.29345910393E+02 -0.11595927301E+03  0.12576479082E+03  0.00000000000E+00 0. -1.
          1    1    1    2  501    0 -0.52248573564E+02 -0.41418674757E+02 -0.39741678669E+01  0.66792320429E+02  0.00000000000E+00 0. -1.
<scales pt_clust_5="13000.00000" pt_clust_6="13000.00000" pt_clust_7="13000.00000" pt_clust_8="13000.00000" pt_clust_9="66.67402"></scales>
<clustering>
<clus scale="   66.674">  2  9  1 -1</clus>
<clus scale="   91.032">  7  8 -1 -1</clus>
<clus scale="   92.082">  5  6 -1 -1</clus>
<clus scale="  109.749">  2  7  1 -1</clus>
<clus scale="   66.674">  2  5  1 -1</clus>
</clustering>
</event>
<event>
 9    1  0.1321469E-005  0.1429584E+03  0.7546771E-02  0.1227761E+00
          1   -1    0    0  502    0 -0.00000000000E+00  0.00000000000E+00  0.26074562516E+03  0.26074562516E+03  0.00000000000E+00 0. -1.
         21   -1    0    0  501  502  0.00000000000E+00 -0.00000000000E+00 -0.26977634732E+03  0.26977634732E+03  0.00000000000E+00 0.  1.
         23    2    1    2    0    0 -0.18003859676E+02  0.29982630808E+02  0.18072394305E+03  0.20517658755E+03  0.90626659303E+02 0.  0.
         23    2    1    2    0    0  0.97033861076E+02  0.50848359839E+02 -0.14565145620E+03  0.20400090333E+03  0.91656401690E+02 0.  0.
        -13    1    3    3    0    0  0.22735916214E+02 -0.56523255617E+01  0.89539422384E+01  0.25080744645E+02  0.00000000000E+00 0.  1.
         13    1    3    3    0    0 -0.40739775891E+02  0.35634956370E+02  0.17177000081E+03  0.18009584291E+03  0.00000000000E+00 0. -1.
        -13    1    4    4    0    0  0.38130210693E+02  0.34329550805E+02 -0.13157720543E+03  0.14122673973E+03  0.00000000000E+00 0.  1.
         13    1    4    4    0    0  0.58903650383E+02  0.16518809034E+02 -0.14074250771E+02  0.62774163595E+02  0.00000000000E+00 0. -1.
          1    1    1    2  501    0 -0.79030001400E+02 -0.80830990647E+02 -0.44103209003E+02  0.12134448160E+03  0.00000000000E+00 0. -1.
<scales pt_clust_5="13000.00000" pt_clust_6="13000.00000" pt_clust_7="13000.00000" pt_clust_8="13000.00000" pt_clust_9="109.70968"></scales>
<clustering>
<clus scale="   90.627">  5  6 -1 -1</clus>
<clus scale="   91.656">  7  8 -1 -1</clus>
<clus scale="   97.141">  1  5  2 -1</clus>
<clus scale="  109.710">  2  9  1 -1</clus>
<clus scale="  109.710">  2  5  1 -1</clus>
</clustering>
</event>
<event>
 9    1  0.1321469E-005  0.1194496E+03  0.7546771E-02  0.1245469E+00
          2   -1    0    0  502    0 -0.00000000000E+00  0.00000000000E+00  0.52566284073E+03  0.52566284073E+03  0.00000000000E+00 0. -1.
         21   -1    0    0  501  502  0.00000000000E+00 -0.00000000000E+00 -0.19823766564E+03  0.19823766564E+03  0.00000000000E+00 0. -1.
         23    2    1    2    0    0  0.73698122252E+02 -0.40096546965E+01  0.41086162615E+03  0.42652687739E+03  0.87580881161E+02 0.  0.
         23    2    1    2    0    0 -0.84564613342E+02  0.37240559908E+02  0.64367607831E+02  0.14549073490E+03  0.92121288915E+02 0.  0.
        -11    1    4    4    0    0 -0.55578534241E+02  0.51183887953E+02  0.79731204847E+02  0.10984456691E+03  0.00000000000E+00 0.  1.
         11    1    4    4    0    0 -0.28986079101E+02 -0.13943328045E+02 -0.15363597016E+02  0.35646167983E+02  0.00000000000E+00 0. -1.
        -13    1    3    3    0    0  0.54978044821E+02 -0.43826004947E+02  0.23946138666E+03  0.24956974941E+03  0.00000000000E+00 0. -1.
         13    1    3    3    0    0  0.18720077431E+02  0.39816350251E+02  0.17140023949E+03  0.17695712798E+03  0.00000000000E+00 0.  1.
          2    1    1    2  501    0  0.10866491089E+02 -0.33230905212E+02 -0.14780405889E+03  0.15188289408E+03  0.00000000000E+00 0. -1.
<scales pt_clust_5="13000.00000" pt_clust_6="13000.00000" pt_clust_7="13000.00000" pt_clust_8="13000.00000" pt_clust_9="34.96246"></scales>
<clustering>
<clus scale="   34.962">  2  9  1 -1</clus>
<clus scale="   87.581">  7  8 -1 -1</clus>
<clus scale="   92.121">  5  6 -1 -1</clus>
<clus scale="  115.984">  1  7  2 -1</clus>
<clus scale="   34.962">  2  5  1 -1</clus>
</clustering>
</event>
<event>
 9    1  0.1321469E-005  0.1634008E+03  0.7546771E-02  0.1192113E+00
         21   -1    0    0  501  502  0.00000000000E+00  0.00000000000E+00  0.12684351317E+03  0.12684351317E+03  0.00000000000E+00 0.  1.
          1   -1    0    0  502    0 -0.00000000000E+00 -0.00000000000E+00 -0.51192480721E+03  0.51192480721E+03  0.00000000000E+00 0. -1.
         23    2    1    2    0    0  0.40892415632E+02  0.10353890627E+03 -0.35214575863E+03  0.37992468709E+03  0.89127087726E+02 0.  0.
         23    2    1    2    0    0 -0.10552295025E+03 -0.43052645225E+02 -0.16548294136E+02  0.16882010605E+03  0.12344131754E+03 0.  0.
        -11    1    3    3    0    0  0.68380037714E+02  0.69907022956E+02 -0.26690101009E+03  0.28425159736E+03  0.00000000000E+00 0. -1.
         11    1    3    3    0    0 -0.27487622082E+02  0.33631883318E+02 -0.85244748545E+02  0.95673089726E+02  0.00000000000E+00 0.  1.
        -13    1    4    4    0    0 -0.11580888486E+03 -0.60242171186E+02  0.15052017095E+02  0.13140540408E+03  0.00000000000E+00 0.  1.
         13    1    4    4    0    0  0.10285934614E+02  0.17189525960E+02 -0.31600311231E+02  0.37414701970E+02  0.00000000000E+00 0. -1.
          1    1    1    2  501    0  0.64630534616E+02 -0.60486261049E+02 -0.16387241272E+02  0.90023527241E+02  0.00000000000E+00 0. -1.
<scales pt_clust_5="13000.00000" pt_clust_6="13000.00000" pt_clust_7="13000.00000" pt_clust_8="13000.00000" pt_clust_9="88.51945"></scales>
<clustering>
<clus scale="   88.519">  1  9  2 -1</clus>
<clus scale="   89.127">  5  6 -1 -1</clus>
<clus scale="  123.441">  7  8 -1 -1</clus>
<clus scale="  139.304">  2  5  1 -1</clus>
<clus scale="   88.519">  1  5  2 -1</clus>
</clustering>
</event>
<event>
 9    1  0.1321469E-005  0.1092276E+03  0.7546771E-02  0.1262471E+00
         21   -1    0    0  501  502  0.00000000000E+00  0.00000000000E+00  0.21481633010E+03  0.21481633010E+03  0.00000000000E+00 0.  1.
          3   -1    0    0  502    0 -0.00000000000E+00 -0.00000000000E+00 -0.86927146748E+02  0.86927146748E+02  0.00000000000E+00 0. -1.
         23    2    1    2    0    0 -0.61334609456E+02  0.20272709596E+02  0.19354328802E+02  0.11416187290E+03  0.92116372648E+02 0.  0.
         23    2    1    2    0    0  0.42559272908E+02 -0.33165680980E+02  0.36237503455E+02  0.11178154492E+03  0.90943405597E+02 0.  0.
        -11    1    3    3    0    0  0.86676224715E+01 -0.26273504470E+02  0.10659539817E+02  0.29648785903E+02  0.00000000000E+00 0. -1.
         11    1    3    3    0    0 -0.70002231928E+02  0.46546214066E+02  0.86947889848E+01  0.84513087000E+02  0.00000000000E+00 0.  1.
        -13    1    4    4    0    0 -0.11472322715E+02 -0.18343557760E+02 -0.22078480901E+02  0.30912127372E+02  0.00000000000E+00 0.  1.
         13    1    4    4    0    0  0.54031595623E+02 -0.14822123220E+02  0.58315984356E+02  0.80869417543E+02  0.00000000000E+00 0. -1.
          3    1    1    2  501    0  0.18775336548E+02  0.12892971384E+02  0.72297351092E+02  0.75800059027E+02  0.00000000000E+00 0. -1.
<scales pt_clust_5="13000.00000" pt_clust_6="13000.00000" pt_clust_7="13000.00000" pt_clust_8="13000.00000" pt_clust_9="22.77591"></scales>
<clustering>
<clus scale="   22.776">  1  9  2 -1</clus>
<clus scale="   90.943">  7  8 -1 -1</clus>
<clus scale="   92.116">  5  6 -1 -1</clus>
<clus scale="  108.240">  1  7  2 -1</clus>
<clus scale="   22.776">  1  5  2 -1</clus>
</clustering>
</event>
<event>
 9    1  0.1321469E-005  0.1174072E+03  0.7546771E-02  0.1248561E+00
         21   -1    0    0  501  502  0.00000000000E+00  0.00000000000E+00  0.49863688830E+02  0.49863688830E+02  0.00000000000E+00 0. -1.
          4   -1    0    0  502    0 -0.00000000000E+00 -0.00000000000E+00 -0.52461599798E+03  0.52461599798E+03  0.00000000000E+00 0. -1.
         23    2    1    2    0    0  0.40692028094E+02 -0.53191916426E+02 -0.33349914969E+03  0.35238020033E+03  0.92004899975E+02 0.  0.
         23    2    1    2    0    0 -0.59398233373E+02  0.44419376138E+02 -0.15560460990E+03  0.19694310142E+03  0.95249984086E+02 0.  0.
        -11    1    3    3    0    0  0.36602988060E+02 -0.78607814030E+02 -0.23223712902E+03  0.24789725948E+03  0.00000000000E+00 0. -1.
         11    1    3    3    0    0  0.40890400338E+01  0.25415897605E+02 -0.10126202067E+03  0.10448294085E+03  0.00000000000E+00 0.  1.
        -13    1    4    4    0    0 -0.74494107703E+02  0.17203445904E+02 -0.62422485179E+02  0.98701050092E+02  0.00000000000E+00 0. -1.
         13    1    4    4    0    0  0.15095874330E+02  0.27215930234E+02 -0.93182124726E+02  0.98242051326E+02  0.00000000000E+00 0.  1.
          4    1    1    2  501    0  0.18706205279E+02  0.87725402876E+01  0.14351450449E+02  0.25156385055E+02  0.00000000000E+00 0. -1.
<scales pt_clust_5="13000.00000" pt_clust_6="13000.00000" pt_clust_7="13000.00000" pt_clust_8="13000.00000" pt_clust_9="20.66106"></scales>
<clustering>
<clus scale="   20.661">  1  9  2 -1</clus>
<clus scale="   92.005">  5  6 -1 -1</clus>
<clus scale="   95.250">  7  8 -1 -1</clus>
<clus scale="  114.790">  2  5  1 -1</clus>
<clus scale="   20.661">  1  5  2 -1</clus>
</clustering>
</event>
<event>
 9    1  0.1321469E-005  0.9370190E+02  0.7546771E-02  0.1294215E+00
         21   -1    0    0  501  502  0.00000000000E+00  0.00000000000E+00  0.12666826307E+03  0.12666826307E+03  0.00000000000E+00 0.  1.
          1   -1    0    0  502    0 -0.00000000000E+00 -0.00000000000E+00 -0.19906285702E+03  0.19906285702E+03  0.00000000000E+00 0. -1.
         23    2    1    2    0    0 -0.21751093174E+02 -0.27907784747E+01 -0.15106347449E+03  0.17744480897E+03  0.90474241677E+02 0.  0.
         23    2    1    2    0    0  0.31020355121E+02  0.20709956791E+02  0.42404497533E+02  0.10678785763E+03  0.90632998316E+02 0.  0.
        -11    1    4    4    0    0 -0.93264168035E+01 -0.30954241790E+02  0.16581180437E+02  0.36332942075E+02  0.00000000000E+00 0. -1.
         11    1    4    4    0    0  0.40346771924E+02  0.51664198581E+02  0.25823317096E+02  0.70454915553E+02  0.00000000000E+00 0.  1.
        -13    1    3    3    0    0 -0.15998537050E+02  0.31428292987E+02 -0.17350870470E+02  0.39303224981E+02  0.00000000000E+00 0.  1.
         13    1    3    3    0    0 -0.57525561240E+01 -0.34219071462E+02 -0.13371260401E+03  0.13814158399E+03  0.00000000000E+00 0. -1.
          1    1    1    2  501    0 -0.92692619467E+01 -0.17919178317E+02  0.36264382995E+02  0.41498453496E+02  0.00000000000E+00 0. -1.
<scales pt_clust_5="13000.00000" pt_clust_6="13000.00000" pt_clust_7="13000.00000" pt_clust_8="13000.00000" pt_clust_9="20.17464"></scales>
<clustering>
<clus scale="   20.175">  1  9  2 -1</clus>
<clus scale="   90.474">  7  8 -1 -1</clus>
<clus scale="   90.633">  5  6 -1 -1</clus>
<clus scale="   93.548">  2  7  1 -1</clus>
<clus scale="   20.175">  1  5  2 -1</clus>
</clustering>
</event>
<event>
 9    1  0.1321469E-005  0.9658931E+02  0.7546771E-02  0.1288333E+00
         21   -1    0    0  501  502  0.00000000000E+00  0.00000000000E+00  0.14335814932E+03  0.14335814932E+03  0.00000000000E+00 0.  1.
          1   -1    0    0  502    0 -0.00000000000E+00 -0.00000000000E+00 -0.26197290834E+03  0.26197290834E+03  0.00000000000E+00 0. -1.
         23    2    1    2    0    0  0.23823850096E+02  0.22764745511E+02 -0.22565752345E+03  0.24519996713E+03  0.90088270720E+02 0.  0.
         23    2    1    2    0    0 -0.53577220882E-01 -0.19432447565E+02  0.73573460627E+02  0.11894463184E+03  0.91417440608E+02 0.  0.
        -11    1    3    3    0    0 -0.20695440261E+02 -0.15726415977E+02 -0.24903137419E+02  0.35997050718E+02  0.00000000000E+00 0. -1.
         11    1    3    3    0    0  0.44519290357E+02  0.38491161488E+02 -0.20075438603E+03  0.20920291641E+03  0.00000000000E+00 0.  1.
        -13    1    4    4    0    0  0.45434573129E+02 -0.48911351573E+01  0.36707198561E+02  0.58614350332E+02  0.00000000000E+00 0.  1.
         13    1    4    4    0    0 -0.45488150350E+02 -0.14541312408E+02  0.36866262065E+02  0.60330281513E+02  0.00000000000E+00 0. -1.
          1    1    1    2  501    0 -0.23770272875E+02 -0.33322979461E+01  0.33469303795E+02  0.41186458681E+02  0.00000000000E+00 0. -1.
<scales pt_clust_5="13000.00000" pt_clust_6="13000.00000" pt_clust_7="13000.00000" pt_clust_8="13000.00000" pt_clust_9="24.00271"></scales>
<clustering>
<clus scale="   24.003">  1  9  2 -1</clus>
<clus scale="   90.088">  5  6 -1 -1</clus>
<clus scale="   91.417">  7  8 -1 -1</clus>
<clus scale="   95.332">  2  5  1 -1</clus>
<clus scale="   24.003">  1  5  2 -1</clus>
</clustering>
</event>
<event>
 9    1  0.1321469E-005  0.1295536E+03  0.7546771E-02  0.1229398E+00
         21   -1    0    0  501  502  0.00000000000E+00  0.00000000000E+00  0.39427918058E+02  0.39427918058E+02  0.00000000000E+00 0.  1.
         -1   -1    0    0    0  501 -0.00000000000E+00 -0.00000000000E+00 -0.89312556798E+03  0.89312556798E+03  0.00000000000E+00 0.  1.
         23    2    1    2    0    0  0.59655067647E+02  0.42647206354E+02 -0.46405359436E+03  0.48012469334E+03  0.98977125687E+02 0.  0.
         23    2    1    2    0    0 -0.59780317935E+02 -0.82220112863E+02 -0.38881505767E+03  0.41284700580E+03  0.94507501043E+02 0.  0.
        -11    1    4    4    0    0 -0.20888649000E+02  0.88934254752E+01 -0.17844794379E+02  0.28876726964E+02  0.00000000000E+00 0. -1.
         11    1    4    4    0    0 -0.38891668935E+02 -0.91113538339E+02 -0.37097026329E+03  0.38397027883E+03  0.00000000000E+00 0.  1.
        -11    1    3    3    0    0  0.87433258934E+02  0.36301109255E+02 -0.35308280204E+03  0.36555411418E+03  0.00000000000E+00 0.  1.
         11    1    3    3    0    0 -0.27778191287E+02  0.63460970989E+01 -0.11097079232E+03  0.11457057915E+03  0.00000000000E+00 0. -1.
         -1    1    1    2    0  502  0.12525028736E+00  0.39572906509E+02 -0.82899789726E+00  0.39581786907E+02  0.00000000000E+00 0.  1.
<scales pt_clust_5="13000.00000" pt_clust_6="13000.00000" pt_clust_7="13000.00000" pt_clust_8="13000.00000" pt_clust_9="39.57310"></scales>
<clustering>
<clus scale="   39.573">  1  9  2 -1</clus>
<clus scale="   94.508">  5  6 -1 -1</clus>
<clus scale="   98.977">  7  8 -1 -1</clus>
<clus scale="  126.172">  1  5  2 -1</clus>
<clus scale="   39.573">  1  5  2 -1</clus>
</clustering>
</event>
<event>
 9    1  0.1321469E-005  0.9740380E+02  0.7546771E-02  0.1286731E+00
          1   -1    0    0  502    0 -0.00000000000E+00  0.00000000000E+00  0.21702949919E+03  0.21702949919E+03  0.00000000000E+00 0. -1.
         21   -1    0    0  501  502  0.00000000000E+00 -0.00000000000E+00 -0.13719123743E+03  0.13719123743E+03  0.00000000000E+00 0. -1.
         23    2    1    2    0    0  0.46070175784E+01 -0.25518374061E+02  0.88645877332E+02  0.13096539154E+03  0.92851656888E+02 0.  0.
         23    2    1    2    0    0 -0.51504934997E+02  0.26035608957E+01  0.71964302445E+02  0.12708567179E+03  0.91172201292E+02 0.  0.
        -13    1    4    4    0    0  0.25158796489E+01  0.28455246187E+02 -0.55816233969E+01  0.29106446120E+02  0.00000000000E+00 0.  1.
         13    1    4    4    0    0 -0.54020814646E+02 -0.25851685292E+02  0.77545925842E+02  0.97979225666E+02  0.00000000000E+00 0. -1.
        -13    1    3    3    0    0  0.48464167422E+02 -0.14276739469E+02  0.54042495356E+02  0.73981025392E+02  0.00000000000E+00 0.  1.
         13    1    3    3    0    0 -0.43857149844E+02 -0.11241634592E+02  0.34603381976E+02  0.56984366145E+02  0.00000000000E+00 0. -1.
          1    1    1    2  501    0  0.46897917419E+02  0.22914813165E+02 -0.80771918019E+02  0.96169673292E+02  0.00000000000E+00 0. -1.
<scales pt_clust_5="13000.00000" pt_clust_6="13000.00000" pt_clust_7="13000.00000" pt_clust_8="13000.00000" pt_clust_9="52.19678"></scales>
<clustering>
<clus scale="   52.197">  2  9  1 -1</clus>
<clus scale="   91.172">  5  6 -1 -1</clus>
<clus scale="   92.852">  7  8 -1 -1</clus>
<clus scale="   95.804">  2  5  1 -1</clus>
<clus scale="   52.197">  2  5  1 -1</clus>
</clustering>
</event>
<event>
 9    1  0.1321469E-005  0.1361091E+03  0.7546771E-02  0.1221810E+00
         21   -1    0    0  501  502  0.00000000000E+00  0.00000000000E+00  0.12626491821E+03  0.12626491821E+03  0.00000000000E+00 0.  1.
          1   -1    0    0  502    0 -0.00000000000E+00 -0.00000000000E+00 -0.45055979939E+03  0.45055979939E+03  0.00000000000E+00 0. -1.
         23    2    1    2    0    0  0.19673093709E+02  0.88868324207E+02 -0.23610650702E+03  0.26528457915E+03  0.79655606280E+02 0.  0.
         23    2    1    2    0    0 -0.95327050035E+02 -0.94845653814E+02 -0.14359344726E+03  0.21757753044E+03  0.92940621585E+02 0.  0.
        -11    1    3    3    0    0  0.33638914027E+02  0.20571666758E+02 -0.36033937952E+02  0.53415491147E+02  0.00000000000E+00 0. -1.
         11    1    3    3    0    0 -0.13965820318E+02  0.68296657449E+02 -0.20007256907E+03  0.21186908800E+03  0.00000000000E+00 0.  1.
        -13    1    4    4    0    0 -0.16872812397E+00 -0.38173783447E+02 -0.82935464381E+02  0.91299274170E+02  0.00000000000E+00 0. -1.
         13    1    4    4    0    0 -0.95158321911E+02 -0.56671870367E+02 -0.60657982881E+02  0.12627825627E+03  0.00000000000E+00 0.  1.
          1    1    1    2  501    0  0.75653956326E+02  0.59773296064E+01  0.55405073107E+02  0.93962608005E+02  0.00000000000E+00 0. -1.
<scales pt_clust_5="13000.00000" pt_clust_6="13000.00000" pt_clust_7="13000.00000" pt_clust_8="13000.00000" pt_clust_9="75.88972"></scales>
<clustering>
<clus scale="   75.890">  1  9  2 -1</clus>
<clus scale="   79.656">  5  6 -1 -1</clus>
<clus scale="   92.941">  7  8 -1 -1</clus>
<clus scale="  127.408">  2  5  1 -1</clus>
<clus scale="   75.890">  1  5  2 -1</clus>
</clustering>
</event>
<event>
 9    1  0.1321469E-005  0.1618118E+03  0.7546771E-02  0.1186693E+00
          2   -1    0    0  502    0 -0.00000000000E+00  0.00000000000E+00  0.27464072517E+03  0.27464072517E+03  0.00000000000E+00 0. -1.
         21   -1    0    0  501  502  0.00000000000E+00 -0.00000000000E+00 -0.16244451756E+03  0.16244451756E+03  0.00000000000E+00 0.  1.
         23    2    1    2    0    0 -0.90373233621E+02  0.10889287575E+03  0.14968317069E+03  0.22589381499E+03  0.92725316492E+02 0.  0.
         23    2    1    2    0    0  0.89940240278E+02 -0.76175836047E+02  0.13650565188E+02  0.15048196417E+03  0.92555274255E+02 0.  0.
        -13    1    3    3    0    0 -0.61791816517E+02  0.19696344326E+02  0.10179040281E+03  0.12069573593E+03  0.00000000000E+00 0. -1.
         13    1    3    3    0    0 -0.28581417104E+02  0.89196531424E+02  0.47892767878E+02  0.10519807905E+03  0.00000000000E+00 0.  1.
        -13    1    4    4    0    0 -0.65083781211E+01 -0.34088322324E+02  0.27585016289E+02  0.44331769966E+02  0.00000000000E+00 0. -1.
         13    1    4    4    0    0  0.96448618399E+02 -0.42087513723E+02 -0.13934451102E+02  0.10615019421E+03  0.00000000000E+00 0.  1.
          2    1    1    2  501    0  0.43299334378E+00 -0.32717039703E+02 -0.51137528267E+02  0.60709463574E+02  0.00000000000E+00 0. -1.
<scales pt_clust_5="13000.00000" pt_clust_6="13000.00000" pt_clust_7="13000.00000" pt_clust_8="13000.00000" pt_clust_9="32.71990"></scales>
<clustering>
<clus scale="   32.720">  2  9  1 -1</clus>
<clus scale="   92.555">  7  8 -1 -1</clus>
<clus scale="   92.725">  5  6 -1 -1</clus>
<clus scale="  161.714">  2  7  1 -1</clus>
<clus scale="   32.720">  2  5  1 -1</clus>
</clustering>
</event>
<event>
 9    1  0.2511246E-005  0.1470611E+03  0.7546771E-02  0.1221378E+00
         21   -1    0    0  501  502  0.00000000000E+00  0.00000000000E+00  0.31171288488E+03  0.31171288488E+03  0.00000000000E+00 0. -1.
          2   -1    0    0  502    0 -0.00000000000E+00 -0.00000000000E+00 -0.58773086268E+03  0.58773086268E+03  0.00000000000E+00 0. -1.
         23    2    1    2    0    0  0.45019102752E+02  0.16098627946E+01 -0.29968098336E+03  0.31654098174E+03  0.91434074939E+02 0.  0.
         23    2    1    2    0    0 -0.13694942905E+02  0.11097253078E+03 -0.24834889741E+03  0.28685129447E+03  0.90022420800E+02 0.  0.
        -11    1    4    4    0    0  0.22773517636E+02  0.86608950819E+02 -0.21110058325E+03  0.22931026954E+03  0.00000000000E+00 0. -1.
         11    1    4    4    0    0 -0.36468460541E+02  0.24363579959E+02 -0.37248314163E+02  0.57541024936E+02  0.00000000000E+00 0.  1.
        -13    1    3    3    0    0 -0.17109508359E+02 -0.11574611564E+02 -0.16823940127E+02  0.26641168716E+02  0.00000000000E+00 0.  1.
         13    1    3    3    0    0  0.62128611111E+02  0.13184474358E+02 -0.28285704324E+03  0.28989981302E+03  0.00000000000E+00 0. -1.
          2    1    1    2  501    0 -0.31324159848E+02 -0.11258239357E+03  0.27201190297E+03  0.29605147135E+03  0.00000000000E+00 0. -1.
<scales pt_clust_5="13000.00000" pt_clust_6="13000.00000" pt_clust_7="13000.00000" pt_clust_8="13000.00000" pt_clust_9="116.28813"></scales>
<clustering>
<clus scale="   90.022">  5  6 -1 -1</clus>
<clus scale="   91.434">  7  8 -1 -1</clus>
<clus scale="  101.929">  2  7  1 -1</clus>
<clus scale="  116.288">  1  9  2 -1</clus>
<clus scale="  116.288">  1  5  2 -1</clus>
</clustering>
</event>
<event>
 9    1  0.1321469E-005  0.1508980E+03  0.7546771E-02  0.1200196E+00
         -2   -1    0    0    0  501 -0.00000000000E+00  0.00000000000E+00  0.56927592439E+03  0.56927592439E+03  0.00000000000E+00 0.  1.
         21   -1    0    0  501  502  0.00000000000E+00 -0.00000000000E+00 -0.17330013377E+03  0.17330013377E+03  0.00000000000E+00 0.  1.
         23    2    1    2    0    0  0.60358273887E+02  0.11273743916E+03  0.42150618815E+03  0.44996149799E+03  0.91896853123E+02 0.  0.
         23    2    1    2    0    0 -0.22143571400E+02 -0.10009956217E+03  0.95442163594E+02  0.16512165854E+03  0.87439667353E+02 0.  0.
        -11    1    3    3    0    0  0.77253954436E+02  0.63859649449E+02  0.21719592707E+03  0.23920764837E+03  0.00000000000E+00 0.  1.
         11    1    3    3    0    0 -0.16895680549E+02  0.48877789708E+02  0.20431026108E+03  0.21075384963E+03  0.00000000000E+00 0. -1.
        -13    1    4    4    0    0 -0.16194572192E+02  0.13247368694E+02  0.19132023832E+02  0.28351213055E+02  0.00000000000E+00 0.  1.
         13    1    4    4    0    0 -0.59489992083E+01 -0.11334693087E+03  0.76310139762E+02  0.13677044549E+03  0.00000000000E+00 0. -1.
         -2    1    1    2    0  502 -0.38214702486E+02 -0.12637876985E+02 -0.12097256113E+03  0.12749290163E+03  0.00000000000E+00 0.  1.
<scales pt_clust_5="13000.00000" pt_clust_6="13000.00000" pt_clust_7="13000.00000" pt_clust_8="13000.00000" pt_clust_9="40.25021"></scales>
<clustering>
<clus scale="   40.250">  2  9  1 -1</clus>
<clus scale="   87.440">  7  8 -1 -1</clus>
<clus scale="   91.897">  5  6 -1 -1</clus>
<clus scale="  148.226">  2  7  1 -1</clus>
<clus scale="   40.250">  2  5  1 -1</clus>
</clustering>
</event>
<event>
 9    1  0.1321469E-005  0.9725384E+02  0.7546771E-02  0.1286273E+00
         21   -1    0    0  501  502  0.00000000000E+00  0.00000000000E+00  0.10446865188E+03  0.10446865188E+03  0.00000000000E+00 0. -1.
          2   -1    0    0  502    0 -0.00000000000E+00 -0.00000000000E+00 -0.32454420409E+03  0.32454420409E+03  0.00000000000E+00 0. -1.
         23    2    1    2    0    0 -0.17403115153E+02  0.52084082261E+01 -0.18702418593E+03  0.20891653956E+03  0.91313079260E+02 0.  0.
         23    2    1    2    0    0  0.89543514950E+02 -0.14679193965E+02 -0.60769334563E+02  0.14223606448E+03  0.91129941345E+02 0.  0.
        -11    1    3    3    0    0 -0.18039994682E+01 -0.40356522233E+02 -0.11821910686E+03  0.12493062286E+03  0.00000000000E+00 0.  1.
         11    1    3    3    0    0 -0.15599115685E+02  0.45564930459E+02 -0.68805079072E+02  0.83985916700E+02  0.00000000000E+00 0. -1.
        -11    1    4    4    0    0  0.67229424528E+01  0.32448437606E+02 -0.18946916351E+02  0.38171778810E+02  0.00000000000E+00 0.  1.
         11    1    4    4    0    0  0.82820572497E+02 -0.47127631571E+02 -0.41822418212E+02  0.10406428567E+03  0.00000000000E+00 0. -1.
          2    1    1    2  501    0 -0.72140399797E+02  0.94707857389E+01  0.27717968283E+02  0.77860251933E+02  0.00000000000E+00 0. -1.
<scales pt_clust_5="13000.00000" pt_clust_6="13000.00000" pt_clust_7="13000.00000" pt_clust_8="13000.00000" pt_clust_9="72.75942"></scales>
<clustering>
<clus scale="   72.759">  1  9  2 -1</clus>
<clus scale="   91.130">  7  8 -1 -1</clus>
<clus scale="   91.313">  5  6 -1 -1</clus>
<clus scale="   97.082">  1  7  2 -1</clus>
<clus scale="   72.759">  1  5  2 -1</clus>
</clustering>
</event>
<event>
 9    1  0.1321469E-005  0.1182567E+03  0.7546771E-02  0.1246097E+00
          2   -1    0    0  502    0 -0.00000000000E+00  0.00000000000E+00  0.50394637286E+03  0.50394637286E+03  0.00000000000E+00 0. -1.
         21   -1    0    0  501  502  0.00000000000E+00 -0.00000000000E+00 -0.39841087338E+02  0.39841087338E+02  0.00000000000E+00 0.  1.
         23    2    1    2    0    0 -0.24561304968E+02 -0.66533357770E+02  0.30001613825E+03  0.32133447577E+03  0.90643348951E+02 0.  0.
         23    2    1    2    0    0  0.13514808486E+02  0.87334051691E+02  0.14295172101E+03  0.19080674072E+03  0.90344513558E+02 0.  0.
        -13    1    4    4    0    0  0.18137136318E+02 -0.11306336351E+02  0.53327132457E+02  0.57450604971E+02  0.00000000000E+00 0. -1.
         13    1    4    4    0    0 -0.46223278319E+01  0.98640388042E+02  0.89624588551E+02  0.13335613574E+03  0.00000000000E+00 0.  1.
        -13    1    3    3    0    0  0.21897915027E+02 -0.29634805597E+02  0.21206972759E+03  0.21524708998E+03  0.00000000000E+00 0. -1.
         13    1    3    3    0    0 -0.46459219995E+02 -0.36898552174E+02  0.87946410655E+02  0.10608738578E+03  0.00000000000E+00 0.  1.
          2    1    1    2  501    0  0.11046496483E+02 -0.20800693921E+02  0.21137426265E+02  0.31646243714E+02  0.00000000000E+00 0. -1.
<scales pt_clust_5="13000.00000" pt_clust_6="13000.00000" pt_clust_7="13000.00000" pt_clust_8="13000.00000" pt_clust_9="23.55194"></scales>
<clustering>
<clus scale="   23.552">  2  9  1 -1</clus>
<clus scale="   90.345">  5  6 -1 -1</clus>
<clus scale="   90.643">  7  8 -1 -1</clus>
<clus scale="  118.028">  2  5  1 -1</clus>
<clus scale="   23.552">  2  5  1 -1</clus>
</clustering>
</event>
<event>
 9    1  0.1321469E-005  0.9360664E+02  0.7546771E-02  0.1294758E+00
         21   -1    0    0  501  502  0.00000000000E+00  0.00000000000E+00  0.70359650633E+03  0.70359650633E+03  0.00000000000E+00 0. -1.
         -1   -1    0    0    0  501 -0.00000000000E+00 -0.00000000000E+00 -0.13177074932E+03  0.13177074932E+03  0.00000000000E+00 0.  1.
         23    2    1    2    0    0  0.16234821168E+02  0.74886701227E+01 -0.97794353049E+02  0.13523554808E+03  0.91680250753E+02 0.  0.
         23    2    1    2    0    0 -0.93633631710E+01 -0.80834929882E+02  0.50896498697E+03  0.52339190070E+03  0.90949245732E+02 0.  0.
        -11    1    3    3    0    0 -0.32189208249E+02 -0.10562533847E+02 -0.66997834915E+02  0.75076108931E+02  0.00000000000E+00 0.  1.
         11    1    3    3    0    0  0.48424029417E+02  0.18051203970E+02 -0.30796518134E+02  0.60159439150E+02  0.00000000000E+00 0. -1.
        -11    1    4    4    0    0  0.37751896973E+02 -0.19667433325E+02  0.23168008335E+03  0.23555821930E+03  0.00000000000E+00 0.  1.
         11    1    4    4    0    0 -0.47115260144E+02 -0.61167496557E+02  0.27728490362E+03  0.28783368141E+03  0.00000000000E+00 0. -1.
         -1    1    1    2    0  502 -0.68714579969E+01  0.73346259759E+02  0.16065512309E+03  0.17673980687E+03  0.00000000000E+00 0.  1.
<scales pt_clust_5="13000.00000" pt_clust_6="13000.00000" pt_clust_7="13000.00000" pt_clust_8="13000.00000" pt_clust_9="73.66743"></scales>
<clustering>
<clus scale="   73.667">  1  9  2 -1</clus>
<clus scale="   90.949">  7  8 -1 -1</clus>
<clus scale="   91.680">  5  6 -1 -1</clus>
<clus scale="   92.891">  1  7  2 -1</clus>
<clus scale="   73.667">  1  5  2 -1</clus>
</clustering>
</event>
<event>
 9    1  0.1321469E-005  0.9620701E+02  0.7546771E-02  0.1289962E+00
         21   -1    0    0  501  502  0.00000000000E+00  0.00000000000E+00  0.23303430701E+03  0.23303430701E+03  0.00000000000E+00 0. -1.
          1   -1    0    0  502    0 -0.00000000000E+00 -0.00000000000E+00 -0.79139773309E+02  0.79139773309E+02  0.00000000000E+00 0. -1.
         23    2    1    2    0    0  0.43953595924E+01  0.14317538909E+02  0.23222746992E+02  0.96827572300E+02  0.92800709444E+02 0.  0.
         23    2    1    2    0    0 -0.52218995782E+02 -0.25536575479E+02  0.12684819780E+03  0.16607596112E+03  0.90065639220E+02 0.  0.
        -11    1    4    4    0    0 -0.25226776357E+02  0.14444052252E+00 -0.77704314475E+01  0.26396793618E+02  0.00000000000E+00 0. -1.
         11    1    4    4    0    0 -0.26992219425E+02 -0.25681016001E+02  0.13461862925E+03  0.13967916750E+03  0.00000000000E+00 0.  1.
        -13    1    3    3    0    0  0.24211472371E+02 -0.29131796633E+02 -0.93567267751E+01  0.39018012576E+02  0.00000000000E+00 0.  1.
         13    1    3    3    0    0 -0.19816112778E+02  0.43449335541E+02  0.32579473767E+02  0.57809559725E+02  0.00000000000E+00 0. -1.
          1    1    1    2  501    0  0.47823636189E+02  0.11219036570E+02  0.38235889085E+01  0.49270546902E+02  0.00000000000E+00 0. -1.
<scales pt_clust_5="13000.00000" pt_clust_6="13000.00000" pt_clust_7="13000.00000" pt_clust_8="13000.00000" pt_clust_9="49.12198"></scales>
<clustering>
<clus scale="   49.122">  1  9  2 -1</clus>
<clus scale="   90.066">  5  6 -1 -1</clus>
<clus scale="   92.801">  7  8 -1 -1</clus>
<clus scale="   93.572">  1  5  2 -1</clus>
<clus scale="   49.122">  1  5  2 -1</clus>
</clustering>
</event>
<event>
 9    1  0.1321469E-005  0.1233021E+03  0.7546771E-02  0.1238820E+00
          3   -1    0    0  502    0 -0.00000000000E+00  0.00000000000E+00  0.62573130260E+03  0.62573130260E+03  0.00000000000E+00 0. -1.
         21   -1    0    0  501  502  0.00000000000E+00 -0.00000000000E+00 -0.32828200789E+02  0.32828200789E+02  0.00000000000E+00 0.  1.
         23    2    1    2    0    0  0.66830514648E+02  0.31380587113E+02  0.26769993286E+03  0.29284553271E+03  0.92974152530E+02 0.  0.
         23    2    1    2    0    0 -0.90949908404E+02 -0.19442209651E+02  0.20257878671E+03  0.24017111293E+03  0.89409805431E+02 0.  0.
        -11    1    4    4    0    0 -0.59296663356E+02  0.32381015445E+02  0.11931512058E+03  0.13711572647E+03  0.00000000000E+00 0. -1.
         11    1    4    4    0    0 -0.31653245048E+02 -0.51823225096E+02  0.83263666132E+02  0.10305538646E+03  0.00000000000E+00 0.  1.
        -11    1    3    3    0    0  0.61593099187E+02  0.62140689489E+02  0.19456103603E+03  0.21332878826E+03  0.00000000000E+00 0. -1.
         11    1    3    3    0    0  0.52374154606E+01 -0.30760102376E+02  0.73138896823E+02  0.79516744447E+02  0.00000000000E+00 0.  1.
          3    1    1    2  501    0  0.24119393756E+02 -0.11938377462E+02  0.12262438225E+03  0.12554285776E+03  0.00000000000E+00 0. -1.
<scales pt_clust_5="13000.00000" pt_clust_6="13000.00000" pt_clust_7="13000.00000" pt_clust_8="13000.00000" pt_clust_9="26.91228"></scales>
<clustering>
<clus scale="   26.912">  2  9  1 -1</clus>
<clus scale="   89.410">  5  6 -1 -1</clus>
<clus scale="   92.974">  7  8 -1 -1</clus>
<clus scale="  120.637">  2  5  1 -1</clus>
<clus scale="   26.912">  2  5  1 -1</clus>
</clustering>
</event>
<event>
 9    1  0.1321469E-005  0.1626825E+03  0.7546771E-02  0.1199484E+00
          2   -1    0    0  502    0 -0.00000000000E+00  0.00000000000E+00  0.84110610612E+03  0.84110610612E+03  0.00000000000E+00 0. -1.
         21   -1    0    0  501  502  0.00000000000E+00 -0.00000000000E+00 -0.68620979142E+02  0.68620979142E+02  0.00000000000E+00 0. -1.
         23    2    1    2    0    0  0.50944879290E+00  0.77996489066E+02  0.38356727342E+03  0.40194094423E+03  0.91372630271E+02 0.  0.
         23    2    1    2    0    0 -0.13261633484E+03 -0.53255891601E+02  0.12184476577E+03  0.20880058833E+03  0.91259281644E+02 0.  0.
        -11    1    3    3    0    0  0.31073061497E+02  0.11202749388E+02  0.46965884244E+02  0.57418037475E+02  0.00000000000E+00 0. -1.
         11    1    3    3    0    0 -0.30563612704E+02  0.66793739678E+02  0.33660138918E+03  0.34452290676E+03  0.00000000000E+00 0.  1.
        -13    1    4    4    0    0 -0.32868848797E+02  0.19894320244E+02  0.58078136055E+02  0.69636305810E+02  0.00000000000E+00 0.  1.
         13    1    4    4    0    0 -0.99747486042E+02 -0.73150211845E+02  0.63766629710E+02  0.13916428252E+03  0.00000000000E+00 0. -1.
          2    1    1    2  501    0  0.13210688605E+03 -0.24740597465E+02  0.26707308779E+03  0.29898555270E+03  0.00000000000E+00 0. -1.
<scales pt_clust_5="13000.00000" pt_clust_6="13000.00000" pt_clust_7="13000.00000" pt_clust_8="13000.00000" pt_clust_9="134.67506"></scales>
<clustering>
<clus scale="   91.259">  7  8 -1 -1</clus>
<clus scale="   91.373">  5  6 -1 -1</clus>
<clus scale="  120.136">  1  5  2 -1</clus>
<clus scale="  134.675">  2  9  1 -1</clus>
<clus scale="  134.675">  2  5  1 -1</clus>
</clustering>
</event>
<event>
 9    1  0.1321469E-005  0.9207114E+02  0.7546771E-02  0.1308665E+00
         21   -1    0    0  501  502  0.00000000000E+00  0.00000000000E+00  0.33867603029E+03  0.33867603029E+03  0.00000000000E+00 0.  1.
          4   -1    0    0  502    0 -0.00000000000E+00 -0.00000000000E+00 -0.33684487877E+02  0.33684487877E+02  0.00000000000E+00 0. -1.
         23    2    1    2    0    0 -0.67818694496E+01 -0.46686036790E+01  0.55435446979E+02  0.93039622062E+02  0.74266364379E+02 0.  0.
         23    2    1    2    0    0  0.33072125956E+02  0.48389374897E+01  0.21551030138E+03  0.23630551869E+03  0.90985863381E+02 0.  0.
        -11    1    3    3    0    0 -0.36625180258E+02  0.86073282960E+01  0.45202464714E+02  0.58811161743E+02  0.00000000000E+00 0. -1.
         11    1    3    3    0    0  0.29843310808E+02 -0.13275931975E+02  0.10232982265E+02  0.34228460319E+02  0.00000000000E+00 0.  1.
        -13    1    4    4    0    0  0.49737654855E+02  0.36040072020E+02  0.13065888409E+03  0.14437612370E+03  0.00000000000E+00 0.  1.
         13    1    4    4    0    0 -0.16665528899E+02 -0.31201134531E+02  0.84851417282E+02  0.91929394996E+02  0.00000000000E+00 0. -1.
          4    1    1    2  501    0 -0.26290256507E+02 -0.17033381074E+00  0.34045794057E+02  0.43015377411E+02  0.00000000000E+00 0. -1.
<scales pt_clust_5="13000.00000" pt_clust_6="13000.00000" pt_clust_7="13000.00000" pt_clust_8="13000.00000" pt_clust_9="26.29082"></scales>
<clustering>
<clus scale="   26.291">  1  9  2 -1</clus>
<clus scale="   74.266">  5  6 -1 -1</clus>
<clus scale="   75.592">  2  5  1 -1</clus>
<clus scale="   90.986">  7  8 -1 -1</clus>
<clus scale="   26.291">  1  5  2 -1</clus>
</clustering>
</event>
<event>
 9    1  0.1321469E-005  0.9396239E+02  0.7546771E-02  0.1294213E+00
          2   -1    0    0  502    0 -0.00000000000E+00  0.00000000000E+00  0.57133920790E+03  0.57133920790E+03  0.00000000000E+00 0. -1.
         21   -1    0    0  501  502  0.00000000000E+00 -0.00000000000E+00 -0.76081390186E+02  0.76081390186E+02  0.00000000000E+00 0. -1.
         23    2    1    2    0    0 -0.12571758723E+01  0.15672164062E+02  0.28720398014E+03  0.30186390877E+03  0.91588732873E+02 0.  0.
         23    2    1    2    0    0  0.32382912036E+02  0.25784155258E+02  0.25569944141E+03  0.27514687872E+03  0.92790758587E+02 0.  0.
        -13    1    3    3    0    0 -0.37270213188E+02 -0.19353484708E+02  0.14932870969E+03  0.15512153203E+03  0.00000000000E+00 0.  1.
         13    1    3    3    0    0  0.36013037316E+02  0.35025648770E+02  0.13787527045E+03  0.14674237674E+03  0.00000000000E+00 0. -1.
        -13    1    4    4    0    0 -0.22467802638E+02  0.12828309956E+02  0.19720780626E+02  0.32531167828E+02  0.00000000000E+00 0.  1.
         13    1    4    4    0    0  0.54850714674E+02  0.12955845302E+02  0.23597866078E+03  0.24261571090E+03  0.00000000000E+00 0. -1.
          2    1    1    2  501    0 -0.31125736164E+02 -0.41456319320E+02 -0.47645603837E+02  0.70409810597E+02  0.00000000000E+00 0. -1.
<scales pt_clust_5="13000.00000" pt_clust_6="13000.00000" pt_clust_7="13000.00000" pt_clust_8="13000.00000" pt_clust_9="51.84050"></scales>
<clustering>
<clus scale="   51.841">  2  9  1 -1</clus>
<clus scale="   91.589">  5  6 -1 -1</clus>
<clus scale="   92.776">  1  5  2 -1</clus>
<clus scale="   92.791">  7  8 -1 -1</clus>
<clus scale="   51.841">  2  5  1 -1</clus>
</clustering>
</event>
<event>
 9    1  0.1321469E-005  0.9014435E+02  0.7546771E-02  0.1302615E+00
         21   -1    0    0  501  502  0.00000000000E+00  0.00000000000E+00  0.22499837418E+03  0.22499837418E+03  0.00000000000E+00 0. -1.
          3   -1    0    0  502    0 -0.00000000000E+00 -0.00000000000E+00 -0.26931157855E+03  0.26931157855E+03  0.00000000000E+00 0. -1.
         23    2    1    2    0    0 -0.29645105445E+02 -0.18685517458E+02 -0.12372324132E+03  0.15683520539E+03  0.89787863145E+02 0.  0.
         23    2    1    2    0    0 -0.54592244706E+02 -0.12885157282E+02 -0.95545051129E+02  0.14074670787E+03  0.86801143544E+02 0.  0.
        -13    1    3    3    0    0 -0.40607023506E+02 -0.40772447945E+02 -0.11835133956E+03  0.13159924941E+03  0.00000000000E+00 0. -1.
         13    1    3    3    0    0  0.10961918061E+02  0.22086930487E+02 -0.53719017628E+01  0.25235955985E+02  0.00000000000E+00 0.  1.
        -13    1    4    4    0    0 -0.53600740121E+02 -0.45684170792E+02 -0.62173695911E+02  0.93944937414E+02  0.00000000000E+00 0. -1.
         13    1    4    4    0    0 -0.99150458501E+00  0.32799013511E+02 -0.33371355217E+02  0.46801770454E+02  0.00000000000E+00 0.  1.
          3    1    1    2  501    0  0.84237350151E+02  0.31570674740E+02  0.17495508808E+03  0.19672803946E+03  0.00000000000E+00 0. -1.
<scales pt_clust_5="13000.00000" pt_clust_6="13000.00000" pt_clust_7="13000.00000" pt_clust_8="13000.00000" pt_clust_9="89.95909"></scales>
<clustering>
<clus scale="   86.801">  7  8 -1 -1</clus>
<clus scale="   89.788">  5  6 -1 -1</clus>
<clus scale="   89.959">  1  9  2 -1</clus>
<clus scale="   89.959">  1  7  2 -1</clus>
<clus scale="   89.959">  1  5  2 -1</clus>
</clustering>
</event>
<event>
 9    1  0.1321469E-005  0.1042873E+03  0.7546771E-02  0.1271588E+00
          2   -1    0    0  502    0 -0.00000000000E+00  0.00000000000E+00  0.76398954823E+02  0.76398954823E+02  0.00000000000E+00 0. -1.
         21   -1    0    0  501  502  0.00000000000E+00 -0.00000000000E+00 -0.32662237134E+03  0.32662237134E+03  0.00000000000E+00 0. -1.
         23    2    1    2    0    0 -0.29384267632E+02 -0.14310123044E+02 -0.35537714351E+02  0.10574517858E+03  0.94079215798E+02 0.  0.
         23    2    1    2    0    0  0.74715165758E+02 -0.44590918177E+02 -0.10953367380E+03  0.16850824766E+03  0.93950507480E+02 0.  0.
        -11    1    4    4    0    0  0.37674184125E+02  0.56326512861E+01 -0.97870302816E+02  0.10502222185E+03  0.00000000000E+00 0.  1.
         11    1    4    4    0    0  0.37040981633E+02 -0.50223569463E+02 -0.11663370981E+02  0.63486025805E+02  0.00000000000E+00 0. -1.
        -11    1    3    3    0    0 -0.45177266595E+02 -0.38150510716E+02  0.12573275472E+01  0.59144126991E+02  0.00000000000E+00 0.  1.
         11    1    3    3    0    0  0.15792998964E+02  0.23840387672E+02 -0.36795041898E+02  0.46601051586E+02  0.00000000000E+00 0. -1.
          2    1    1    2  501    0 -0.45330898126E+02  0.58901041221E+02 -0.10515202837E+03  0.12876789993E+03  0.00000000000E+00 0. -1.
<scales pt_clust_5="13000.00000" pt_clust_6="13000.00000" pt_clust_7="13000.00000" pt_clust_8="13000.00000" pt_clust_9="74.32512"></scales>
<clustering>
<clus scale="   74.325">  2  9  1 -1</clus>
<clus scale="   93.951">  5  6 -1 -1</clus>
<clus scale="   94.079">  7  8 -1 -1</clus>
<clus scale="  104.171">  2  5  1 -1</clus>
<clus scale="   74.325">  2  5  1 -1</clus>
</clustering>
</event>
<event>
 9    1  0.1321469E-005  0.1177887E+03  0.7546771E-02  0.1248382E+00
          1   -1    0    0  502    0 -0.00000000000E+00  0.00000000000E+00  0.33708692584E+03  0.33708692584E+03  0.00000000000E+00 0. -1.
         21   -1    0    0  501  502  0.00000000000E+00 -0.00000000000E+00 -0.52788112157E+02  0.52788112157E+02  0.00000000000E+00 0.  1.
         23    2    1    2    0    0  0.73286384835E+02 -0.72455911348E+01  0.15063882733E+03  0.19025209279E+03  0.89891099218E+02 0.  0.
         23    2    1    2    0    0 -0.60637910804E+02  0.31192820237E+02  0.86198944638E+02  0.14497860279E+03  0.94544111137E+02 0.  0.
        -11    1    3    3    0    0  0.62710672734E+02  0.26531110398E+02  0.52667888622E+02  0.86083882264E+02  0.00000000000E+00 0. -1.
         11    1    3    3    0    0  0.10575712101E+02 -0.33776701532E+02  0.97970938712E+02  0.10416821053E+03  0.00000000000E+00 0.  1.
        -13    1    4    4    0    0 -0.37676668372E+02  0.22890680176E+02 -0.10438636999E+02  0.45304301352E+02  0.00000000000E+00 0.  1.
         13    1    4    4    0    0 -0.22961242431E+02  0.83021400607E+01  0.96637581637E+02  0.99674301443E+02  0.00000000000E+00 0. -1.
          1    1    1    2  501    0 -0.12648474032E+02 -0.23947229102E+02  0.47461041713E+02  0.54644342410E+02  0.00000000000E+00 0. -1.
<scales pt_clust_5="13000.00000" pt_clust_6="13000.00000" pt_clust_7="13000.00000" pt_clust_8="13000.00000" pt_clust_9="27.08236"></scales>
<clustering>
<clus scale="   27.082">  2  9  1 -1</clus>
<clus scale="   89.891">  5  6 -1 -1</clus>
<clus scale="   94.544">  7  8 -1 -1</clus>
<clus scale="  114.088">  1  5  2 -1</clus>
<clus scale="   27.082">  2  5  1 -1</clus>
</clustering>
</event>
<event>
 9    1  0.1321469E-005  0.2095564E+03  0.7546771E-02  0.1167371E+00
          3   -1    0    0  502    0 -0.00000000000E+00  0.00000000000E+00  0.11553839507E+03  0.11553839507E+03  0.00000000000E+00 0. -1.
         21   -1    0    0  501  502  0.00000000000E+00 -0.00000000000E+00 -0.10907561436E+04  0.10907561436E+04  0.00000000000E+00 0. -1.
         23    2    1    2    0    0  0.70158096453E+02  0.34744410414E+01 -0.34641647648E+03  0.36507236882E+03  0.91319379454E+02 0.  0.
         23    2    1    2    0    0 -0.13245804926E+03  0.17137580902E+03 -0.59514070100E+02  0.24243855921E+03  0.91212541472E+02 0.  0.
        -13    1    3    3    0    0  0.15188784515E+01 -0.34654456863E+02 -0.13980997504E+03  0.14404883718E+03  0.00000000000E+00 0.  1.
         13    1    3    3    0    0  0.68639218002E+02  0.38128897905E+02 -0.20660650144E+03  0.22102353165E+03  0.00000000000E+00 0. -1.
        -13    1    4    4    0    0 -0.14273577204E+03  0.14226137157E+03 -0.63536545086E+02  0.21130236871E+03  0.00000000000E+00 0. -1.
         13    1    4    4    0    0  0.10277722787E+02  0.29114437449E+02  0.40224749863E+01  0.31136190497E+02  0.00000000000E+00 0.  1.
          3    1    1    2  501    0  0.62299952805E+02 -0.17485025006E+03 -0.56928720194E+03  0.59878361063E+03  0.00000000000E+00 0. -1.
<scales pt_clust_5="13000.00000" pt_clust_6="13000.00000" pt_clust_7="13000.00000" pt_clust_8="13000.00000" pt_clust_9="188.66419"></scales>
<clustering>
<clus scale="   91.213">  7  8 -1 -1</clus>
<clus scale="   91.319">  5  6 -1 -1</clus>
<clus scale="  115.211">  1  5  2 -1</clus>
<clus scale="  188.664">  2  9  1 -1</clus>
<clus scale="  188.664">  2  5  1 -1</clus>
</clustering>
</event>
<event>
 9    1  0.1321469E-005  0.1930849E+03  0.7546771E-02  0.1156174E+00
          2   -1    0    0  502    0 -0.00000000000E+00  0.00000000000E+00  0.66294606946E+03  0.66294606946E+03  0.00000000000E+00 0. -1.
         21   -1    0    0  501  502  0.00000000000E+00 -0.00000000000E+00 -0.25724768249E+03  0.25724768249E+03  0.00000000000E+00 0. -1.
         23    2    1    2    0    0 -0.24146921281E+02 -0.17030541523E+03  0.60557264126E+03  0.63658644778E+03  0.94536095693E+02 0.  0.
         23    2    1    2    0    0  0.19622975704E+02  0.12376693372E+03 -0.15038534226E+03  0.21552317417E+03  0.90173013583E+02 0.  0.
        -11    1    4    4    0    0  0.13827098430E+01  0.33036382860E+02 -0.10943653416E+03  0.11432265518E+03  0.00000000000E+00 0. -1.
         11    1    4    4    0    0  0.18240265861E+02  0.90730550859E+02 -0.40948808100E+02  0.10120051898E+03  0.00000000000E+00 0.  1.
        -13    1    3    3    0    0  0.15726127521E+02 -0.13681154408E+03  0.35749545832E+03  0.38310274392E+03  0.00000000000E+00 0. -1.
         13    1    3    3    0    0 -0.39873048802E+02 -0.33493871145E+02  0.24807718295E+03  0.25348370386E+03  0.00000000000E+00 0.  1.
          2    1    1    2  501    0  0.45239455773E+01  0.46538481508E+02 -0.49488912028E+02  0.68084130003E+02  0.00000000000E+00 0. -1.
<scales pt_clust_5="13000.00000" pt_clust_6="13000.00000" pt_clust_7="13000.00000" pt_clust_8="13000.00000" pt_clust_9="46.75785"></scales>
<clustering>
<clus scale="   46.758">  2  9  1 -1</clus>
<clus scale="   90.173">  5  6 -1 -1</clus>
<clus scale="   94.536">  7  8 -1 -1</clus>
<clus scale="  190.987">  2  5  1 -1</clus>
<clus scale="   46.758">  2  5  1 -1</clus>
</clustering>
</event>
<event>
 9    1  0.1321469E-005  0.1768400E+03  0.7546771E-02  0.1171552E+00
         21   -1    0    0  501  502  0.00000000000E+00  0.00000000000E+00  0.10291780191E+03  0.10291780191E+03  0.00000000000E+00 0. -1.
          1   -1    0    0  502    0 -0.00000000000E+00 -0.00000000000E+00 -0.49702314474E+03  0.49702314474E+03  0.00000000000E+00 0. -1.
         23    2    1    2    0    0 -0.11606240907E+03 -0.86445947376E+02 -0.26930503154E+03  0.31877365364E+03  0.90266591985E+02 0.  0.
         23    2    1    2    0    0  0.14193676216E+03  0.69796312403E+02 -0.15273106095E+03  0.23961227803E+03  0.95234957467E+02 0.  0.
        -13    1    3    3    0    0 -0.90965761885E+02 -0.10148053686E+03 -0.24655594038E+03  0.28171421855E+03  0.00000000000E+00 0.  1.
         13    1    3    3    0    0 -0.25096647183E+02  0.15034589484E+02 -0.22749091156E+02  0.37059435090E+02  0.00000000000E+00 0. -1.
        -13    1    4    4    0    0  0.10342060917E+03  0.62960803683E+02 -0.15914959067E+03  0.19997119146E+03  0.00000000000E+00 0. -1.
         13    1    4    4    0    0  0.38516152994E+02  0.68355087197E+01  0.64185297192E+01  0.39641086572E+02  0.00000000000E+00 0.  1.
          1    1    1    2  501    0 -0.25874353097E+02  0.16649634973E+02  0.27930749657E+02  0.41555014972E+02  0.00000000000E+00 0. -1.
<scales pt_clust_5="13000.00000" pt_clust_6="13000.00000" pt_clust_7="13000.00000" pt_clust_8="13000.00000" pt_clust_9="30.76837"></scales>
<clustering>
<clus scale="   30.768">  1  9  2 -1</clus>
<clus scale="   90.267">  5  6 -1 -1</clus>
<clus scale="   95.235">  7  8 -1 -1</clus>
<clus scale="  174.215">  2  5  1 -1</clus>
<clus scale="   30.768">  1  5  2 -1</clus>
</clustering>
</event>
<event>
 9    1  0.1321469E-005  0.1231434E+03  0.7546771E-02  0.1239261E+00
          2   -1    0    0  502    0 -0.00000000000E+00  0.00000000000E+00  0.18286238256E+03  0.18286238256E+03  0.00000000000E+00 0. -1.
         21   -1    0    0  501  502  0.00000000000E+00 -0.00000000000E+00 -0.21326801981E+03  0.21326801981E+03  0.00000000000E+00 0.  1.
         23    2    1    2    0    0  0.72747408718E+01  0.60860624326E+02  0.70867967870E+02  0.13106299285E+03  0.91642248867E+02 0.  0.
         23    2    1    2    0    0 -0.30301620014E+02 -0.12166892121E+03 -0.17028092326E+02  0.15864752153E+03  0.95695170175E+02 0.  0.
        -11    1    4    4    0    0 -0.26469331614E+01 -0.10675379493E+03  0.21502360813E+02  0.10892993393E+03  0.00000000000E+00 0. -1.
         11    1    4    4    0    0 -0.27654686853E+02 -0.14915126281E+02 -0.38530453138E+02  0.49717587592E+02  0.00000000000E+00 0.  1.
        -13    1    3    3    0    0 -0.39797992466E+02  0.10985849323E+02  0.31983349114E+02  0.52225508233E+02  0.00000000000E+00 0.  1.
         13    1    3    3    0    0  0.47072733337E+02  0.49874775003E+02  0.38884618756E+02  0.78837484620E+02  0.00000000000E+00 0. -1.
          2    1    1    2  501    0  0.23026879143E+02  0.60808296882E+02 -0.84245512798E+02  0.10641988799E+03  0.00000000000E+00 0. -1.
<scales pt_clust_5="13000.00000" pt_clust_6="13000.00000" pt_clust_7="13000.00000" pt_clust_8="13000.00000" pt_clust_9="65.02220"></scales>
<clustering>
<clus scale="   65.022">  2  9  1 -1</clus>
<clus scale="   91.642">  7  8 -1 -1</clus>
<clus scale="   95.695">  5  6 -1 -1</clus>
<clus scale="  120.021">  1  7  2 -1</clus>
<clus scale="   65.022">  2  5  1 -1</clus>
</clustering>
</event>
<event>
 9    1  0.1321469E-005  0.1063598E+03  0.7546771E-02  0.1267675E+00
         21   -1    0    0  501  502  0.00000000000E+00  0.00000000000E+00  0.26865179335E+03  0.26865179335E+03  0.00000000000E+00 0. -1.
          1   -1    0    0  502    0 -0.00000000000E+00 -0.00000000000E+00 -0.76114868272E+02  0.76114868272E+02  0.00000000000E+00 0. -1.
         23    2    1    2    0    0 -0.58131218810E+02  0.10218616397E+02 -0.21049875290E+01  0.10905379581E+03  0.91676827426E+02 0.  0.
         23    2    1    2    0    0  0.36784206295E+02  0.57154491649E+01  0.18034616567E+03  0.20548113134E+03  0.91170234581E+02 0.  0.
        -11    1    3    3    0    0 -0.14504434656E+02 -0.28432681606E+02 -0.30563228410E+02  0.44191706676E+02  0.00000000000E+00 0.  1.
         11    1    3    3    0    0 -0.43626784153E+02  0.38651298003E+02  0.28458240881E+02  0.64862089135E+02  0.00000000000E+00 0. -1.
        -11    1    4    4    0    0  0.64906538875E+02 -0.92576378524E+01  0.13478885028E+03  0.14988861467E+03  0.00000000000E+00 0.  1.
         11    1    4    4    0    0 -0.28122332580E+02  0.14973087017E+02  0.45557315395E+02  0.55592516678E+02  0.00000000000E+00 0. -1.
          1    1    1    2  501    0  0.21347012514E+02 -0.15934065562E+02  0.14295746938E+02  0.30231734471E+02  0.00000000000E+00 0. -1.
<scales pt_clust_5="13000.00000" pt_clust_6="13000.00000" pt_clust_7="13000.00000" pt_clust_8="13000.00000" pt_clust_9="26.63813"></scales>
<clustering>
<clus scale="   26.638">  1  9  2 -1</clus>
<clus scale="   91.170">  7  8 -1 -1</clus>
<clus scale="   91.677">  5  6 -1 -1</clus>
<clus scale="  105.923">  1  7  2 -1</clus>
<clus scale="   26.638">  1  5  2 -1</clus>
</clustering>
</event>
<event>
 9    1  0.1321469E-005  0.9688024E+02  0.7546771E-02  0.1287718E+00
         21   -1    0    0  501  502  0.00000000000E+00  0.00000000000E+00  0.34044233520E+02  0.34044233520E+02  0.00000000000E+00 0.  1.
         -1   -1    0    0    0  501 -0.00000000000E+00 -0.00000000000E+00 -0.47284945137E+03  0.47284945137E+03  0.00000000000E+00 0.  1.
         23    2    1    2    0    0 -0.19579267515E+02 -0.15839260441E+02 -0.29125989978E+03  0.30597148949E+03  0.90288389494E+02 0.  0.
         23    2    1    2    0    0  0.29631823631E+02  0.33849578713E+02 -0.14856193959E+03  0.18027131242E+03  0.91669281842E+02 0.  0.
        -11    1    4    4    0    0 -0.31317898735E+01  0.55411206825E+02 -0.52026034932E+02  0.76071796747E+02  0.00000000000E+00 0.  1.
         11    1    4    4    0    0  0.32763613505E+02 -0.21561628111E+02 -0.96535904661E+02  0.10419951567E+03  0.00000000000E+00 0. -1.
        -13    1    3    3    0    0  0.35774563857E+02  0.89590049690E-01 -0.98823432869E+02  0.10509946874E+03  0.00000000000E+00 0.  1.
         13    1    3    3    0    0 -0.55353831372E+02 -0.15928850491E+02 -0.19243646691E+03  0.20087202075E+03  0.00000000000E+00 0. -1.
         -1    1    1    2    0  502 -0.10052556116E+02 -0.18010318272E+02  0.10166215169E+01  0.20650882984E+02  0.00000000000E+00 0.  1.
<scales pt_clust_5="13000.00000" pt_clust_6="13000.00000" pt_clust_7="13000.00000" pt_clust_8="13000.00000" pt_clust_9="20.62584"></scales>
<clustering>
<clus scale="   20.626">  1  9  2 -1</clus>
<clus scale="   90.288">  7  8 -1 -1</clus>
<clus scale="   91.669">  5  6 -1 -1</clus>
<clus scale="   95.575">  2  7  1 -1</clus>
<clus scale="   20.626">  1  5  2 -1</clus>
</clustering>
</event>
<event>
 9    1  0.1321469E-005  0.2463720E+03  0.7546771E-02  0.1115881E+00
         21   -1    0    0  501  502  0.00000000000E+00  0.00000000000E+00  0.39523054674E+03  0.39523054674E+03  0.00000000000E+00 0. -1.
         -1   -1    0    0    0  501 -0.00000000000E+00 -0.00000000000E+00 -0.31288444329E+03  0.31288444329E+03  0.00000000000E+00 0.  1.
         23    2    1    2    0    0 -0.19057396653E+03 -0.11410597768E+03 -0.76580894364E+02  0.25220145678E+03  0.91664227241E+02 0.  0.
         23    2    1    2    0    0  0.22951860701E+03  0.10517738882E+03  0.24409210431E+03  0.36184175169E+03  0.87220546866E+02 0.  0.
        -11    1    3    3    0    0 -0.70481239157E+02 -0.73596294639E+01  0.67788610332E+01  0.71187935606E+02  0.00000000000E+00 0. -1.
         11    1    3    3    0    0 -0.12009272737E+03 -0.10674634822E+03 -0.83359755397E+02  0.18101352117E+03  0.00000000000E+00 0.  1.
        -11    1    4    4    0    0  0.11627025906E+03  0.59123005160E+01  0.10162002196E+03  0.15453270626E+03  0.00000000000E+00 0.  1.
         11    1    4    4    0    0  0.11324834795E+03  0.99265088304E+02  0.14247208234E+03  0.20730904543E+03  0.00000000000E+00 0. -1.
         -1    1    1    2    0  502 -0.38944640482E+02  0.89285888626E+01 -0.85165106502E+02  0.94071781565E+02  0.00000000000E+00 0.  1.
<scales pt_clust_5="13000.00000" pt_clust_6="13000.00000" pt_clust_7="13000.00000" pt_clust_8="13000.00000" pt_clust_9="39.95505"></scales>
<clustering>
<clus scale="   39.955">  1  9  2 -1</clus>
<clus scale="   87.221">  7  8 -1 -1</clus>
<clus scale="   91.664">  5  6 -1 -1</clus>
<clus scale="  244.753">  1  7  2 -1</clus>
<clus scale="   39.955">  1  5  2 -1</clus>
</clustering>
</event>
<event>
 9    1  0.1321469E-005  0.1012327E+03  0.7546771E-02  0.1278788E+00
         -1   -1    0    0    0  501 -0.00000000000E+00  0.00000000000E+00  0.53390561618E+03  0.53390561618E+03  0.00000000000E+00 0.  1.
         21   -1    0    0  501  502  0.00000000000E+00 -0.00000000000E+00 -0.33899051592E+02  0.33899051592E+02  0.00000000000E+00 0. -1.
         23    2    1    2    0    0  0.12411984012E+02 -0.31545105938E+02  0.34302655937E+03  0.35692824744E+03  0.92635858792E+02 0.  0.
         23    2    1    2    0    0 -0.14253951590E+02  0.56513605887E+02  0.15054534058E+03  0.18502639628E+03  0.90409650832E+02 0.  0.
        -11    1    3    3    0    0  0.45310504146E+02 -0.16386175261E+02  0.28098640303E+03  0.28508754307E+03  0.00000000000E+00 0.  1.
         11    1    3    3    0    0 -0.32898520134E+02 -0.15158930677E+02  0.62040156339E+02  0.71840704373E+02  0.00000000000E+00 0. -1.
        -13    1    4    4    0    0 -0.23352089818E+02  0.79302278155E+02  0.10944089376E+03  0.13715495123E+03  0.00000000000E+00 0. -1.
         13    1    4    4    0    0  0.90981382282E+01 -0.22788672268E+02  0.41104446820E+02  0.47871445052E+02  0.00000000000E+00 0.  1.
         -1    1    1    2    0  502  0.18419675780E+01 -0.24968499949E+02  0.64346646350E+01  0.25850024046E+02  0.00000000000E+00 0.  1.
<scales pt_clust_5="13000.00000" pt_clust_6="13000.00000" pt_clust_7="13000.00000" pt_clust_8="13000.00000" pt_clust_9="25.03635"></scales>
<clustering>
<clus scale="   25.036">  2  9  1 -1</clus>
<clus scale="   90.410">  7  8 -1 -1</clus>
<clus scale="   92.636">  5  6 -1 -1</clus>
<clus scale="   99.200">  2  7  1 -1</clus>
<clus scale="   25.036">  2  5  1 -1</clus>
</clustering>
</event>
<event>
 9    1  0.1321469E-005  0.1123492E+03  0.7546771E-02  0.1257952E+00
         21   -1    0    0  501  502  0.00000000000E+00  0.00000000000E+00  0.42177963526E+03  0.42177963526E+03  0.00000000000E+00 0. -1.
          1   -1    0    0  502    0 -0.00000000000E+00 -0.00000000000E+00 -0.82244674459E+02  0.82244674459E+02  0.00000000000E+00 0. -1.
         23    2    1    2    0    0 -0.23195702734E+02  0.45797012779E+02 -0.10186131569E+02  0.10951229833E+03  0.96196565452E+02 0.  0.
         23    2    1    2    0    0  0.65013939676E+02 -0.71548463451E+02  0.25048900664E+03  0.28379205388E+03  0.91908609075E+02 0.  0.
        -11    1    4    4    0    0 -0.20224269819E+02 -0.64401670780E+01  0.76575005517E+02  0.79462118721E+02  0.00000000000E+00 0.  1.
         11    1    4    4    0    0  0.85238209495E+02 -0.65108296373E+02  0.17391400113E+03  0.20432993516E+03  0.00000000000E+00 0. -1.
        -11    1    3    3    0    0 -0.27327210431E+02  0.74142119873E+02 -0.15104215892E+02  0.80448540738E+02  0.00000000000E+00 0. -1.
         11    1    3    3    0    0  0.41315076973E+01 -0.28345107094E+02  0.49180843229E+01  0.29063757593E+02  0.00000000000E+00 0.  1.
          1    1    1    2  501    0 -0.41818236942E+02  0.25751450672E+02  0.99232085732E+02  0.11071995751E+03  0.00000000000E+00 0. -1.
<scales pt_clust_5="13000.00000" pt_clust_6="13000.00000" pt_clust_7="13000.00000" pt_clust_8="13000.00000" pt_clust_9="49.11112"></scales>
<clustering>
<clus scale="   49.111">  1  9  2 -1</clus>
<clus scale="   91.909">  5  6 -1 -1</clus>
<clus scale="   96.197">  7  8 -1 -1</clus>
<clus scale="  108.700">  1  5  2 -1</clus>
<clus scale="   49.111">  1  5  2 -1</clus>
</clustering>
</event>
<event>
 9    1  0.1321469E-005  0.1073185E+03  0.7546771E-02  0.1265643E+00
         -2   -1    0    0    0  501 -0.00000000000E+00  0.00000000000E+00  0.73002115906E+02  0.73002115906E+02  0.00000000000E+00 0.  1.
         21   -1    0    0  501  502  0.00000000000E+00 -0.00000000000E+00 -0.22491854736E+03  0.22491854736E+03  0.00000000000E+00 0. -1.
         23    2    1    2    0    0  0.16361567948E+02 -0.47950413216E+02 -0.53984152925E+02  0.11718663962E+03  0.90837639251E+02 0.  0.
         23    2    1    2    0    0 -0.50597077679E+02  0.45105852236E+02 -0.55816530284E+02  0.12638424992E+03  0.90900447745E+02 0.  0.
        -11    1    4    4    0    0 -0.31308592732E+02  0.55315230368E+02  0.30178978732E+01  0.63632620542E+02  0.00000000000E+00 0.  1.
         11    1    4    4    0    0 -0.19288484947E+02 -0.10209378132E+02 -0.58834428157E+02  0.62751629381E+02  0.00000000000E+00 0. -1.
        -11    1    3    3    0    0 -0.38855048910E+01 -0.59400259590E+02 -0.67727709131E+02  0.90169454760E+02  0.00000000000E+00 0.  1.
         11    1    3    3    0    0  0.20247072839E+02  0.11449846374E+02  0.13743556206E+02  0.27017184859E+02  0.00000000000E+00 0. -1.
         -2    1    1    2    0  502  0.34235509732E+02  0.28445609803E+01 -0.42115748249E+02  0.54349773728E+02  0.00000000000E+00 0.  1.
<scales pt_clust_5="13000.00000" pt_clust_6="13000.00000" pt_clust_7="13000.00000" pt_clust_8="13000.00000" pt_clust_9="34.35348"></scales>
<clustering>
<clus scale="   34.353">  2  9  1 -1</clus>
<clus scale="   90.838">  7  8 -1 -1</clus>
<clus scale="   90.900">  5  6 -1 -1</clus>
<clus scale="  107.265">  1  7  2 -1</clus>
<clus scale="   34.353">  2  5  1 -1</clus>
</clustering>
</event>
<event>
 9    1  0.1321469E-005  0.1209774E+03  0.7546771E-02  0.1242050E+00
         21   -1    0    0  501  502  0.00000000000E+00  0.00000000000E+00  0.35039236379E+03  0.35039236379E+03  0.00000000000E+00 0. -1.
          1   -1    0    0  502    0 -0.00000000000E+00 -0.00000000000E+00 -0.65799948939E+02  0.65799948939E+02  0.00000000000E+00 0. -1.
         23    2    1    2    0    0  0.43204586387E+02 -0.33184137749E+02  0.10149272701E+03  0.14631475666E+03  0.90218684861E+02 0.  0.
         23    2    1    2    0    0 -0.94382909768E+02  0.51804690473E+02  0.11344100283E+03  0.18145652822E+03  0.92009515270E+02 0.  0.
        -11    1    4    4    0    0 -0.29714419118E+02  0.41774746593E+02  0.10318219429E+03  0.11521562991E+03  0.00000000000E+00 0.  1.
         11    1    4    4    0    0 -0.64668490650E+02  0.10029943880E+02  0.10258808543E+02  0.66240898317E+02  0.00000000000E+00 0. -1.
        -11    1    3    3    0    0  0.61756684086E+02 -0.14633484974E+01  0.87247683182E+02  0.10690270174E+03  0.00000000000E+00 0. -1.
         11    1    3    3    0    0 -0.18552097699E+02 -0.31720789252E+02  0.14245043831E+02  0.39412054926E+02  0.00000000000E+00 0.  1.
          1    1    1    2  501    0  0.51178323380E+02 -0.18620552724E+02  0.69658685009E+02  0.88421027844E+02  0.00000000000E+00 0. -1.
<scales pt_clust_5="13000.00000" pt_clust_6="13000.00000" pt_clust_7="13000.00000" pt_clust_8="13000.00000" pt_clust_9="54.46050"></scales>
<clustering>
<clus scale="   54.460">  1  9  2 -1</clus>
<clus scale="   90.219">  7  8 -1 -1</clus>
<clus scale="   92.010">  5  6 -1 -1</clus>
<clus scale="  119.621">  2  7  1 -1</clus>
<clus scale="   54.460">  1  5  2 -1</clus>
</clustering>
</event>
<event>
 9    1  0.1321469E-005  0.9167525E+02  0.7546771E-02  0.1299211E+00
          2   -1    0    0  502    0 -0.00000000000E+00  0.00000000000E+00  0.14460243229E+03  0.14460243229E+03  0.00000000000E+00 0. -1.
         21   -1    0    0  501  502  0.00000000000E+00 -0.00000000000E+00 -0.10388861675E+03  0.10388861675E+03  0.00000000000E+00 0. -1.
         23    2    1    2    0    0 -0.11518903524E+02 -0.12972007077E+02  0.22241765528E+02  0.95424786974E+02  0.91160494345E+02 0.  0.
         23    2    1    2    0    0 -0.13249975721E+02 -0.33208992669E+02  0.24325214570E+02  0.10033636872E+03  0.90538786022E+02 0.  0.
        -11    1    4    4    0    0 -0.28664141639E+02 -0.56516811321E+02  0.12527389662E+00  0.63370329582E+02  0.00000000000E+00 0. -1.
         11    1    4    4    0    0  0.15414165918E+02  0.23307818652E+02  0.24199940673E+02  0.36966039142E+02  0.00000000000E+00 0.  1.
        -13    1    3    3    0    0  0.26037453163E+02  0.82793021987E+01 -0.20905053053E+02  0.34402282705E+02  0.00000000000E+00 0.  1.
         13    1    3    3    0    0 -0.37556356687E+02 -0.21251309276E+02  0.43146818582E+02  0.61022504269E+02  0.00000000000E+00 0. -1.
          2    1    1    2  501    0  0.24768879244E+02  0.46180999746E+02 -0.58531645618E+01  0.52729893343E+02  0.00000000000E+00 0. -1.
<scales pt_clust_5="13000.00000" pt_clust_6="13000.00000" pt_clust_7="13000.00000" pt_clust_8="13000.00000" pt_clust_9="52.40403"></scales>
<clustering>
<clus scale="   52.404">  2  9  1 -1</clus>
<clus scale="   90.539">  5  6 -1 -1</clus>
<clus scale="   91.057">  2  5  1 -1</clus>
<clus scale="   91.160">  7  8 -1 -1</clus>
<clus scale="   52.404">  2  5  1 -1</clus>
</clustering>
</event>
<event>
 9    1  0.1321469E-005  0.3022857E+03  0.7546771E-02  0.1085159E+00
         21   -1    0    0  501  502  0.00000000000E+00  0.00000000000E+00  0.48131050679E+03  0.48131050679E+03  0.00000000000E+00 0.  1.
          1   -1    0    0  502    0 -0.00000000000E+00 -0.00000000000E+00 -0.53849554142E+03  0.53849554142E+03  0.00000000000E+00 0. -1.
         23    2    1    2    0    0  0.25227595748E+03 -0.10970808735E+03 -0.38074715400E+03  0.48284659123E+03  0.11177393361E+03 0.  0.
         23    2    1    2    0    0 -0.27183136923E+03  0.14906048700E+03  0.14491182123E+03  0.35298403875E+03  0.86527299709E+02 0.  0.
        -11    1    3    3    0    0  0.20539497580E+02 -0.54571216013E+02 -0.64937463280E+02  0.87274066682E+02  0.00000000000E+00 0.  1.
         11    1    3    3    0    0  0.23173645990E+03 -0.55136871334E+02 -0.31580969072E+03  0.39557252455E+03  0.00000000000E+00 0. -1.
        -13    1    4    4    0    0 -0.19591697031E+03  0.12748778222E+03  0.69577741887E+02  0.24388041339E+03  0.00000000000E+00 0.  1.
         13    1    4    4    0    0 -0.75914398923E+02  0.21572704785E+02  0.75334079344E+02  0.10910362536E+03  0.00000000000E+00 0. -1.
          1    1    1    2  501    0  0.19555411753E+02 -0.39352399654E+02  0.17865029814E+03  0.18397541823E+03  0.00000000000E+00 0. -1.
<scales pt_clust_5="13000.00000" pt_clust_6="13000.00000" pt_clust_7="13000.00000" pt_clust_8="13000.00000" pt_clust_9="43.94344"></scales>
<clustering>
<clus scale="   43.943">  1  9  2 -1</clus>
<clus scale="   86.527">  7  8 -1 -1</clus>
<clus scale="  111.774">  5  6 -1 -1</clus>
<clus scale="  293.888">  1  7  2 -1</clus>
<clus scale="   43.943">  1  5  2 -1</clus>
</clustering>
</event>
<event>
 9    1  0.1321469E-005  0.1559727E+03  0.7546771E-02  0.1193421E+00
         21   -1    0    0  501  502  0.00000000000E+00  0.00000000000E+00  0.64058514061E+02  0.64058514061E+02  0.00000000000E+00 0.  1.
         -3   -1    0    0    0  501 -0.00000000000E+00 -0.00000000000E+00 -0.59265377738E+03  0.59265377738E+03  0.00000000000E+00 0.  1.
         23    2    1    2    0    0  0.62134948971E+02  0.10690382223E+03 -0.40647701836E+03  0.43460995884E+03  0.91504485022E+02 0.  0.
         23    2    1    2    0    0 -0.83524580618E+02 -0.10636998101E+03 -0.11537255451E+03  0.19966785761E+03  0.90914787585E+02 0.  0.
        -13    1    3    3    0    0  0.30916702390E+02 -0.96644281006E+01 -0.10480413317E+03  0.10969571545E+03  0.00000000000E+00 0. -1.
         13    1    3    3    0    0  0.31218246580E+02  0.11656825033E+03 -0.30167288519E+03  0.32491424340E+03  0.00000000000E+00 0.  1.
        -13    1    4    4    0    0  0.18938567033E+02 -0.10965417822E+02 -0.82631688722E+01  0.23392085608E+02  0.00000000000E+00 0. -1.
         13    1    4    4    0    0 -0.10246314765E+03 -0.95404563185E+02 -0.10710938564E+03  0.17627577200E+03  0.00000000000E+00 0.  1.
         -3    1    1    2    0  502  0.21389631648E+02 -0.53384121804E+00 -0.67456904499E+01  0.22434474991E+02  0.00000000000E+00 0.  1.
<scales pt_clust_5="13000.00000" pt_clust_6="13000.00000" pt_clust_7="13000.00000" pt_clust_8="13000.00000" pt_clust_9="21.39629"></scales>
<clustering>
<clus scale="   21.396">  1  9  2 -1</clus>
<clus scale="   90.915">  7  8 -1 -1</clus>
<clus scale="   91.504">  5  6 -1 -1</clus>
<clus scale="  155.627">  1  7  2 -1</clus>
<clus scale="   21.396">  1  5  2 -1</clus>
</clustering>
</event>
<event>
 9    1  0.1321469E-005  0.1328151E+03  0.7546771E-02  0.1223406E+00
         21   -1    0    0  501  502  0.00000000000E+00  0.00000000000E+00  0.12159213664E+03  0.12159213664E+03  0.00000000000E+00 0. -1.
         -1   -1    0    0    0  501 -0.00000000000E+00 -0.00000000000E+00 -0.19100641295E+03  0.19100641295E+03  0.00000000000E+00 0.  1.
         23    2    1    2    0    0 -0.39144354426E+02  0.82359744172E+02 -0.44175799112E+02  0.13775753933E+03  0.93328615508E+02 0.  0.
         23    2    1    2    0    0  0.60246799229E+02 -0.77893421462E+02 -0.47424548897E+02  0.14389778817E+03  0.93597134994E+02 0.  0.
        -11    1    4    4    0    0  0.42957915461E+02  0.89854674071E+01 -0.31185509021E+02  0.53839178097E+02  0.00000000000E+00 0.  1.
         11    1    4    4    0    0  0.17288883769E+02 -0.86878888869E+02 -0.16239039876E+02  0.90058610078E+02  0.00000000000E+00 0. -1.
        -13    1    3    3    0    0 -0.56282920364E+02  0.12119479194E+02 -0.13005079641E+02  0.59023563067E+02  0.00000000000E+00 0.  1.
         13    1    3    3    0    0  0.17138565938E+02  0.70240264977E+02 -0.31170719471E+02  0.78733976267E+02  0.00000000000E+00 0. -1.
         -1    1    1    2    0  502 -0.21102444803E+02 -0.44663227096E+01  0.22186071695E+02  0.30943222076E+02  0.00000000000E+00 0.  1.
<scales pt_clust_5="13000.00000" pt_clust_6="13000.00000" pt_clust_7="13000.00000" pt_clust_8="13000.00000" pt_clust_9="21.56991"></scales>
<clustering>
<clus scale="   21.570">  1  9  2 -1</clus>
<clus scale="   93.329">  7  8 -1 -1</clus>
<clus scale="   93.597">  5  6 -1 -1</clus>
<clus scale="  132.626">  2  7  1 -1</clus>
<clus scale="   21.570">  1  5  2 -1</clus>
</clustering>
</event>
<event>
 9    1  0.1321469E-005  0.1070074E+03  0.7546771E-02  0.1267661E+00
          2   -1    0    0  502    0 -0.00000000000E+00  0.00000000000E+00  0.43521609854E+02  0.43521609854E+02  0.00000000000E+00 0. -1.
         21   -1    0    0  501  502  0.00000000000E+00 -0.00000000000E+00 -0.47892202117E+03  0.47892202117E+03  0.00000000000E+00 0.  1.
         23    2    1    2    0    0  0.59715437677E+02  0.81284678014E+00 -0.64648181606E+02  0.12798770378E+03  0.92924005063E+02 0.  0.
         23    2    1    2    0    0 -0.33965442198E+02  0.23199992313E+02 -0.25090006176E+03  0.26953907141E+03  0.89490664988E+02 0.  0.
        -11    1    3    3    0    0  0.56834161018E+02 -0.38647094690E+02 -0.52854164711E+02  0.86702263603E+02  0.00000000000E+00 0.  1.
         11    1    3    3    0    0  0.28812766594E+01  0.39459941470E+02 -0.11794016895E+02  0.41285440176E+02  0.00000000000E+00 0. -1.
        -13    1    4    4    0    0  0.16147780041E+02 -0.22788895723E+02 -0.47911210447E+02  0.55457809684E+02  0.00000000000E+00 0.  1.
         13    1    4    4    0    0 -0.50113222239E+02  0.45988888036E+02 -0.20298885131E+03  0.21408126172E+03  0.00000000000E+00 0. -1.
          2    1    1    2  501    0 -0.25749995479E+02 -0.24012839093E+02 -0.11985216795E+03  0.12491685583E+03  0.00000000000E+00 0. -1.
<scales pt_clust_5="13000.00000" pt_clust_6="13000.00000" pt_clust_7="13000.00000" pt_clust_8="13000.00000" pt_clust_9="35.20907"></scales>
<clustering>
<clus scale="   35.209">  2  9  1 -1</clus>
<clus scale="   89.491">  7  8 -1 -1</clus>
<clus scale="   92.924">  5  6 -1 -1</clus>
<clus scale="  104.040">  2  7  1 -1</clus>
<clus scale="   35.209">  2  5  1 -1</clus>
</clustering>
</event>
<event>
 9    1  0.1321469E-005  0.9521634E+02  0.7546771E-02  0.1291580E+00
          2   -1    0    0  502    0 -0.00000000000E+00  0.00000000000E+00  0.45414371611E+03  0.45414371611E+03  0.00000000000E+00 0. -1.
         21   -1    0    0  501  502  0.00000000000E+00 -0.00000000000E+00 -0.83358337920E+02  0.83358337920E+02  0.00000000000E+00 0. -1.
         23    2    1    2    0    0 -0.11447384030E+01  0.15024105104E+02  0.32461627981E+03  0.33766533308E+03  0.91733929828E+02 0.  0.
         23    2    1    2    0    0  0.20905977510E+02 -0.26749004607E+02  0.10022401353E+03  0.14110075504E+03  0.93338100707E+02 0.  0.
        -13    1    4    4    0    0  0.15247127591E+02  0.33745403338E+02  0.26338529068E+02  0.45441668760E+02  0.00000000000E+00 0. -1.
         13    1    4    4    0    0  0.56588499194E+01 -0.60494407946E+02  0.73885484458E+02  0.95659086284E+02  0.00000000000E+00 0.  1.
        -13    1    3    3    0    0 -0.81798183785E+01 -0.34405234837E+02  0.72649936477E+02  0.80800017841E+02  0.00000000000E+00 0.  1.
         13    1    3    3    0    0  0.70350799755E+01  0.49429339941E+02  0.25196634334E+03  0.25686531524E+03  0.00000000000E+00 0. -1.
          2    1    1    2  501    0 -0.19761239107E+02  0.11724899504E+02 -0.54054915150E+02  0.58735965909E+02  0.00000000000E+00 0. -1.
<scales pt_clust_5="13000.00000" pt_clust_6="13000.00000" pt_clust_7="13000.00000" pt_clust_8="13000.00000" pt_clust_9="22.97781"></scales>
<clustering>
<clus scale="   22.978">  2  9  1 -1</clus>
<clus scale="   91.734">  7  8 -1 -1</clus>
<clus scale="   93.338">  5  6 -1 -1</clus>
<clus scale="   93.644">  1  7  2 -1</clus>
<clus scale="   22.978">  2  5  1 -1</clus>
</clustering>
</event>
<event>
 9    1  0.1321469E-005  0.1246902E+03  0.7546771E-02  0.1235729E+00
         21   -1    0    0  501  502  0.00000000000E+00  0.00000000000E+00  0.10364729946E+03  0.10364729946E+03  0.00000000000E+00 0.  1.
          2   -1    0    0  502    0 -0.00000000000E+00 -0.00000000000E+00 -0.20419686873E+03  0.20419686873E+03  0.00000000000E+00 0. -1.
         23    2    1    2    0    0  0.28842703906E+02  0.69007006333E+02 -0.54614343054E+02  0.12961473837E+03  0.90682883963E+02 0.  0.
         23    2    1    2    0    0 -0.56950980394E+02 -0.79760900526E+02 -0.57804549839E+02  0.14587819660E+03  0.91290015006E+02 0.  0.
        -11    1    3    3    0    0 -0.30175524419E+02  0.44218713880E+02 -0.25067488276E+02  0.59112062218E+02  0.00000000000E+00 0.  1.
         11    1    3    3    0    0  0.59018228325E+02  0.24788292453E+02 -0.29546854778E+02  0.70502676152E+02  0.00000000000E+00 0. -1.
        -13    1    4    4    0    0 -0.78289098164E+02 -0.79181684589E+02 -0.40810104958E+02  0.11859336715E+03  0.00000000000E+00 0.  1.
         13    1    4    4    0    0  0.21338117770E+02 -0.57921593697E+00 -0.16994444880E+02  0.27284829445E+02  0.00000000000E+00 0. -1.
          2    1    1    2  501    0  0.28108276488E+02  0.10753894193E+02  0.11869323627E+02  0.32351233219E+02  0.00000000000E+00 0. -1.
<scales pt_clust_5="13000.00000" pt_clust_6="13000.00000" pt_clust_7="13000.00000" pt_clust_8="13000.00000" pt_clust_9="30.09521"></scales>
<clustering>
<clus scale="   30.095">  1  9  2 -1</clus>
<clus scale="   90.683">  5  6 -1 -1</clus>
<clus scale="   91.290">  7  8 -1 -1</clus>
<clus scale="  124.246">  2  5  1 -1</clus>
<clus scale="   30.095">  1  5  2 -1</clus>
</clustering>
</event>
<event>
 9    1  0.1321469E-005  0.1217559E+03  0.7546771E-02  0.1240238E+00
         -3   -1    0    0    0  501 -0.00000000000E+00  0.00000000000E+00  0.43067465625E+02  0.43067465625E+02  0.00000000000E+00 0.  1.
         21   -1    0    0  501  502  0.00000000000E+00 -0.00000000000E+00 -0.67692330333E+03  0.67692330333E+03  0.00000000000E+00 0. -1.
         23    2    1    2    0    0  0.25695399085E+02  0.81596905386E+02 -0.78460061005E+02  0.14752248488E+03  0.91041715000E+02 0.  0.
         23    2    1    2    0    0 -0.16151997791E+02 -0.62196603336E+02 -0.38835173108E+03  0.40403087313E+03  0.91074556881E+02 0.  0.
        -11    1    3    3    0    0  0.55866151555E+02  0.75779912656E+02 -0.57261964918E+02  0.11019326058E+03  0.00000000000E+00 0.  1.
         11    1    3    3    0    0 -0.30170752470E+02  0.58169927296E+01 -0.21198096087E+02  0.37329224299E+02  0.00000000000E+00 0. -1.
        -13    1    4    4    0    0 -0.54009246267E+02 -0.42643430899E+02 -0.23461138184E+03  0.24449531973E+03  0.00000000000E+00 0. -1.
         13    1    4    4    0    0  0.37857248476E+02 -0.19553172437E+02 -0.15374034924E+03  0.15953555340E+03  0.00000000000E+00 0.  1.
         -3    1    1    2    0  502 -0.95434012940E+01 -0.19400302050E+02 -0.16704404562E+03  0.16843741094E+03  0.00000000000E+00 0.  1.
<scales pt_clust_5="13000.00000" pt_clust_6="13000.00000" pt_clust_7="13000.00000" pt_clust_8="13000.00000" pt_clust_9="21.62055"></scales>
<clustering>
<clus scale="   21.621">  2  9  1 -1</clus>
<clus scale="   91.042">  5  6 -1 -1</clus>
<clus scale="   91.075">  7  8 -1 -1</clus>
<clus scale="  121.731">  1  5  2 -1</clus>
<clus scale="   21.621">  2  5  1 -1</clus>
</clustering>
</event>
<event>
 9    1  0.1321469E-005  0.1019728E+03  0.7546771E-02  0.1277102E+00
         21   -1    0    0  501  502  0.00000000000E+00  0.00000000000E+00  0.87952109539E+02  0.87952109539E+02  0.00000000000E+00 0. -1.
          1   -1    0    0  502    0 -0.00000000000E+00 -0.00000000000E+00 -0.34028411964E+03  0.34028411964E+03  0.00000000000E+00 0. -1.
         23    2    1    2    0    0  0.40529777539E+02  0.15787977828E+02 -0.19756086425E+03  0.22156543774E+03  0.90382658770E+02 0.  0.
         23    2    1    2    0    0 -0.27782430476E+02 -0.39137141104E+02 -0.10626105556E+03  0.14871486780E+03  0.92309916679E+02 0.  0.
        -11    1    3    3    0    0 -0.23309882914E+02 -0.12343609660E+02 -0.29343992754E+02  0.39456118052E+02  0.00000000000E+00 0.  1.
         11    1    3    3    0    0  0.63839660453E+02  0.28131587489E+02 -0.16821687150E+03  0.18210931969E+03  0.00000000000E+00 0. -1.
        -13    1    4    4    0    0 -0.38181971445E+02  0.14594139067E+02 -0.75701662391E+02  0.86032514361E+02  0.00000000000E+00 0. -1.
         13    1    4    4    0    0  0.10399540968E+02 -0.53731280171E+02 -0.30559393173E+02  0.62682353435E+02  0.00000000000E+00 0.  1.
          1    1    1    2  501    0 -0.12747347062E+02  0.23349163276E+02  0.51489909715E+02  0.57955923642E+02  0.00000000000E+00 0. -1.
<scales pt_clust_5="13000.00000" pt_clust_6="13000.00000" pt_clust_7="13000.00000" pt_clust_8="13000.00000" pt_clust_9="26.60222"></scales>
<clustering>
<clus scale="   26.602">  1  9  2 -1</clus>
<clus scale="   90.383">  5  6 -1 -1</clus>
<clus scale="   92.310">  7  8 -1 -1</clus>
<clus scale="  100.231">  2  5  1 -1</clus>
<clus scale="   26.602">  1  5  2 -1</clus>
</clustering>
</event>
<event>
 9    1  0.1321469E-005  0.1327441E+03  0.7546771E-02  0.1223649E+00
          2   -1    0    0  502    0 -0.00000000000E+00  0.00000000000E+00  0.41585996522E+03  0.41585996522E+03  0.00000000000E+00 0. -1.
         21   -1    0    0  501  502  0.00000000000E+00 -0.00000000000E+00 -0.16767857384E+03  0.16767857384E+03  0.00000000000E+00 0. -1.
         23    2    1    2    0    0  0.52049003782E+02  0.83973262202E+02  0.31586821244E+03  0.34335160815E+03  0.91416582911E+02 0.  0.
         23    2    1    2    0    0 -0.65373805673E+02 -0.40369473855E+02 -0.12132717287E+03  0.16978715786E+03  0.90575753983E+02 0.  0.
        -11    1    3    3    0    0  0.24128805067E+02 -0.68205073793E+01  0.18444436818E+02  0.31127412427E+02  0.00000000000E+00 0.  1.
         11    1    3    3    0    0  0.27920198715E+02  0.90793769581E+02  0.29742377562E+03  0.31222419573E+03  0.00000000000E+00 0. -1.
        -13    1    4    4    0    0 -0.54715521846E+01 -0.23096404301E+02 -0.10169191700E+03  0.10442522568E+03  0.00000000000E+00 0. -1.
         13    1    4    4    0    0 -0.59902253488E+02 -0.17273069554E+02 -0.19635255865E+02  0.65361932175E+02  0.00000000000E+00 0.  1.
          2    1    1    2  501    0  0.13324801891E+02 -0.43603788347E+02  0.53640351805E+02  0.70399773050E+02  0.00000000000E+00 0. -1.
<scales pt_clust_5="13000.00000" pt_clust_6="13000.00000" pt_clust_7="13000.00000" pt_clust_8="13000.00000" pt_clust_9="45.59433"></scales>
<clustering>
<clus scale="   45.594">  2  9  1 -1</clus>
<clus scale="   90.576">  7  8 -1 -1</clus>
<clus scale="   91.417">  5  6 -1 -1</clus>
<clus scale="  132.166">  2  7  1 -1</clus>
<clus scale="   45.594">  2  5  1 -1</clus>
</clustering>
</event>
<event>
 9    1  0.1321469E-005  0.1431423E+03  0.7546771E-02  0.1209474E+00
         21   -1    0    0  501  502  0.00000000000E+00  0.00000000000E+00  0.36394935157E+02  0.36394935157E+02  0.00000000000E+00 0.  1.
         -2   -1    0    0    0  501 -0.00000000000E+00 -0.00000000000E+00 -0.98987672167E+03  0.98987672167E+03  0.00000000000E+00 0.  1.
         23    2    1    2    0    0  0.12452630083E+03 -0.14840832705E+02 -0.69119915283E+03  0.70881637337E+03  0.94537465485E+02 0.  0.
         23    2    1    2    0    0 -0.62595720087E+02  0.18653138532E+02 -0.15708246788E+03  0.19532009036E+03  0.95962869031E+02 0.  0.
        -11    1    4    4    0    0 -0.65204552643E+02 -0.22583375270E+02 -0.12584470051E+03  0.14352188394E+03  0.00000000000E+00 0. -1.
         11    1    4    4    0    0  0.26088325557E+01  0.41236513802E+02 -0.31237767372E+02  0.51798206419E+02  0.00000000000E+00 0.  1.
        -13    1    3    3    0    0  0.12931033364E+03  0.10147635906E+02 -0.61335907439E+03  0.62692383193E+03  0.00000000000E+00 0.  1.
         13    1    3    3    0    0 -0.47840328165E+01 -0.24988468610E+02 -0.77840078438E+02  0.81892541448E+02  0.00000000000E+00 0. -1.
         -2    1    1    2    0  502 -0.61930580739E+02 -0.38123058271E+01 -0.10520016580E+03  0.12213519309E+03  0.00000000000E+00 0.  1.
<scales pt_clust_5="13000.00000" pt_clust_6="13000.00000" pt_clust_7="13000.00000" pt_clust_8="13000.00000" pt_clust_9="62.04781"></scales>
<clustering>
<clus scale="   62.048">  1  9  2 -1</clus>
<clus scale="   94.537">  7  8 -1 -1</clus>
<clus scale="   95.963">  5  6 -1 -1</clus>
<clus scale="  142.191">  2  7  1 -1</clus>
<clus scale="   62.048">  1  5  2 -1</clus>
</clustering>
</event>
<event>
 9    1  0.1321469E-005  0.9269460E+02  0.7546771E-02  0.1296672E+00
         21   -1    0    0  501  502  0.00000000000E+00  0.00000000000E+00  0.80736743311E+02  0.80736743311E+02  0.00000000000E+00 0.  1.
         -1   -1    0    0    0  501 -0.00000000000E+00 -0.00000000000E+00 -0.37609562248E+03  0.37609562248E+03  0.00000000000E+00 0.  1.
         23    2    1    2    0    0  0.20761211560E+02 -0.87322603054E+01 -0.24069977884E+03  0.25846219308E+03  0.91427793591E+02 0.  0.
         23    2    1    2    0    0  0.69146404465E+00  0.51062296242E+01 -0.10765055457E+03  0.14108614692E+03  0.91050026092E+02 0.  0.
        -11    1    4    4    0    0 -0.38663465480E+02 -0.15029553808E+02 -0.28182786148E+02  0.50149979916E+02  0.00000000000E+00 0. -1.
         11    1    4    4    0    0  0.39354929524E+02  0.20135783432E+02 -0.79467768421E+02  0.90936167008E+02  0.00000000000E+00 0.  1.
        -13    1    3    3    0    0  0.35149501581E+02 -0.29359453694E+02 -0.22313388682E+03  0.22778541751E+03  0.00000000000E+00 0. -1.
         13    1    3    3    0    0 -0.14388290021E+02  0.20627193389E+02 -0.17565892023E+02  0.30676775570E+02  0.00000000000E+00 0.  1.
         -1    1    1    2    0  502 -0.21452675605E+02  0.36260306812E+01  0.52991454236E+02  0.57284025794E+02  0.00000000000E+00 0.  1.
<scales pt_clust_5="13000.00000" pt_clust_6="13000.00000" pt_clust_7="13000.00000" pt_clust_8="13000.00000" pt_clust_9="21.75696"></scales>
<clustering>
<clus scale="   21.757">  1  9  2 -1</clus>
<clus scale="   91.050">  5  6 -1 -1</clus>
<clus scale="   91.428">  7  8 -1 -1</clus>
<clus scale="   92.322">  1  5  2 -1</clus>
<clus scale="   21.757">  1  5  2 -1</clus>
</clustering>
</event>
<event>
 9    1  0.1321469E-005  0.1765868E+03  0.7546771E-02  0.1171175E+00
          1   -1    0    0  502    0 -0.00000000000E+00  0.00000000000E+00  0.99351516860E+03  0.99351516860E+03  0.00000000000E+00 0. -1.
         21   -1    0    0  501  502  0.00000000000E+00 -0.00000000000E+00 -0.17225741145E+03  0.17225741145E+03  0.00000000000E+00 0. -1.
         23    2    1    2    0    0  0.52453660243E+02  0.11096572343E+03  0.34674270220E+03  0.37918921794E+03  0.92136763685E+02 0.  0.
         23    2    1    2    0    0 -0.57538252025E+02 -0.16951130254E+03  0.60816005729E+03  0.64058875757E+03  0.91926975907E+02 0.  0.
        -11    1    4    4    0    0  0.15534031866E+02 -0.46100747237E+02  0.83091742561E+02  0.96285111640E+02  0.00000000000E+00 0.  1.
         11    1    4    4    0    0 -0.73072283891E+02 -0.12341055531E+03  0.52506831473E+03  0.54430364593E+03  0.00000000000E+00 0. -1.
        -13    1    3    3    0    0  0.35211438327E+02  0.20423970942E+01  0.14546987450E+03  0.14968467243E+03  0.00000000000E+00 0.  1.
         13    1    3    3    0    0  0.17242221916E+02  0.10892332633E+03  0.20127282770E+03  0.22950454551E+03  0.00000000000E+00 0. -1.
          1    1    1    2  501    0  0.50845917822E+01  0.58545579116E+02 -0.13364500234E+03  0.14599460455E+03  0.00000000000E+00 0. -1.
<scales pt_clust_5="13000.00000" pt_clust_6="13000.00000" pt_clust_7="13000.00000" pt_clust_8="13000.00000" pt_clust_9="58.76596"></scales>
<clustering>
<clus scale="   58.766">  2  9  1 -1</clus>
<clus scale="   91.927">  5  6 -1 -1</clus>
<clus scale="   92.137">  7  8 -1 -1</clus>
<clus scale="  176.477">  2  5  1 -1</clus>
<clus scale="   58.766">  2  5  1 -1</clus>
</clustering>
</event>
<event>
 9    1  0.1321469E-005  0.1131792E+03  0.7546771E-02  0.1255483E+00
         -1   -1    0    0    0  501 -0.00000000000E+00  0.00000000000E+00  0.40208782271E+03  0.40208782271E+03  0.00000000000E+00 0.  1.
         21   -1    0    0  501  502  0.00000000000E+00 -0.00000000000E+00 -0.40126155411E+02  0.40126155411E+02  0.00000000000E+00 0. -1.
         23    2    1    2    0    0 -0.37772386772E+02  0.43846044863E+02  0.18229087403E+03  0.21125380881E+03  0.89716108529E+02 0.  0.
         23    2    1    2    0    0  0.42106600124E+02 -0.67206020455E+02  0.15441270485E+03  0.19628388208E+03  0.91621307502E+02 0.  0.
        -11    1    3    3    0    0 -0.50578909418E+02  0.14578670036E+01  0.47597471150E+02  0.69468487201E+02  0.00000000000E+00 0.  1.
         11    1    3    3    0    0  0.12806522646E+02  0.42388177859E+02  0.13469340288E+03  0.14178532161E+03  0.00000000000E+00 0. -1.
        -13    1    4    4    0    0  0.51527928773E+02 -0.49403154741E+02  0.16015123238E+03  0.17534028737E+03  0.00000000000E+00 0.  1.
         13    1    4    4    0    0 -0.94213286498E+01 -0.17802865714E+02 -0.57385275358E+01  0.20943594712E+02  0.00000000000E+00 0. -1.
         -1    1    1    2    0  502 -0.43342133519E+01  0.23359975593E+02  0.25258088421E+02  0.34676287226E+02  0.00000000000E+00 0.  1.
<scales pt_clust_5="13000.00000" pt_clust_6="13000.00000" pt_clust_7="13000.00000" pt_clust_8="13000.00000" pt_clust_9="23.75866"></scales>
<clustering>
<clus scale="   23.759">  2  9  1 -1</clus>
<clus scale="   89.716">  5  6 -1 -1</clus>
<clus scale="   91.621">  7  8 -1 -1</clus>
<clus scale="  111.643">  1  5  2 -1</clus>
<clus scale="   23.759">  2  5  1 -1</clus>
</clustering>
</event>
<event>
 9    1  0.1321469E-005  0.1341325E+03  0.7546771E-02  0.1221894E+00
          2   -1    0    0  502    0 -0.00000000000E+00  0.00000000000E+00  0.69820969384E+03  0.69820969384E+03  0.00000000000E+00 0. -1.
         21   -1    0    0  501  502  0.00000000000E+00 -0.00000000000E+00 -0.93169874129E+02  0.93169874129E+02  0.00000000000E+00 0. -1.
         23    2    1    2    0    0  0.10356786475E+03  0.56834877802E+02  0.51330176388E+03  0.53462970564E+03  0.91617222265E+02 0.  0.
         23    2    1    2    0    0 -0.67965798557E+02  0.88063922757E+01  0.13051632287E+03  0.17260690392E+03  0.89787139542E+02 0.  0.
        -11    1    3    3    0    0  0.93874888867E+02  0.54040022598E+01  0.37900956156E+03  0.39049961044E+03  0.00000000000E+00 0. -1.
         11    1    3    3    0    0  0.96929758781E+01  0.51430875542E+02  0.13429220232E+03  0.14413009521E+03  0.00000000000E+00 0.  1.
        -11    1    4    4    0    0 -0.43119935955E+02 -0.38743940421E+02  0.54505415863E+02  0.79569228691E+02  0.00000000000E+00 0.  1.
         11    1    4    4    0    0 -0.24845862602E+02  0.47550332697E+02  0.76010907011E+02  0.93037675232E+02  0.00000000000E+00 0. -1.
          2    1    1    2  501    0 -0.35602066189E+02 -0.65641270078E+02 -0.38778267039E+02  0.84142958403E+02  0.00000000000E+00 0. -1.
<scales pt_clust_5="13000.00000" pt_clust_6="13000.00000" pt_clust_7="13000.00000" pt_clust_8="13000.00000" pt_clust_9="74.67452"></scales>
<clustering>
<clus scale="   74.675">  2  9  1 -1</clus>
<clus scale="   89.787">  7  8 -1 -1</clus>
<clus scale="   91.617">  5  6 -1 -1</clus>
<clus scale="  132.889">  2  7  1 -1</clus>
<clus scale="   74.675">  2  5  1 -1</clus>
</clustering>
</event>
<event>
 9    1  0.1321469E-005  0.9272479E+02  0.7546771E-02  0.1302552E+00
         21   -1    0    0  501  502  0.00000000000E+00  0.00000000000E+00  0.20482494165E+03  0.20482494165E+03  0.00000000000E+00 0. -1.
          1   -1    0    0  502    0 -0.00000000000E+00 -0.00000000000E+00 -0.12531303913E+03  0.12531303913E+03  0.00000000000E+00 0. -1.
         23    2    1    2    0    0 -0.17851860661E+02 -0.24102590866E+02 -0.74827095837E+02  0.12109582571E+03  0.90363050615E+02 0.  0.
         23    2    1    2    0    0 -0.12815476924E+02  0.67474697204E+00  0.44286920294E+02  0.92419647176E+02  0.80095993301E+02 0.  0.
        -11    1    3    3    0    0 -0.46575886677E+02 -0.16725787424E+01 -0.11456895464E+02  0.47993449481E+02  0.00000000000E+00 0.  1.
         11    1    3    3    0    0  0.28724026016E+02 -0.22430012123E+02 -0.63370200373E+02  0.73102376225E+02  0.00000000000E+00 0. -1.
        -13    1    4    4    0    0 -0.18716919459E+02  0.36494945863E+02  0.94155916522E+01  0.42081557882E+02  0.00000000000E+00 0.  1.
         13    1    4    4    0    0  0.59014425342E+01 -0.35820198891E+02  0.34871328641E+02  0.50338089294E+02  0.00000000000E+00 0. -1.
          1    1    1    2  501    0  0.30667337586E+02  0.23427843894E+02  0.11005207806E+03  0.11662250790E+03  0.00000000000E+00 0. -1.
<scales pt_clust_5="13000.00000" pt_clust_6="13000.00000" pt_clust_7="13000.00000" pt_clust_8="13000.00000" pt_clust_9="38.59209"></scales>
<clustering>
<clus scale="   38.592">  1  9  2 -1</clus>
<clus scale="   80.096">  7  8 -1 -1</clus>
<clus scale="   82.751">  1  7  2 -1</clus>
<clus scale="   90.363">  5  6 -1 -1</clus>
<clus scale="   38.592">  1  5  2 -1</clus>
</clustering>
</event>
<event>
 9    1  0.1321469E-005  0.9704260E+02  0.7546771E-02  0.1287373E+00
         21   -1    0    0  501  502  0.00000000000E+00  0.00000000000E+00  0.43729219132E+02  0.43729219132E+02  0.00000000000E+00 0. -1.
          1   -1    0    0  502    0 -0.00000000000E+00 -0.00000000000E+00 -0.45551241803E+03  0.45551241803E+03  0.00000000000E+00 0. -1.
         23    2    1    2    0    0  0.31401171597E+02  0.80485011538E+01 -0.28579889719E+03  0.30157710493E+03  0.90647275921E+02 0.  0.
         23    2    1    2    0    0 -0.29367431310E+02  0.18288896822E+02 -0.13733762512E+03  0.16891226999E+03  0.92047824039E+02 0.  0.
        -11    1    4    4    0    0 -0.93661691142E+01 -0.36721241283E+02 -0.38364343109E+02  0.53925851940E+02  0.00000000000E+00 0.  1.
         11    1    4    4    0    0 -0.20001262196E+02  0.55010138105E+02 -0.98973282008E+02  0.11498641805E+03  0.00000000000E+00 0. -1.
        -13    1    3    3    0    0  0.59176492340E-01  0.46591108739E+02 -0.13878722803E+03  0.14639887151E+03  0.00000000000E+00 0. -1.
         13    1    3    3    0    0  0.31341995104E+02 -0.38542607585E+02 -0.14701166916E+03  0.15517823342E+03  0.00000000000E+00 0.  1.
          1    1    1    2  501    0 -0.20337402869E+01 -0.26337397976E+02  0.11353323413E+02  0.28752262245E+02  0.00000000000E+00 0. -1.
<scales pt_clust_5="13000.00000" pt_clust_6="13000.00000" pt_clust_7="13000.00000" pt_clust_8="13000.00000" pt_clust_9="26.41580"></scales>
<clustering>
<clus scale="   26.416">  1  9  2 -1</clus>
<clus scale="   90.647">  7  8 -1 -1</clus>
<clus scale="   92.048">  5  6 -1 -1</clus>
<clus scale="   95.715">  2  7  1 -1</clus>
<clus scale="   26.416">  1  5  2 -1</clus>
</clustering>
</event>
<event>
 9    1  0.1321469E-005  0.1057233E+03  0.7546771E-02  0.1269102E+00
         -1   -1    0    0    0  501 -0.00000000000E+00  0.00000000000E+00  0.51673399940E+02  0.51673399940E+02  0.00000000000E+00 0.  1.
         21   -1    0    0  501  502  0.00000000000E+00 -0.00000000000E+00 -0.61727146384E+03  0.61727146384E+03  0.00000000000E+00 0.  1.
         23    2    1    2    0    0 -0.54336586000E+02 -0.19158982669E+02 -0.45899817423E+02  0.11664066231E+03  0.90436274082E+02 0.  0.
         23    2    1    2    0    0  0.19149206855E+02  0.55018920026E+02 -0.18945671243E+03  0.21826295017E+03  0.91384330433E+02 0.  0.
        -11    1    4    4    0    0  0.95678853306E+01 -0.25525837964E+02 -0.48067143989E+02  0.55259055047E+02  0.00000000000E+00 0.  1.
         11    1    4    4    0    0  0.95813215249E+01  0.80544757990E+02 -0.14138956844E+03  0.16300389512E+03  0.00000000000E+00 0. -1.
        -11    1    3    3    0    0 -0.27920464830E+02 -0.48810010508E+02 -0.37915668585E+00  0.56232670592E+02  0.00000000000E+00 0.  1.
         11    1    3    3    0    0 -0.26416121170E+02  0.29651027839E+02 -0.45520660737E+02  0.60407991719E+02  0.00000000000E+00 0. -1.
         -1    1    1    2    0  502  0.35187379144E+02 -0.35859937357E+02 -0.33024153405E+03  0.33404125130E+03  0.00000000000E+00 0.  1.
<scales pt_clust_5="13000.00000" pt_clust_6="13000.00000" pt_clust_7="13000.00000" pt_clust_8="13000.00000" pt_clust_9="50.24029"></scales>
<clustering>
<clus scale="   50.240">  2  9  1 -1</clus>
<clus scale="   90.436">  7  8 -1 -1</clus>
<clus scale="   91.384">  5  6 -1 -1</clus>
<clus scale="  104.905">  1  7  2 -1</clus>
<clus scale="   50.240">  2  5  1 -1</clus>
</clustering>
</event>
<event>
 9    1  0.1321469E-005  0.1690626E+03  0.7546771E-02  0.1179200E+00
         21   -1    0    0  501  502  0.00000000000E+00  0.00000000000E+00  0.59672871601E+03  0.59672871601E+03  0.00000000000E+00 0. -1.
          3   -1    0    0  502    0 -0.00000000000E+00 -0.00000000000E+00 -0.11024074798E+03  0.11024074798E+03  0.00000000000E+00 0. -1.
         23    2    1    2    0    0 -0.11526701061E+03 -0.11549745107E+03  0.15153477283E+02  0.18642975913E+03  0.88883532092E+02 0.  0.
         23    2    1    2    0    0  0.70147387521E+02  0.75850282465E+02  0.18966403325E+03  0.23253636288E+03  0.86178844424E+02 0.  0.
        -11    1    4    4    0    0  0.36326270641E+01  0.67224366170E+02  0.10039955247E+03  0.12088168398E+03  0.00000000000E+00 0.  1.
         11    1    4    4    0    0  0.66514760457E+02  0.86259162956E+01  0.89264480787E+02  0.11165467890E+03  0.00000000000E+00 0. -1.
        -11    1    3    3    0    0 -0.12010507795E+03 -0.90349017723E+02  0.34658639847E+02  0.15423811484E+03  0.00000000000E+00 0. -1.
         11    1    3    3    0    0  0.48380673432E+01 -0.25148433347E+02 -0.19505162564E+02  0.32191644290E+02  0.00000000000E+00 0.  1.
          3    1    1    2  501    0  0.45119623089E+02  0.39647168605E+02  0.28167045749E+03  0.28800334197E+03  0.00000000000E+00 0. -1.
<scales pt_clust_5="13000.00000" pt_clust_6="13000.00000" pt_clust_7="13000.00000" pt_clust_8="13000.00000" pt_clust_9="60.06395"></scales>
<clustering>
<clus scale="   60.064">  1  9  2 -1</clus>
<clus scale="   86.179">  5  6 -1 -1</clus>
<clus scale="   88.884">  7  8 -1 -1</clus>
<clus scale="  167.656">  1  5  2 -1</clus>
<clus scale="   60.064">  1  5  2 -1</clus>
</clustering>
</event>
<event>
 9    1  0.1321469E-005  0.1003446E+03  0.7546771E-02  0.1279911E+00
         21   -1    0    0  501  502  0.00000000000E+00  0.00000000000E+00  0.83578140898E+02  0.83578140898E+02  0.00000000000E+00 0. -1.
          1   -1    0    0  502    0 -0.00000000000E+00 -0.00000000000E+00 -0.44968280924E+03  0.44968280924E+03  0.00000000000E+00 0. -1.
         23    2    1    2    0    0  0.28057400002E+02 -0.20158418700E+02 -0.25021614036E+03  0.26831843273E+03  0.90515661111E+02 0.  0.
         23    2    1    2    0    0 -0.82634656302E+02 -0.30818715461E+02 -0.13826961597E+03  0.18697933244E+03  0.89802585786E+02 0.  0.
        -11    1    3    3    0    0 -0.21650364054E+02  0.10949861747E+02 -0.22210397957E+02  0.32892848969E+02  0.00000000000E+00 0.  1.
         11    1    3    3    0    0  0.49707764055E+02 -0.31108280447E+02 -0.22800574240E+03  0.23542558376E+03  0.00000000000E+00 0. -1.
        -11    1    4    4    0    0 -0.24015115262E+02  0.37224003933E+01  0.80610730917E+01  0.25603963075E+02  0.00000000000E+00 0.  1.
         11    1    4    4    0    0 -0.58619541040E+02 -0.34541115854E+02 -0.14633068906E+03  0.16137536936E+03  0.00000000000E+00 0. -1.
          1    1    1    2  501    0  0.54577256300E+02  0.50977134161E+02  0.22381087981E+02  0.77963184977E+02  0.00000000000E+00 0. -1.
<scales pt_clust_5="13000.00000" pt_clust_6="13000.00000" pt_clust_7="13000.00000" pt_clust_8="13000.00000" pt_clust_9="74.68162"></scales>
<clustering>
<clus scale="   74.682">  1  9  2 -1</clus>
<clus scale="   89.803">  7  8 -1 -1</clus>
<clus scale="   90.516">  5  6 -1 -1</clus>
<clus scale="   99.702">  1  7  2 -1</clus>
<clus scale="   74.682">  1  5  2 -1</clus>
</clustering>
</event>
<event>
 9    1  0.1321469E-005  0.1546520E+03  0.7546771E-02  0.1195195E+00
         21   -1    0    0  501  502  0.00000000000E+00  0.00000000000E+00  0.34640575643E+03  0.34640575643E+03  0.00000000000E+00 0. -1.
          3   -1    0    0  502    0 -0.00000000000E+00 -0.00000000000E+00 -0.14845992264E+03  0.14845992264E+03  0.00000000000E+00 0. -1.
         23    2    1    2    0    0  0.11995709641E+02  0.13651043628E+03 -0.46473333255E+02  0.17029636097E+03  0.89789106202E+02 0.  0.
         23    2    1    2    0    0  0.24579231790E+02 -0.99061406435E+02  0.96656489746E+02  0.16780846528E+03  0.91650985418E+02 0.  0.
        -11    1    3    3    0    0 -0.21405349211E+02  0.12729015701E+03 -0.34132804166E+02  0.13351412422E+03  0.00000000000E+00 0. -1.
         11    1    3    3    0    0  0.33401058852E+02  0.92202792748E+01 -0.12340529090E+02  0.36782236753E+02  0.00000000000E+00 0.  1.
        -13    1    4    4    0    0 -0.20322511970E+02 -0.38741378523E+02  0.79402564467E+02  0.90656859347E+02  0.00000000000E+00 0.  1.
         13    1    4    4    0    0  0.44901743760E+02 -0.60320027912E+02  0.17253925279E+02  0.77151605929E+02  0.00000000000E+00 0. -1.
          3    1    1    2  501    0 -0.36574941431E+02 -0.37449029847E+02  0.14776267730E+03  0.15676085283E+03  0.00000000000E+00 0. -1.
<scales pt_clust_5="13000.00000" pt_clust_6="13000.00000" pt_clust_7="13000.00000" pt_clust_8="13000.00000" pt_clust_9="52.34650"></scales>
<clustering>
<clus scale="   52.347">  1  9  2 -1</clus>
<clus scale="   89.789">  5  6 -1 -1</clus>
<clus scale="   91.651">  7  8 -1 -1</clus>
<clus scale="  153.556">  2  5  1 -1</clus>
<clus scale="   52.347">  1  5  2 -1</clus>
</clustering>
</event>
<event>
 9    1  0.1321469E-005  0.2076526E+03  0.7546771E-02  0.1169331E+00
         21   -1    0    0  501  502  0.00000000000E+00  0.00000000000E+00  0.46901208141E+03  0.46901208141E+03  0.00000000000E+00 0. -1.
          3   -1    0    0  502    0 -0.00000000000E+00 -0.00000000000E+00 -0.19106569389E+03  0.19106569389E+03  0.00000000000E+00 0. -1.
         23    2    1    2    0    0 -0.35852912739E+02 -0.54890516403E+02 -0.22500352357E+02  0.11541939493E+03  0.92287435365E+02 0.  0.
         23    2    1    2    0    0 -0.15999363832E+03  0.33558146421E+02  0.12130755789E+01  0.18639628718E+03  0.89543234416E+02 0.  0.
        -11    1    4    4    0    0 -0.66154516034E+02 -0.28997640724E+02 -0.10585186836E+02  0.73002255716E+02  0.00000000000E+00 0.  1.
         11    1    4    4    0    0 -0.93839122281E+02  0.62555787145E+02  0.11798262415E+02  0.11339403146E+03  0.00000000000E+00 0. -1.
        -13    1    3    3    0    0  0.51542173230E+01 -0.61356299400E+02 -0.36536916477E+02  0.71596841396E+02  0.00000000000E+00 0.  1.
         13    1    3    3    0    0 -0.41007130062E+02  0.64657829967E+01  0.14036564119E+02  0.43822553531E+02  0.00000000000E+00 0. -1.
          3    1    1    2  501    0  0.19584655105E+03  0.21332369982E+02  0.29923366430E+03  0.35826209320E+03  0.00000000000E+00 0. -1.
<scales pt_clust_5="13000.00000" pt_clust_6="13000.00000" pt_clust_7="13000.00000" pt_clust_8="13000.00000" pt_clust_9="187.35420"></scales>
<clustering>
<clus scale="   89.543">  5  6 -1 -1</clus>
<clus scale="   92.287">  7  8 -1 -1</clus>
<clus scale="  113.205">  2  7  1 -1</clus>
<clus scale="  187.354">  1  9  2 -1</clus>
<clus scale="  187.354">  1  5  2 -1</clus>
</clustering>
</event>
<event>
 9    1  0.1321469E-005  0.9490821E+02  0.7546771E-02  0.1293750E+00
         21   -1    0    0  501  502  0.00000000000E+00  0.00000000000E+00  0.61492801291E+02  0.61492801291E+02  0.00000000000E+00 0.  1.
          4   -1    0    0  502    0 -0.00000000000E+00 -0.00000000000E+00 -0.22353937123E+03  0.22353937123E+03  0.00000000000E+00 0. -1.
         23    2    1    2    0    0 -0.24663830527E+01  0.13918338510E+02 -0.12696337001E+03  0.15854799263E+03  0.93904022544E+02 0.  0.
         23    2    1    2    0    0 -0.23301368995E+02 -0.10179603306E+02 -0.17111831180E+02  0.94846776696E+02  0.89758109175E+02 0.  0.
        -11    1    3    3    0    0  0.15401592121E+02 -0.30765748741E+02 -0.94314503572E+02  0.10039405321E+03  0.00000000000E+00 0. -1.
         11    1    3    3    0    0 -0.17867975174E+02  0.44684087251E+02 -0.32648866435E+02  0.58153939418E+02  0.00000000000E+00 0.  1.
        -11    1    4    4    0    0 -0.11286502973E+02 -0.44643164518E+02 -0.31310512626E+02  0.55684337909E+02  0.00000000000E+00 0.  1.
         11    1    4    4    0    0 -0.12014866022E+02  0.34463561211E+02  0.14198681446E+02  0.39162438786E+02  0.00000000000E+00 0. -1.
          4    1    1    2  501    0  0.25767752048E+02 -0.37387352038E+01 -0.17971368754E+02  0.31637403203E+02  0.00000000000E+00 0. -1.
<scales pt_clust_5="13000.00000" pt_clust_6="13000.00000" pt_clust_7="13000.00000" pt_clust_8="13000.00000" pt_clust_9="26.03757"></scales>
<clustering>
<clus scale="   26.038">  1  9  2 -1</clus>
<clus scale="   89.758">  7  8 -1 -1</clus>
<clus scale="   90.808">  1  7  2 -1</clus>
<clus scale="   93.904">  5  6 -1 -1</clus>
<clus scale="   26.038">  1  5  2 -1</clus>
</clustering>
</event>
<event>
 9    1  0.1321469E-005  0.1083251E+03  0.7546771E-02  0.1266149E+00
         -1   -1    0    0    0  501 -0.00000000000E+00  0.00000000000E+00  0.66473334822E+03  0.66473334822E+03  0.00000000000E+00 0.  1.
         21   -1    0    0  501  502  0.00000000000E+00 -0.00000000000E+00 -0.28209695103E+02  0.28209695103E+02  0.00000000000E+00 0. -1.
         23    2    1    2    0    0  0.53636099772E+02  0.34102425774E+02  0.34638182543E+03  0.36345700920E+03  0.89893391912E+02 0.  0.
         23    2    1    2    0    0 -0.21404130900E+02 -0.12658544693E+02  0.12230531480E+03  0.15724250039E+03  0.95646423496E+02 0.  0.
        -11    1    4    4    0    0 -0.30044243862E+02  0.24814827079E+02  0.11026082967E+03  0.11694393012E+03  0.00000000000E+00 0.  1.
         11    1    4    4    0    0  0.86401129625E+01 -0.37473371771E+02  0.12044485131E+02  0.40298570272E+02  0.00000000000E+00 0. -1.
        -11    1    3    3    0    0 -0.22701653857E+02  0.36982992876E+01  0.12958903230E+03  0.13161443614E+03  0.00000000000E+00 0.  1.
         11    1    3    3    0    0  0.76337753629E+02  0.30404126487E+02  0.21679279312E+03  0.23184257307E+03  0.00000000000E+00 0. -1.
         -1    1    1    2    0  502 -0.32231968873E+02 -0.21443881081E+02  0.16783651288E+03  0.17224353373E+03  0.00000000000E+00 0.  1.
<scales pt_clust_5="13000.00000" pt_clust_6="13000.00000" pt_clust_7="13000.00000" pt_clust_8="13000.00000" pt_clust_9="38.71358"></scales>
<clustering>
<clus scale="   38.714">  2  9  1 -1</clus>
<clus scale="   89.893">  7  8 -1 -1</clus>
<clus scale="   95.646">  5  6 -1 -1</clus>
<clus scale="  103.281">  1  7  2 -1</clus>
<clus scale="   38.714">  2  5  1 -1</clus>
</clustering>
</event>
<event>
 9    1  0.1321469E-005  0.1314095E+03  0.7546771E-02  0.1226118E+00
         21   -1    0    0  501  502  0.00000000000E+00  0.00000000000E+00  0.21830559601E+03  0.21830559601E+03  0.00000000000E+00 0.  1.
         -3   -1    0    0    0  501 -0.00000000000E+00 -0.00000000000E+00 -0.14625505940E+03  0.14625505940E+03  0.00000000000E+00 0.  1.
         23    2    1    2    0    0 -0.55765317933E+02  0.58634053091E+02 -0.21544756256E+02  0.12037557315E+03  0.86477622678E+02 0.  0.
         23    2    1    2    0    0  0.70704614596E+02 -0.10023376038E+03  0.13129132601E+02  0.15237810443E+03  0.89446986205E+02 0.  0.
        -11    1    4    4    0    0  0.19172393940E+02  0.15478005740E+02  0.67563016309E+01  0.25549891640E+02  0.00000000000E+00 0. -1.
         11    1    4    4    0    0  0.51532220656E+02 -0.11571176612E+03  0.63728309697E+01  0.12682821279E+03  0.00000000000E+00 0.  1.
        -13    1    3    3    0    0 -0.37922822703E+02 -0.16264025732E+02 -0.44128062199E+01  0.41498576765E+02  0.00000000000E+00 0.  1.
         13    1    3    3    0    0 -0.17842495229E+02  0.74898078823E+02 -0.17131950036E+02  0.78876996390E+02  0.00000000000E+00 0. -1.
         -3    1    1    2    0  502 -0.14939296663E+02  0.41599707289E+02  0.80466160259E+02  0.91806977830E+02  0.00000000000E+00 0.  1.
<scales pt_clust_5="13000.00000" pt_clust_6="13000.00000" pt_clust_7="13000.00000" pt_clust_8="13000.00000" pt_clust_9="44.20088"></scales>
<clustering>
<clus scale="   44.201">  1  9  2 -1</clus>
<clus scale="   86.478">  7  8 -1 -1</clus>
<clus scale="   89.447">  5  6 -1 -1</clus>
<clus scale="  129.407">  2  7  1 -1</clus>
<clus scale="   44.201">  1  5  2 -1</clus>
</clustering>
</event>
<event>
 9    1  0.1321469E-005  0.1131453E+03  0.7546771E-02  0.1256968E+00
          1   -1    0    0  502    0 -0.00000000000E+00  0.00000000000E+00  0.53064119616E+02  0.53064119616E+02  0.00000000000E+00 0. -1.
         21   -1    0    0  501  502  0.00000000000E+00 -0.00000000000E+00 -0.46919081112E+03  0.46919081112E+03  0.00000000000E+00 0. -1.
         23    2    1    2    0    0  0.62648032728E+02  0.15374594758E+02 -0.48074541534E+02  0.12160832648E+03  0.91193581779E+02 0.  0.
         23    2    1    2    0    0 -0.27108072056E+02 -0.46869701931E+02 -0.25930728011E+03  0.28198541725E+03  0.96663816874E+02 0.  0.
        -11    1    4    4    0    0 -0.46168850806E+02 -0.60181750183E+02 -0.12922302392E+03  0.14983990040E+03  0.00000000000E+00 0.  1.
         11    1    4    4    0    0  0.19060778751E+02  0.13312048252E+02 -0.13008425619E+03  0.13214551685E+03  0.00000000000E+00 0. -1.
        -13    1    3    3    0    0 -0.23208212792E+01  0.30749627072E+02 -0.45284177602E+02  0.54786700189E+02  0.00000000000E+00 0.  1.
         13    1    3    3    0    0  0.64968854008E+02 -0.15375032315E+02 -0.27903639320E+01  0.66821626294E+02  0.00000000000E+00 0. -1.
          1    1    1    2  501    0 -0.35539960673E+02  0.31495107174E+02 -0.10874486986E+03  0.11866118701E+03  0.00000000000E+00 0. -1.
<scales pt_clust_5="13000.00000" pt_clust_6="13000.00000" pt_clust_7="13000.00000" pt_clust_8="13000.00000" pt_clust_9="47.48716"></scales>
<clustering>
<clus scale="   47.487">  2  9  1 -1</clus>
<clus scale="   91.194">  7  8 -1 -1</clus>
<clus scale="   96.664">  5  6 -1 -1</clus>
<clus scale="  108.509">  1  7  2 -1</clus>
<clus scale="   47.487">  2  5  1 -1</clus>
</clustering>
</event>
<event>
 9    1  0.1321469E-005  0.1803014E+03  0.7546771E-02  0.1169269E+00
         21   -1    0    0  501  502  0.00000000000E+00  0.00000000000E+00  0.93410105970E+03  0.93410105970E+03  0.00000000000E+00 0. -1.
          1   -1    0    0  502    0 -0.00000000000E+00 -0.00000000000E+00 -0.74407769483E+02  0.74407769483E+02  0.00000000000E+00 0. -1.
         23    2    1    2    0    0  0.13064195962E+03 -0.15889319595E+02  0.23431287782E+03  0.28434089250E+03  0.92883940185E+02 0.  0.
         23    2    1    2    0    0 -0.13702114042E+03  0.14636919322E+03  0.46536988576E+03  0.51760303163E+03  0.10557004371E+03 0.  0.
        -13    1    4    4    0    0 -0.49294157761E+02  0.84108589342E+02  0.11332146986E+03  0.14948553215E+03  0.00000000000E+00 0. -1.
         13    1    4    4    0    0 -0.87726982660E+02  0.62260603875E+02  0.35204841591E+03  0.36811749948E+03  0.00000000000E+00 0.  1.
        -13    1    3    3    0    0  0.73855566223E+02 -0.46908941359E+02  0.86727829559E+02  0.12319419573E+03  0.00000000000E+00 0.  1.
         13    1    3    3    0    0  0.56786393396E+02  0.31019621763E+02  0.14758504826E+03  0.16114669677E+03  0.00000000000E+00 0. -1.
          1    1    1    2  501    0  0.63791808032E+01 -0.13047987362E+03  0.16001052663E+03  0.20656490506E+03  0.00000000000E+00 0. -1.
<scales pt_clust_5="13000.00000" pt_clust_6="13000.00000" pt_clust_7="13000.00000" pt_clust_8="13000.00000" pt_clust_9="130.63579"></scales>
<clustering>
<clus scale="   92.884">  7  8 -1 -1</clus>
<clus scale="  105.570">  5  6 -1 -1</clus>
<clus scale="  130.636">  1  9  2 -1</clus>
<clus scale="  173.179">  2  7  1 -1</clus>
<clus scale="  130.636">  1  5  2 -1</clus>
</clustering>
</event>
<event>
 9    1  0.1321469E-005  0.9466069E+02  0.7546771E-02  0.1292785E+00
         21   -1    0    0  501  502  0.00000000000E+00  0.00000000000E+00  0.21663791046E+03  0.21663791046E+03  0.00000000000E+00 0.  1.
         -1   -1    0    0    0  501 -0.00000000000E+00 -0.00000000000E+00 -0.36210560077E+03  0.36210560077E+03  0.00000000000E+00 0.  1.
         23    2    1    2    0    0  0.45610201999E+01  0.21477573910E+02 -0.30433700673E+03  0.31900923707E+03  0.93079485285E+02 0.  0.
         23    2    1    2    0    0  0.55705969275E+02  0.42432319158E+02  0.70488656782E+02  0.13512397983E+03  0.91576102060E+02 0.  0.
        -11    1    3    3    0    0  0.20512358672E+02  0.54893695380E+02 -0.18807900671E+03  0.19699692235E+03  0.00000000000E+00 0.  1.
         11    1    3    3    0    0 -0.15951338472E+02 -0.33416121470E+02 -0.11625800003E+03  0.12201231472E+03  0.00000000000E+00 0. -1.
        -13    1    4    4    0    0  0.54427831895E+02  0.65189150332E+02  0.73269161021E+02  0.11216231168E+03  0.00000000000E+00 0.  1.
         13    1    4    4    0    0  0.12781373799E+01 -0.22756831174E+02 -0.27805042389E+01  0.22961668146E+02  0.00000000000E+00 0. -1.
         -1    1    1    2    0  502 -0.60266989475E+02 -0.63909893068E+02  0.88380659648E+02  0.12461029433E+03  0.00000000000E+00 0.  1.
<scales pt_clust_5="13000.00000" pt_clust_6="13000.00000" pt_clust_7="13000.00000" pt_clust_8="13000.00000" pt_clust_9="87.84409"></scales>
<clustering>
<clus scale="   87.844">  1  9  2 -1</clus>
<clus scale="   91.576">  7  8 -1 -1</clus>
<clus scale="   93.079">  5  6 -1 -1</clus>
<clus scale="   93.183">  1  7  2 -1</clus>
<clus scale="   87.844">  1  5  2 -1</clus>
</clustering>
</event>
<event>
 9    1  0.1321469E-005  0.1322100E+03  0.7546771E-02  0.1237629E+00
         21   -1    0    0  501  502  0.00000000000E+00  0.00000000000E+00  0.71731402033E+03  0.71731402033E+03  0.00000000000E+00 0.  1.
          1   -1    0    0  502    0 -0.00000000000E+00 -0.00000000000E+00 -0.92514983316E+02  0.92514983316E+02  0.00000000000E+00 0. -1.
         23    2    1    2    0    0 -0.45803845977E+02  0.10236558511E+01  0.35668299362E+02  0.10641597952E+03  0.89180115161E+02 0.  0.
         23    2    1    2    0    0 -0.74919620260E+02  0.46422732962E+02  0.55440418316E+03  0.56913253895E+03  0.93700741481E+02 0.  0.
        -11    1    3    3    0    0 -0.30204790184E+02  0.29271444144E+02  0.54662545701E+02  0.68972028351E+02  0.00000000000E+00 0. -1.
         11    1    3    3    0    0 -0.15599055792E+02 -0.28247788293E+02 -0.18994246339E+02  0.37443951168E+02  0.00000000000E+00 0.  1.
        -11    1    4    4    0    0  0.81655082220E+01 -0.20421604918E+02  0.92348081278E+02  0.94930951684E+02  0.00000000000E+00 0. -1.
         11    1    4    4    0    0 -0.83085128482E+02  0.66844337881E+02  0.46205610188E+03  0.47420158727E+03  0.00000000000E+00 0.  1.
          1    1    1    2  501    0  0.12072346624E+03 -0.47446388813E+02  0.34726554493E+02  0.13428048517E+03  0.00000000000E+00 0. -1.
<scales pt_clust_5="13000.00000" pt_clust_6="13000.00000" pt_clust_7="13000.00000" pt_clust_8="13000.00000" pt_clust_9="93.27192"></scales>
<clustering>
<clus scale="   89.180">  5  6 -1 -1</clus>
<clus scale="   93.701">  7  8 -1 -1</clus>
<clus scale="  100.260">  2  5  1 -1</clus>
<clus scale="   93.272">  1  9  2 -1</clus>
<clus scale="   93.272">  1  5  2 -1</clus>
</clustering>
</event>
<event>
 9    1  0.1321469E-005  0.1380493E+03  0.7546771E-02  0.1227259E+00
         21   -1    0    0  501  502  0.00000000000E+00  0.00000000000E+00  0.43445922929E+03  0.43445922929E+03  0.00000000000E+00 0.  1.
         -4   -1    0    0    0  501 -0.00000000000E+00 -0.00000000000E+00 -0.15539892347E+03  0.15539892347E+03  0.00000000000E+00 0.  1.
         23    2    1    2    0    0 -0.23012212956E+02 -0.47472607936E+02 -0.82318205818E+02  0.13659465588E+03  0.95386595269E+02 0.  0.
         23    2    1    2    0    0 -0.77416544167E+02 -0.26005974116E+01  0.65454596780E+02  0.13677617558E+03  0.91778720575E+02 0.  0.
        -13    1    3    3    0    0 -0.56776306764E+02 -0.88996448416E+01 -0.38689731103E+02  0.69279491777E+02  0.00000000000E+00 0. -1.
         13    1    3    3    0    0  0.33764093808E+02 -0.38572963094E+02 -0.43628474715E+02  0.67315164105E+02  0.00000000000E+00 0.  1.
        -13    1    4    4    0    0 -0.77486729651E+02 -0.36790266981E+02  0.43889911807E+02  0.96353730467E+02  0.00000000000E+00 0.  1.
         13    1    4    4    0    0  0.70185484076E-01  0.34189669570E+02  0.21564684973E+02  0.40422445118E+02  0.00000000000E+00 0. -1.
         -4    1    1    2    0  502  0.10042875712E+03  0.50073205347E+02  0.29592391486E+03  0.31648732129E+03  0.00000000000E+00 0.  1.
<scales pt_clust_5="13000.00000" pt_clust_6="13000.00000" pt_clust_7="13000.00000" pt_clust_8="13000.00000" pt_clust_9="103.12258"></scales>
<clustering>
<clus scale="   91.779">  7  8 -1 -1</clus>
<clus scale="   95.387">  5  6 -1 -1</clus>
<clus scale="  109.004">  2  5  1 -1</clus>
<clus scale="  103.123">  1  9  2 -1</clus>
<clus scale="  103.123">  1  5  2 -1</clus>
</clustering>
</event>
<event>
 9    1  0.1321469E-005  0.1135296E+03  0.7546771E-02  0.1254868E+00
         21   -1    0    0  501  502  0.00000000000E+00  0.00000000000E+00  0.16406763091E+03  0.16406763091E+03  0.00000000000E+00 0.  1.
          1   -1    0    0  502    0 -0.00000000000E+00 -0.00000000000E+00 -0.24106980098E+03  0.24106980098E+03  0.00000000000E+00 0. -1.
         23    2    1    2    0    0 -0.60632981705E+02  0.19956130848E+02 -0.18918785694E+03  0.21937476329E+03  0.90877037384E+02 0.  0.
         23    2    1    2    0    0  0.77394253877E+02 -0.89472292327E+01  0.72236147497E+02  0.14106253598E+03  0.92793612963E+02 0.  0.
        -11    1    4    4    0    0  0.73543897360E+02  0.22886179259E+02  0.76687384468E+02  0.10868963601E+03  0.00000000000E+00 0.  1.
         11    1    4    4    0    0  0.38503565174E+01 -0.31833408491E+02 -0.44512369711E+01  0.32372899964E+02  0.00000000000E+00 0. -1.
        -13    1    3    3    0    0 -0.41781409103E+02  0.53851585415E+02 -0.90173776955E+02  0.11303534602E+03  0.00000000000E+00 0. -1.
         13    1    3    3    0    0 -0.18851572602E+02 -0.33895454568E+02 -0.99014079988E+02  0.10633941727E+03  0.00000000000E+00 0.  1.
          1    1    1    2  501    0 -0.16761272172E+02 -0.11008901615E+02  0.39949539378E+02  0.44700132619E+02  0.00000000000E+00 0. -1.
<scales pt_clust_5="13000.00000" pt_clust_6="13000.00000" pt_clust_7="13000.00000" pt_clust_8="13000.00000" pt_clust_9="20.05333"></scales>
<clustering>
<clus scale="   20.053">  1  9  2 -1</clus>
<clus scale="   90.877">  7  8 -1 -1</clus>
<clus scale="   92.794">  5  6 -1 -1</clus>
<clus scale="  111.968">  2  7  1 -1</clus>
<clus scale="   20.053">  1  5  2 -1</clus>
</clustering>
</event>
<event>
 9    1  0.1321469E-005  0.1327054E+03  0.7546771E-02  0.1243310E+00
          3   -1    0    0  502    0 -0.00000000000E+00  0.00000000000E+00  0.69359804103E+02  0.69359804103E+02  0.00000000000E+00 0. -1.
         21   -1    0    0  501  502  0.00000000000E+00 -0.00000000000E+00 -0.56044411667E+03  0.56044411667E+03  0.00000000000E+00 0. -1.
         23    2    1    2    0    0 -0.27168062557E+02  0.24543171057E+02 -0.45909822170E+02  0.99563124292E+02  0.80402941976E+02 0.  0.
         23    2    1    2    0    0  0.80401103180E+02  0.56518905894E+02 -0.40268177142E+03  0.42436139291E+03  0.90946460332E+02 0.  0.
        -11    1    3    3    0    0 -0.40643730088E+02  0.42670713272E+02 -0.49160469212E+02  0.76742780115E+02  0.00000000000E+00 0.  1.
         11    1    3    3    0    0  0.13475667531E+02 -0.18127542215E+02  0.32506470422E+01  0.22820344177E+02  0.00000000000E+00 0. -1.
        -11    1    4    4    0    0  0.96235793212E+02  0.34031718369E+02 -0.26542681642E+03  0.28437805933E+03  0.00000000000E+00 0. -1.
         11    1    4    4    0    0 -0.15834690032E+02  0.22487187524E+02 -0.13725495500E+03  0.13998333359E+03  0.00000000000E+00 0.  1.
          3    1    1    2  501    0 -0.53233040623E+02 -0.81062076950E+02 -0.42492718978E+02  0.10587940357E+03  0.00000000000E+00 0. -1.
<scales pt_clust_5="13000.00000" pt_clust_6="13000.00000" pt_clust_7="13000.00000" pt_clust_8="13000.00000" pt_clust_9="96.64090"></scales>
<clustering>
<clus scale="   80.403">  5  6 -1 -1</clus>
<clus scale="   88.346">  1  5  2 -1</clus>
<clus scale="   90.946">  7  8 -1 -1</clus>
<clus scale="   96.641">  2  9  1 -1</clus>
<clus scale="   96.641">  2  5  1 -1</clus>
</clustering>
</event>
<event>
 9    1  0.1321469E-005  0.9953414E+02  0.7546771E-02  0.1284801E+00
          3   -1    0    0  502    0 -0.00000000000E+00  0.00000000000E+00  0.11871151091E+03  0.11871151091E+03  0.00000000000E+00 0. -1.
         21   -1    0    0  501  502  0.00000000000E+00 -0.00000000000E+00 -0.15648141138E+03  0.15648141138E+03  0.00000000000E+00 0. -1.
         23    2    1    2    0    0 -0.11444005037E+02 -0.87247290827E+01  0.34902112553E+02  0.99501006082E+02  0.92060885297E+02 0.  0.
         23    2    1    2    0    0 -0.12694962209E+02  0.21990190182E+02 -0.41670123700E+01  0.10185698333E+03  0.98553287775E+02 0.  0.
        -11    1    4    4    0    0  0.39500583773E+02  0.62037069512E+01  0.16885062176E+02  0.43403771991E+02  0.00000000000E+00 0.  1.
         11    1    4    4    0    0 -0.52195545982E+02  0.15786483231E+02 -0.21052074546E+02  0.58453211339E+02  0.00000000000E+00 0. -1.
        -11    1    3    3    0    0  0.32928251147E+02 -0.10667597384E+02 -0.10316756092E+02  0.36117901570E+02  0.00000000000E+00 0.  1.
         11    1    3    3    0    0 -0.44372256183E+02  0.19428683014E+01  0.45218868645E+02  0.63383104512E+02  0.00000000000E+00 0. -1.
          3    1    1    2  501    0  0.24138967246E+02 -0.13265461099E+02 -0.68505000659E+02  0.73834932879E+02  0.00000000000E+00 0. -1.
<scales pt_clust_5="13000.00000" pt_clust_6="13000.00000" pt_clust_7="13000.00000" pt_clust_8="13000.00000" pt_clust_9="27.54382"></scales>
<clustering>
<clus scale="   27.544">  2  9  1 -1</clus>
<clus scale="   92.061">  7  8 -1 -1</clus>
<clus scale="   93.110">  1  7  2 -1</clus>
<clus scale="   98.553">  5  6 -1 -1</clus>
<clus scale="   27.544">  2  5  1 -1</clus>
</clustering>
</event>
<event>
 9    1  0.1321469E-005  0.1239080E+03  0.7546771E-02  0.1240000E+00
          1   -1    0    0  502    0 -0.00000000000E+00  0.00000000000E+00  0.36180630338E+03  0.36180630338E+03  0.00000000000E+00 0. -1.
         21   -1    0    0  501  502  0.00000000000E+00 -0.00000000000E+00 -0.12865706559E+03  0.12865706559E+03  0.00000000000E+00 0. -1.
         23    2    1    2    0    0 -0.84340339857E+02 -0.53971249371E+01  0.28267152643E+03  0.30790805108E+03  0.88100818254E+02 0.  0.
         23    2    1    2    0    0  0.29496972641E+02  0.35391879052E+02 -0.10788218311E+02  0.10901751532E+03  0.98212914095E+02 0.  0.
        -11    1    3    3    0    0 -0.95939794120E+02  0.16060993016E+02  0.23560276731E+03  0.25489422032E+03  0.00000000000E+00 0. -1.
         11    1    3    3    0    0  0.11599454263E+02 -0.21458117953E+02  0.47068759127E+02  0.53013830752E+02  0.00000000000E+00 0.  1.
        -13    1    4    4    0    0  0.56701776131E+02  0.31047982542E+02  0.20032879115E+02  0.67678540779E+02  0.00000000000E+00 0.  1.
         13    1    4    4    0    0 -0.27204803490E+02  0.43438965103E+01 -0.30821097426E+02  0.41338974544E+02  0.00000000000E+00 0. -1.
          1    1    1    2  501    0  0.54843367216E+02 -0.29994754115E+02 -0.38734070330E+02  0.73537802566E+02  0.00000000000E+00 0. -1.
<scales pt_clust_5="13000.00000" pt_clust_6="13000.00000" pt_clust_7="13000.00000" pt_clust_8="13000.00000" pt_clust_9="62.50984"></scales>
<clustering>
<clus scale="   62.510">  2  9  1 -1</clus>
<clus scale="   88.101">  5  6 -1 -1</clus>
<clus scale="   98.213">  7  8 -1 -1</clus>
<clus scale="  116.057">  1  5  2 -1</clus>
<clus scale="   62.510">  2  5  1 -1</clus>
</clustering>
</event>
<event>
 9    1  0.1321469E-005  0.1035309E+03  0.7546771E-02  0.1273317E+00
         -4   -1    0    0    0  501 -0.00000000000E+00  0.00000000000E+00  0.67904361200E+02  0.67904361200E+02  0.00000000000E+00 0.  1.
         21   -1    0    0  501  502  0.00000000000E+00 -0.00000000000E+00 -0.30820274499E+03  0.30820274499E+03  0.00000000000E+00 0. -1.
         23    2    1    2    0    0  0.23987934354E+01 -0.42776852153E+02 -0.59657537857E+01  0.10131097766E+03  0.91611738803E+02 0.  0.
         23    2    1    2    0    0 -0.80807272867E+01  0.65017790720E+02 -0.22094173796E+03  0.24822058130E+03  0.92225778091E+02 0.  0.
        -11    1    4    4    0    0 -0.45534479275E+02  0.35125018119E+02 -0.74349978152E+02  0.93995079402E+02  0.00000000000E+00 0.  1.
         11    1    4    4    0    0  0.37453751989E+02  0.29892772602E+02 -0.14659175981E+03  0.15422550190E+03  0.00000000000E+00 0. -1.
        -11    1    3    3    0    0  0.14610097775E+02  0.25186120121E+02 -0.13029598723E+02  0.31899311068E+02  0.00000000000E+00 0.  1.
         11    1    3    3    0    0 -0.12211304339E+02 -0.67962972274E+02  0.70638449369E+01  0.69411666594E+02  0.00000000000E+00 0. -1.
         -4    1    1    2    0  502  0.56819338513E+01 -0.22240938567E+02 -0.13390892041E+02  0.26575547225E+02  0.00000000000E+00 0.  1.
<scales pt_clust_5="13000.00000" pt_clust_6="13000.00000" pt_clust_7="13000.00000" pt_clust_8="13000.00000" pt_clust_9="22.95527"></scales>
<clustering>
<clus scale="   22.955">  2  9  1 -1</clus>
<clus scale="   91.612">  7  8 -1 -1</clus>
<clus scale="   92.226">  5  6 -1 -1</clus>
<clus scale="  102.984">  1  7  2 -1</clus>
<clus scale="   22.955">  2  5  1 -1</clus>
</clustering>
</event>
<event>
 9    1  0.1321469E-005  0.1766517E+03  0.7546771E-02  0.1171121E+00
         21   -1    0    0  501  502  0.00000000000E+00  0.00000000000E+00  0.11467730200E+03  0.11467730200E+03  0.00000000000E+00 0. -1.
          1   -1    0    0  502    0 -0.00000000000E+00 -0.00000000000E+00 -0.49916726772E+03  0.49916726772E+03  0.00000000000E+00 0. -1.
         23    2    1    2    0    0  0.12267500182E+03 -0.72051041685E+02 -0.32256748030E+03  0.36477323300E+03  0.93644132155E+02 0.  0.
         23    2    1    2    0    0 -0.16275944826E+03  0.72284972097E+02 -0.54148205880E+02  0.20823927833E+03  0.93358522097E+02 0.  0.
        -11    1    4    4    0    0 -0.16445798273E+03  0.50901494834E+02 -0.27998545859E+02  0.17441705430E+03  0.00000000000E+00 0. -1.
         11    1    4    4    0    0  0.16985344646E+01  0.21383477263E+02 -0.26149660021E+02  0.33822224031E+02  0.00000000000E+00 0.  1.
        -13    1    3    3    0    0  0.15502849954E+02 -0.57276072940E+02 -0.14733665018E+03  0.15883631630E+03  0.00000000000E+00 0.  1.
         13    1    3    3    0    0  0.10717215187E+03 -0.14774968745E+02 -0.17523083012E+03  0.20593691670E+03  0.00000000000E+00 0. -1.
          1    1    1    2  501    0  0.40084446439E+02 -0.23393041156E+00 -0.77742795453E+01  0.40832058388E+02  0.00000000000E+00 0. -1.
<scales pt_clust_5="13000.00000" pt_clust_6="13000.00000" pt_clust_7="13000.00000" pt_clust_8="13000.00000" pt_clust_9="40.08513"></scales>
<clustering>
<clus scale="   40.085">  1  9  2 -1</clus>
<clus scale="   93.359">  5  6 -1 -1</clus>
<clus scale="   93.644">  7  8 -1 -1</clus>
<clus scale="  176.500">  1  5  2 -1</clus>
<clus scale="   40.085">  1  5  2 -1</clus>
</clustering>
</event>
<event>
 9    1  0.1321469E-005  0.1929998E+03  0.7546771E-02  0.1155903E+00
          2   -1    0    0  502    0 -0.00000000000E+00  0.00000000000E+00  0.10844910288E+04  0.10844910288E+04  0.00000000000E+00 0. -1.
         21   -1    0    0  501  502  0.00000000000E+00 -0.00000000000E+00 -0.74154330737E+02  0.74154330737E+02  0.00000000000E+00 0. -1.
         23    2    1    2    0    0  0.83725559455E+02  0.16506303748E+03  0.82299707203E+03  0.84866413101E+03  0.93009951322E+02 0.  0.
         23    2    1    2    0    0 -0.86781634302E+02 -0.78689826420E+02  0.70713158259E+02  0.16482130234E+03  0.91883459456E+02 0.  0.
        -11    1    4    4    0    0 -0.40332390780E+01 -0.38460355171E+02 -0.12625512329E+02  0.40680087253E+02  0.00000000000E+00 0. -1.
         11    1    4    4    0    0 -0.82748395224E+02 -0.40229471249E+02  0.83338670588E+02  0.12414121509E+03  0.00000000000E+00 0.  1.
        -13    1    3    3    0    0  0.90178945617E+00  0.76947729905E+02  0.45060750091E+03  0.45713114775E+03  0.00000000000E+00 0.  1.
         13    1    3    3    0    0  0.82823769999E+02  0.88115307571E+02  0.37238957111E+03  0.39153298326E+03  0.00000000000E+00 0. -1.
          2    1    1    2  501    0  0.30560748470E+01 -0.86373211056E+02  0.11662646773E+03  0.14515992614E+03  0.00000000000E+00 0. -1.
<scales pt_clust_5="13000.00000" pt_clust_6="13000.00000" pt_clust_7="13000.00000" pt_clust_8="13000.00000" pt_clust_9="86.42726"></scales>
<clustering>
<clus scale="   86.427">  2  9  1 -1</clus>
<clus scale="   91.883">  5  6 -1 -1</clus>
<clus scale="   93.010">  7  8 -1 -1</clus>
<clus scale="  192.459">  2  5  1 -1</clus>
<clus scale="   86.427">  2  5  1 -1</clus>
</clustering>
</event>
<event>
 9    1  0.1321469E-005  0.1069238E+03  0.7546771E-02  0.1274330E+00
         21   -1    0    0  501  502  0.00000000000E+00  0.00000000000E+00  0.39106424135E+03  0.39106424135E+03  0.00000000000E+00 0.  1.
          1   -1    0    0  502    0 -0.00000000000E+00 -0.00000000000E+00 -0.45372459797E+02  0.45372459797E+02  0.00000000000E+00 0. -1.
         23    2    1    2    0    0 -0.39139294820E+02 -0.98932206371E+01  0.54552427709E+02  0.11851745877E+03  0.97163061149E+02 0.  0.
         23    2    1    2    0    0  0.46562178667E+02  0.32602964947E+02  0.18866177672E+03  0.21269336388E+03  0.80088770987E+02 0.  0.
        -13    1    4    4    0    0 -0.19986480265E+02 -0.62938554992E+01  0.35328343158E+02  0.41075100008E+02  0.00000000000E+00 0.  1.
         13    1    4    4    0    0  0.66548658932E+02  0.38896820447E+02  0.15333343356E+03  0.17161826387E+03  0.00000000000E+00 0. -1.
        -13    1    3    3    0    0  0.29761714301E+02 -0.18349036755E+02  0.25453564033E+02  0.43247320264E+02  0.00000000000E+00 0. -1.
         13    1    3    3    0    0 -0.68901009122E+02  0.84558161175E+01  0.29098863676E+02  0.75270138511E+02  0.00000000000E+00 0.  1.
          1    1    1    2  501    0 -0.74228838464E+01 -0.22709744310E+02  0.10247757713E+03  0.10522587849E+03  0.00000000000E+00 0. -1.
<scales pt_clust_5="13000.00000" pt_clust_6="13000.00000" pt_clust_7="13000.00000" pt_clust_8="13000.00000" pt_clust_9="23.89208"></scales>
<clustering>
<clus scale="   23.892">  1  9  2 -1</clus>
<clus scale="   80.089">  5  6 -1 -1</clus>
<clus scale="   91.686">  1  5  2 -1</clus>
<clus scale="   97.163">  7  8 -1 -1</clus>
<clus scale="   23.892">  1  5  2 -1</clus>
</clustering>
</event>
<event>
 9    1  0.1321469E-005  0.1028981E+03  0.7546771E-02  0.1274505E+00
          3   -1    0    0  502    0 -0.00000000000E+00  0.00000000000E+00  0.16026650570E+03  0.16026650570E+03  0.00000000000E+00 0. -1.
         21   -1    0    0  501  502  0.00000000000E+00 -0.00000000000E+00 -0.17464044012E+03  0.17464044012E+03  0.00000000000E+00 0. -1.
         23    2    1    2    0    0  0.51091682240E+02 -0.52143720119E+02  0.62948672146E+02  0.13280465654E+03  0.91352142452E+02 0.  0.
         23    2    1    2    0    0 -0.18841854332E+02  0.64888415950E+01  0.14886202879E+02  0.94274260120E+02  0.90933583153E+02 0.  0.
        -11    1    3    3    0    0  0.17251742697E+01 -0.61347336449E+02  0.54102902571E+02  0.81814399602E+02  0.00000000000E+00 0.  1.
         11    1    3    3    0    0  0.49366507971E+02  0.92036163304E+01  0.88457695751E+01  0.50990256934E+02  0.00000000000E+00 0. -1.
        -11    1    4    4    0    0  0.26403090598E+02 -0.20136151185E+02 -0.11981544814E+02  0.35300781773E+02  0.00000000000E+00 0. -1.
         11    1    4    4    0    0 -0.45244944930E+02  0.26624992780E+02  0.26867747693E+02  0.58973478347E+02  0.00000000000E+00 0.  1.
          3    1    1    2  501    0 -0.32249827908E+02  0.45654878524E+02 -0.92208809452E+02  0.10782802916E+03  0.00000000000E+00 0. -1.
<scales pt_clust_5="13000.00000" pt_clust_6="13000.00000" pt_clust_7="13000.00000" pt_clust_8="13000.00000" pt_clust_9="55.89651"></scales>
<clustering>
<clus scale="   55.897">  2  9  1 -1</clus>
<clus scale="   90.934">  7  8 -1 -1</clus>
<clus scale="   91.352">  5  6 -1 -1</clus>
<clus scale="  102.527">  2  7  1 -1</clus>
<clus scale="   55.897">  2  5  1 -1</clus>
</clustering>
</event>
<event>
 9    1  0.1321469E-005  0.1001999E+03  0.7546771E-02  0.1280016E+00
         21   -1    0    0  501  502  0.00000000000E+00  0.00000000000E+00  0.13326283116E+03  0.13326283116E+03  0.00000000000E+00 0.  1.
         -1   -1    0    0    0  501 -0.00000000000E+00 -0.00000000000E+00 -0.21483405179E+03  0.21483405179E+03  0.00000000000E+00 0.  1.
         23    2    1    2    0    0  0.56293005297E+02 -0.10111548111E+02 -0.12314377835E+03  0.16388077508E+03  0.91768036066E+02 0.  0.
         23    2    1    2    0    0  0.31140079295E+01  0.27664639461E+02 -0.18485415377E+02  0.97935957388E+02  0.92058198146E+02 0.  0.
        -11    1    3    3    0    0  0.34194630996E+02 -0.28138836961E+02 -0.12755440461E+03  0.13502293535E+03  0.00000000000E+00 0.  1.
         11    1    3    3    0    0  0.22098374301E+02  0.18027288850E+02  0.44106262585E+01  0.28857839732E+02  0.00000000000E+00 0. -1.
        -13    1    4    4    0    0  0.42413758502E+02  0.33958669519E+02 -0.20530535300E+02  0.58082880657E+02  0.00000000000E+00 0.  1.
         13    1    4    4    0    0 -0.39299750572E+02 -0.62940300587E+01  0.20451199222E+01  0.39853076731E+02  0.00000000000E+00 0. -1.
         -1    1    1    2    0  502 -0.59407013226E+02 -0.17553091349E+02  0.60057973087E+02  0.86280150485E+02  0.00000000000E+00 0.  1.
<scales pt_clust_5="13000.00000" pt_clust_6="13000.00000" pt_clust_7="13000.00000" pt_clust_8="13000.00000" pt_clust_9="61.94598"></scales>
<clustering>
<clus scale="   61.946">  1  9  2 -1</clus>
<clus scale="   91.768">  5  6 -1 -1</clus>
<clus scale="   92.058">  7  8 -1 -1</clus>
<clus scale="   99.933">  2  5  1 -1</clus>
<clus scale="   61.946">  1  5  2 -1</clus>
</clustering>
</event>
<event>
 9    1  0.1321469E-005  0.1272770E+03  0.7546771E-02  0.1232399E+00
         21   -1    0    0  501  502  0.00000000000E+00  0.00000000000E+00  0.28921186106E+03  0.28921186106E+03  0.00000000000E+00 0. -1.
          2   -1    0    0  502    0 -0.00000000000E+00 -0.00000000000E+00 -0.12678166856E+03  0.12678166856E+03  0.00000000000E+00 0. -1.
         23    2    1    2    0    0 -0.70052282018E+01  0.98101152804E+02 -0.46032156774E+02  0.14072227965E+03  0.89503581648E+02 0.  0.
         23    2    1    2    0    0  0.91140940068E+01 -0.63363560673E+02  0.70052821790E+02  0.13255353938E+03  0.92547476626E+02 0.  0.
        -11    1    4    4    0    0  0.27053594592E+02 -0.17650014198E+02 -0.14000936538E+02  0.35205769492E+02  0.00000000000E+00 0.  1.
         11    1    4    4    0    0 -0.17939500586E+02 -0.45713546475E+02  0.84053758328E+02  0.97347769885E+02  0.00000000000E+00 0. -1.
        -13    1    3    3    0    0 -0.21675781827E+02  0.40204148692E+02  0.21572480165E+02  0.50513215997E+02  0.00000000000E+00 0.  1.
         13    1    3    3    0    0  0.14670553626E+02  0.57897004112E+02 -0.67604636939E+02  0.90209063649E+02  0.00000000000E+00 0. -1.
          2    1    1    2  501    0 -0.21088658050E+01 -0.34737592132E+02  0.13840952748E+03  0.14271771060E+03  0.00000000000E+00 0. -1.
<scales pt_clust_5="13000.00000" pt_clust_6="13000.00000" pt_clust_7="13000.00000" pt_clust_8="13000.00000" pt_clust_9="34.80155"></scales>
<clustering>
<clus scale="   34.802">  1  9  2 -1</clus>
<clus scale="   89.504">  7  8 -1 -1</clus>
<clus scale="   92.547">  5  6 -1 -1</clus>
<clus scale="  125.081">  2  7  1 -1</clus>
<clus scale="   34.802">  1  5  2 -1</clus>
</clustering>
</event>
<event>
 9    1  0.1321469E-005  0.1514422E+03  0.7546771E-02  0.1220635E+00
         21   -1    0    0  501  502  0.00000000000E+00  0.00000000000E+00  0.18238405941E+03  0.18238405941E+03  0.00000000000E+00 0.  1.
          1   -1    0    0  502    0 -0.00000000000E+00 -0.00000000000E+00 -0.53908394446E+03  0.53908394446E+03  0.00000000000E+00 0. -1.
         23    2    1    2    0    0  0.20354695637E+02 -0.78343644239E+01 -0.42768274753E+03  0.43806334337E+03  0.92256541060E+02 0.  0.
         23    2    1    2    0    0 -0.84863935171E+02  0.10111684489E+03  0.54825732526E+02  0.16884412631E+03  0.89866424361E+02 0.  0.
        -11    1    4    4    0    0 -0.56450680801E+02  0.67286731416E+02  0.79305189023E+02  0.11833637054E+03  0.00000000000E+00 0.  1.
         11    1    4    4    0    0 -0.28413254370E+02  0.33830113476E+02 -0.24479456498E+02  0.50507755762E+02  0.00000000000E+00 0. -1.
        -13    1    3    3    0    0 -0.37016906021E+02 -0.43273473126E+01 -0.16119846658E+03  0.16545066604E+03  0.00000000000E+00 0.  1.
         13    1    3    3    0    0  0.57371601658E+02 -0.35070171113E+01 -0.26648428095E+03  0.27261267733E+03  0.00000000000E+00 0. -1.
          1    1    1    2  501    0  0.64509239534E+02 -0.93282480468E+02  0.16157129949E+02  0.11456053420E+03  0.00000000000E+00 0. -1.
<scales pt_clust_5="13000.00000" pt_clust_6="13000.00000" pt_clust_7="13000.00000" pt_clust_8="13000.00000" pt_clust_9="121.89664"></scales>
<clustering>
<clus scale="   89.866">  5  6 -1 -1</clus>
<clus scale="   92.257">  7  8 -1 -1</clus>
<clus scale="   94.800">  2  7  1 -1</clus>
<clus scale="  121.897">  1  9  2 -1</clus>
<clus scale="  121.897">  1  5  2 -1</clus>
</clustering>
</event>
<event>
 9    1  0.1321469E-005  0.2308483E+03  0.7546771E-02  0.1126677E+00
         21   -1    0    0  501  502  0.00000000000E+00  0.00000000000E+00  0.11079639658E+03  0.11079639658E+03  0.00000000000E+00 0.  1.
          2   -1    0    0  502    0 -0.00000000000E+00 -0.00000000000E+00 -0.77996169679E+03  0.77996169679E+03  0.00000000000E+00 0. -1.
         23    2    1    2    0    0  0.17802009448E+03 -0.42946333493E+02 -0.31852778475E+03  0.37666384176E+03  0.82946720460E+02 0.  0.
         23    2    1    2    0    0 -0.24830497972E+03  0.83147440956E+02 -0.32856319506E+03  0.43016946531E+03  0.92320831074E+02 0.  0.
        -11    1    4    4    0    0 -0.22550928713E+03  0.90425839810E+02 -0.25241234385E+03  0.35034734538E+03  0.00000000000E+00 0.  1.
         11    1    4    4    0    0 -0.22795692585E+02 -0.72783988546E+01 -0.76150851213E+02  0.79822119934E+02  0.00000000000E+00 0. -1.
        -13    1    3    3    0    0  0.11995789331E+03  0.10055834052E+02 -0.16582172180E+03  0.20490939311E+03  0.00000000000E+00 0.  1.
         13    1    3    3    0    0  0.58062201171E+02 -0.53002167544E+02 -0.15270606295E+03  0.17175444865E+03  0.00000000000E+00 0. -1.
          2    1    1    2  501    0  0.70284885237E+02 -0.40201107463E+02 -0.22074320402E+02  0.83924786299E+02  0.00000000000E+00 0. -1.
<scales pt_clust_5="13000.00000" pt_clust_6="13000.00000" pt_clust_7="13000.00000" pt_clust_8="13000.00000" pt_clust_9="80.96971"></scales>
<clustering>
<clus scale="   80.970">  1  9  2 -1</clus>
<clus scale="   82.947">  7  8 -1 -1</clus>
<clus scale="   92.321">  5  6 -1 -1</clus>
<clus scale="  227.262">  2  7  1 -1</clus>
<clus scale="   80.970">  1  5  2 -1</clus>
</clustering>
</event>
<event>
 9    1  0.1321469E-005  0.1038304E+03  0.7546771E-02  0.1276753E+00
         21   -1    0    0  501  502  0.00000000000E+00  0.00000000000E+00  0.89989853396E+02  0.89989853396E+02  0.00000000000E+00 0. -1.
          3   -1    0    0  502    0 -0.00000000000E+00 -0.00000000000E+00 -0.24491337766E+03  0.24491337766E+03  0.00000000000E+00 0. -1.
         23    2    1    2    0    0  0.40684643247E+01  0.30036741723E+02 -0.18482139362E+03  0.21205505911E+03  0.99446680675E+02 0.  0.
         23    2    1    2    0    0 -0.25094789608E+02 -0.23171783821E+02  0.23402842977E+02  0.99795636952E+02  0.90800859381E+02 0.  0.
        -11    1    3    3    0    0 -0.70701323872E+00  0.54816340153E+02 -0.47813381860E+02  0.72742356990E+02  0.00000000000E+00 0. -1.
         11    1    3    3    0    0  0.47754775635E+01 -0.24779598431E+02 -0.13700801176E+03  0.13931270212E+03  0.00000000000E+00 0.  1.
        -13    1    4    4    0    0  0.15017930405E+02 -0.39651488112E+02  0.34917094437E+02  0.54927062793E+02  0.00000000000E+00 0.  1.
         13    1    4    4    0    0 -0.40112720013E+02  0.16479704291E+02 -0.11514251461E+02  0.44868574159E+02  0.00000000000E+00 0. -1.
          3    1    1    2  501    0  0.21026325283E+02 -0.68649579021E+01  0.64950263843E+01  0.23052534994E+02  0.00000000000E+00 0. -1.
<scales pt_clust_5="13000.00000" pt_clust_6="13000.00000" pt_clust_7="13000.00000" pt_clust_8="13000.00000" pt_clust_9="22.11863"></scales>
<clustering>
<clus scale="   22.119">  1  9  2 -1</clus>
<clus scale="   90.801">  7  8 -1 -1</clus>
<clus scale="   95.582">  1  7  2 -1</clus>
<clus scale="   99.447">  5  6 -1 -1</clus>
<clus scale="   22.119">  1  5  2 -1</clus>
</clustering>
</event>
<event>
 9    1  0.1321469E-005  0.1425099E+03  0.7546771E-02  0.1211825E+00
          4   -1    0    0  502    0 -0.00000000000E+00  0.00000000000E+00  0.37538159878E+02  0.37538159878E+02  0.00000000000E+00 0. -1.
         21   -1    0    0  501  502  0.00000000000E+00 -0.00000000000E+00 -0.75990810351E+03  0.75990810351E+03  0.00000000000E+00 0. -1.
         23    2    1    2    0    0  0.11600615084E+03  0.35767845009E+02 -0.23188487382E+03  0.27974216846E+03  0.98733582620E+02 0.  0.
         23    2    1    2    0    0 -0.69679719093E+02 -0.27747145038E+02 -0.37455202459E+03  0.39260037443E+03  0.90667897147E+02 0.  0.
        -11    1    4    4    0    0  0.98035999568E+01  0.18813707725E+02 -0.12072990569E+03  0.12257967327E+03  0.00000000000E+00 0.  1.
         11    1    4    4    0    0 -0.79483319050E+02 -0.46560852763E+02 -0.25382211890E+03  0.27002070117E+03  0.00000000000E+00 0. -1.
        -11    1    3    3    0    0  0.38859369817E+02  0.23155038569E+01 -0.17240277259E+03  0.17674311352E+03  0.00000000000E+00 0.  1.
         11    1    3    3    0    0  0.77146781027E+02  0.33452341152E+02 -0.59482101235E+02  0.10299905494E+03  0.00000000000E+00 0. -1.
          4    1    1    2  501    0 -0.46326431750E+02 -0.80206999709E+01 -0.11593304522E+03  0.12510372049E+03  0.00000000000E+00 0. -1.
<scales pt_clust_5="13000.00000" pt_clust_6="13000.00000" pt_clust_7="13000.00000" pt_clust_8="13000.00000" pt_clust_9="47.01563"></scales>
<clustering>
<clus scale="   47.016">  2  9  1 -1</clus>
<clus scale="   90.668">  5  6 -1 -1</clus>
<clus scale="   98.734">  7  8 -1 -1</clus>
<clus scale="  137.045">  2  5  1 -1</clus>
<clus scale="   47.016">  2  5  1 -1</clus>
</clustering>
</event>
<event>
 9    1  0.1321469E-005  0.2029660E+03  0.7546771E-02  0.1147670E+00
          2   -1    0    0  502    0 -0.00000000000E+00  0.00000000000E+00  0.54459011549E+03  0.54459011549E+03  0.00000000000E+00 0. -1.
         21   -1    0    0  501  502  0.00000000000E+00 -0.00000000000E+00 -0.11943571199E+03  0.11943571199E+03  0.00000000000E+00 0.  1.
         23    2    1    2    0    0  0.18845120764E+03 -0.10092083939E+03  0.30407265586E+03  0.38242705072E+03  0.89952185055E+02 0.  0.
         23    2    1    2    0    0 -0.11482109305E+03  0.92358527465E+02  0.11838466995E+03  0.20742343593E+03  0.85414112948E+02 0.  0.
        -11    1    4    4    0    0 -0.63239536694E+02  0.44669843060E+02  0.97250362981E+01  0.78033391643E+02  0.00000000000E+00 0.  1.
         11    1    4    4    0    0 -0.51581556354E+02  0.47688684405E+02  0.10865963365E+03  0.12939004429E+03  0.00000000000E+00 0. -1.
        -11    1    3    3    0    0  0.16999762193E+03 -0.10874914192E+03  0.23138187655E+03  0.30702302866E+03  0.00000000000E+00 0.  1.
         11    1    3    3    0    0  0.18453585701E+02  0.78283025320E+01  0.72690779309E+02  0.75404022056E+02  0.00000000000E+00 0. -1.
          2    1    1    2  501    0 -0.73630114588E+02  0.85623119216E+01  0.26970776884E+01  0.74175340833E+02  0.00000000000E+00 0. -1.
<scales pt_clust_5="13000.00000" pt_clust_6="13000.00000" pt_clust_7="13000.00000" pt_clust_8="13000.00000" pt_clust_9="74.12629"></scales>
<clustering>
<clus scale="   74.126">  2  9  1 -1</clus>
<clus scale="   85.414">  5  6 -1 -1</clus>
<clus scale="   89.952">  7  8 -1 -1</clus>
<clus scale="  200.996">  2  5  1 -1</clus>
<clus scale="   74.126">  2  5  1 -1</clus>
</clustering>
</event>
<event>
 9    1  0.1321469E-005  0.1575393E+03  0.7546771E-02  0.1192493E+00
         21   -1    0    0  501  502  0.00000000000E+00  0.00000000000E+00  0.49620460404E+03  0.49620460404E+03  0.00000000000E+00 0. -1.
          1   -1    0    0  502    0 -0.00000000000E+00 -0.00000000000E+00 -0.11556686451E+03  0.11556686451E+03  0.00000000000E+00 0. -1.
         23    2    1    2    0    0 -0.70069436527E+02 -0.11580250803E+03 -0.24328547993E+02  0.16456299886E+03  0.90383380911E+02 0.  0.
         23    2    1    2    0    0  0.38650533453E+02  0.64010776717E+02  0.32381694070E+03  0.34594274304E+03  0.96061059258E+02 0.  0.
        -11    1    3    3    0    0 -0.49525132488E+01 -0.93908013726E+02 -0.15232544452E+02  0.95264226444E+02  0.00000000000E+00 0. -1.
         11    1    3    3    0    0 -0.65116923278E+02 -0.21894494307E+02 -0.90960035406E+01  0.69298772418E+02  0.00000000000E+00 0.  1.
        -13    1    4    4    0    0  0.48823256884E+02 -0.57595458332E+00  0.81939231414E+02  0.95383854929E+02  0.00000000000E+00 0. -1.
         13    1    4    4    0    0 -0.10172723430E+02  0.64586731301E+02  0.24187770929E+03  0.25055888812E+03  0.00000000000E+00 0.  1.
          1    1    1    2  501    0  0.31418903073E+02  0.51791731316E+02  0.81149346816E+02  0.10126572664E+03  0.00000000000E+00 0. -1.
<scales pt_clust_5="13000.00000" pt_clust_6="13000.00000" pt_clust_7="13000.00000" pt_clust_8="13000.00000" pt_clust_9="60.57665"></scales>
<clustering>
<clus scale="   60.577">  1  9  2 -1</clus>
<clus scale="   90.383">  5  6 -1 -1</clus>
<clus scale="   96.061">  7  8 -1 -1</clus>
<clus scale="  154.143">  2  5  1 -1</clus>
<clus scale="   60.577">  1  5  2 -1</clus>
</clustering>
</event>
<event>
 9    1  0.1321469E-005  0.1084466E+03  0.7546771E-02  0.1270188E+00
         21   -1    0    0  501  502  0.00000000000E+00  0.00000000000E+00  0.66081272500E+03  0.66081272500E+03  0.00000000000E+00 0. -1.
         -3   -1    0    0    0  501 -0.00000000000E+00 -0.00000000000E+00 -0.27524126993E+02  0.27524126993E+02  0.00000000000E+00 0.  1.
         23    2    1    2    0    0  0.13902591753E+02  0.28583140660E+02  0.14425999144E+03  0.18191531550E+03  0.10616948194E+03 0.  0.
         23    2    1    2    0    0  0.24765312687E+01  0.15559632075E+01  0.40891262271E+03  0.41927102231E+03  0.92574850301E+02 0.  0.
        -11    1    3    3    0    0 -0.30968447400E+02  0.23853564165E+02  0.10103514741E+02  0.40374723130E+02  0.00000000000E+00 0.  1.
         11    1    3    3    0    0  0.44871039152E+02  0.47295764948E+01  0.13415647670E+03  0.14154059237E+03  0.00000000000E+00 0. -1.
        -13    1    4    4    0    0  0.47177991019E+02 -0.36628660963E+01  0.22629118836E+03  0.23118581564E+03  0.00000000000E+00 0. -1.
         13    1    4    4    0    0 -0.44701459751E+02  0.52188293038E+01  0.18262143435E+03  0.18808520667E+03  0.00000000000E+00 0.  1.
         -3    1    1    2    0  502 -0.16379123021E+02 -0.30139103867E+02  0.80115983859E+02  0.87150514184E+02  0.00000000000E+00 0.  1.
<scales pt_clust_5="13000.00000" pt_clust_6="13000.00000" pt_clust_7="13000.00000" pt_clust_8="13000.00000" pt_clust_9="34.30222"></scales>
<clustering>
<clus scale="   34.302">  1  9  2 -1</clus>
<clus scale="   92.575">  7  8 -1 -1</clus>
<clus scale="   95.178">  1  7  2 -1</clus>
<clus scale="  106.169">  5  6 -1 -1</clus>
<clus scale="   34.302">  1  5  2 -1</clus>
</clustering>
</event>
<event>
 9    1  0.1321469E-005  0.9408501E+02  0.7546771E-02  0.1294119E+00
         21   -1    0    0  501  502  0.00000000000E+00  0.00000000000E+00  0.71548592590E+02  0.71548592590E+02  0.00000000000E+00 0.  1.
          1   -1    0    0  502    0 -0.00000000000E+00 -0.00000000000E+00 -0.16047861225E+03  0.16047861225E+03  0.00000000000E+00 0. -1.
         23    2    1    2    0    0 -0.69376829356E+01 -0.20286866244E+02 -0.57666916390E+02  0.11053696995E+03  0.91832783325E+02 0.  0.
         23    2    1    2    0    0 -0.30264329840E+01 -0.12081281094E+01 -0.21429458585E+02  0.95838354721E+02  0.93354965964E+02 0.  0.
        -11    1    3    3    0    0  0.33395666140E+02 -0.30356844326E+02 -0.51555951647E+02  0.68518790595E+02  0.00000000000E+00 0.  1.
         11    1    3    3    0    0 -0.40333349076E+02  0.10069978082E+02 -0.61109647432E+01  0.42018179355E+02  0.00000000000E+00 0. -1.
        -13    1    4    4    0    0  0.14430670617E+02 -0.28510734688E+02 -0.45408326842E+02  0.55524970900E+02  0.00000000000E+00 0. -1.
         13    1    4    4    0    0 -0.17457103601E+02  0.27302606579E+02  0.23978868257E+02  0.40313383820E+02  0.00000000000E+00 0.  1.
          1    1    1    2  501    0  0.99641159196E+01  0.21494994354E+02 -0.98336446829E+01  0.25651880167E+02  0.00000000000E+00 0. -1.
<scales pt_clust_5="13000.00000" pt_clust_6="13000.00000" pt_clust_7="13000.00000" pt_clust_8="13000.00000" pt_clust_9="23.69217"></scales>
<clustering>
<clus scale="   23.692">  1  9  2 -1</clus>
<clus scale="   91.833">  5  6 -1 -1</clus>
<clus scale="   92.575">  2  5  1 -1</clus>
<clus scale="   93.355">  7  8 -1 -1</clus>
<clus scale="   23.692">  1  5  2 -1</clus>
</clustering>
</event>
<event>
 9    1  0.1321469E-005  0.1028457E+03  0.7546771E-02  0.1279667E+00
          1   -1    0    0  502    0 -0.00000000000E+00  0.00000000000E+00  0.32163195453E+03  0.32163195453E+03  0.00000000000E+00 0. -1.
         21   -1    0    0  501  502  0.00000000000E+00 -0.00000000000E+00 -0.71530328021E+02  0.71530328021E+02  0.00000000000E+00 0.  1.
         23    2    1    2    0    0 -0.99069059880E+01 -0.29569482534E+02  0.14884322534E+03  0.17753896115E+03  0.91614823654E+02 0.  0.
         23    2    1    2    0    0  0.44921176622E+02  0.52986006749E+02  0.12750306459E+03  0.16599354089E+03  0.80444981909E+02 0.  0.
        -11    1    3    3    0    0 -0.19413280449E+02  0.30311403221E+02  0.50713829002E+02  0.62189621925E+02  0.00000000000E+00 0.  1.
         11    1    3    3    0    0  0.95063744614E+01 -0.59880885755E+02  0.98129396343E+02  0.11534933923E+03  0.00000000000E+00 0. -1.
        -13    1    4    4    0    0 -0.22195935117E+02  0.12994415069E+02  0.48415093332E+02  0.54822765537E+02  0.00000000000E+00 0. -1.
         13    1    4    4    0    0  0.67117111739E+02  0.39991591680E+02  0.79087971262E+02  0.11117077535E+03  0.00000000000E+00 0.  1.
          1    1    1    2  501    0 -0.35014270634E+02 -0.23416524215E+02 -0.26244663434E+02  0.49629780507E+02  0.00000000000E+00 0. -1.
<scales pt_clust_5="13000.00000" pt_clust_6="13000.00000" pt_clust_7="13000.00000" pt_clust_8="13000.00000" pt_clust_9="42.12283"></scales>
<clustering>
<clus scale="   42.123">  2  9  1 -1</clus>
<clus scale="   80.445">  7  8 -1 -1</clus>
<clus scale="   91.615">  5  6 -1 -1</clus>
<clus scale="   93.034">  2  7  1 -1</clus>
<clus scale="   42.123">  2  5  1 -1</clus>
</clustering>
</event>
<event>
 9    1  0.1321469E-005  0.1255189E+03  0.7546771E-02  0.1234849E+00
         21   -1    0    0  501  502  0.00000000000E+00  0.00000000000E+00  0.12590976078E+03  0.12590976078E+03  0.00000000000E+00 0.  1.
          3   -1    0    0  502    0 -0.00000000000E+00 -0.00000000000E+00 -0.24454663704E+03  0.24454663704E+03  0.00000000000E+00 0. -1.
         23    2    1    2    0    0 -0.78522416579E+02  0.42975035455E+02 -0.14808241188E+03  0.19564665670E+03  0.91304928636E+02 0.  0.
         23    2    1    2    0    0  0.57471008716E+02 -0.44888777623E+02 -0.20834693178E+02  0.12026686267E+03  0.93338709111E+02 0.  0.
        -13    1    4    4    0    0  0.51272002672E+02  0.18347351427E+02 -0.43810914632E+01  0.54631836183E+02  0.00000000000E+00 0. -1.
         13    1    4    4    0    0  0.61990060447E+01 -0.63236129050E+02 -0.16453601715E+02  0.65635026492E+02  0.00000000000E+00 0.  1.
        -13    1    3    3    0    0 -0.90390929495E+02  0.19228998635E+02 -0.78785992138E+02  0.12143931439E+03  0.00000000000E+00 0.  1.
         13    1    3    3    0    0  0.11868512917E+02  0.23746036820E+02 -0.69296419740E+02  0.74207342307E+02  0.00000000000E+00 0. -1.
          3    1    1    2  501    0  0.21051407862E+02  0.19137421684E+01  0.50280228787E+02  0.54542878444E+02  0.00000000000E+00 0. -1.
<scales pt_clust_5="13000.00000" pt_clust_6="13000.00000" pt_clust_7="13000.00000" pt_clust_8="13000.00000" pt_clust_9="21.13822"></scales>
<clustering>
<clus scale="   21.138">  1  9  2 -1</clus>
<clus scale="   91.305">  7  8 -1 -1</clus>
<clus scale="   93.339">  5  6 -1 -1</clus>
<clus scale="  124.014">  2  7  1 -1</clus>
<clus scale="   21.138">  1  5  2 -1</clus>
</clustering>
</event>
<event>
 9    1  0.1321469E-005  0.1124075E+03  0.7546771E-02  0.1258381E+00
          1   -1    0    0  502    0 -0.00000000000E+00  0.00000000000E+00  0.81468018534E+03  0.81468018534E+03  0.00000000000E+00 0. -1.
         21   -1    0    0  501  502  0.00000000000E+00 -0.00000000000E+00 -0.53337166509E+02  0.53337166509E+02  0.00000000000E+00 0.  1.
         23    2    1    2    0    0  0.14759564623E+02 -0.44455195593E+02  0.55001718283E+03  0.56035373845E+03  0.96349891697E+02 0.  0.
         23    2    1    2    0    0 -0.27786652059E+02  0.94398277146E+02  0.21780990909E+03  0.25564381327E+03  0.90716426316E+02 0.  0.
        -13    1    3    3    0    0 -0.26729401682E+02  0.17424525564E+02  0.13656899109E+03  0.14024679794E+03  0.00000000000E+00 0.  1.
         13    1    3    3    0    0  0.41488966305E+02 -0.61879721157E+02  0.41344819174E+03  0.42010694051E+03  0.00000000000E+00 0. -1.
        -13    1    4    4    0    0 -0.29655150603E+02  0.23979295943E+01  0.15855033175E+02  0.33712907033E+02  0.00000000000E+00 0.  1.
         13    1    4    4    0    0  0.18684985440E+01  0.92000347552E+02  0.20195487591E+03  0.22193090623E+03  0.00000000000E+00 0. -1.
          1    1    1    2  501    0  0.13027087436E+02 -0.49943081553E+02 -0.64840730816E+01  0.52019800132E+02  0.00000000000E+00 0. -1.
<scales pt_clust_5="13000.00000" pt_clust_6="13000.00000" pt_clust_7="13000.00000" pt_clust_8="13000.00000" pt_clust_9="51.61411"></scales>
<clustering>
<clus scale="   51.614">  2  9  1 -1</clus>
<clus scale="   90.716">  7  8 -1 -1</clus>
<clus scale="   96.350">  5  6 -1 -1</clus>
<clus scale="  107.618">  2  7  1 -1</clus>
<clus scale="   51.614">  2  5  1 -1</clus>
</clustering>
</event>
<event>
 9    1  0.1321469E-005  0.1040339E+03  0.7546771E-02  0.1272082E+00
          1   -1    0    0  502    0 -0.00000000000E+00  0.00000000000E+00  0.28280047673E+03  0.28280047673E+03  0.00000000000E+00 0. -1.
         21   -1    0    0  501  502  0.00000000000E+00 -0.00000000000E+00 -0.18747515372E+03  0.18747515372E+03  0.00000000000E+00 0. -1.
         23    2    1    2    0    0 -0.42950295186E+02 -0.25922089862E+02  0.15889053509E+03  0.19003679646E+03  0.91384349132E+02 0.  0.
         23    2    1    2    0    0  0.18192470016E+02  0.53794052213E+02  0.78567550881E+02  0.13329830691E+03  0.91492144771E+02 0.  0.
        -11    1    4    4    0    0 -0.11478074542E+02  0.40552033859E+02  0.89573820082E+02  0.98993347703E+02  0.00000000000E+00 0. -1.
         11    1    4    4    0    0  0.29670544558E+02  0.13242018353E+02 -0.11006269201E+02  0.34304959206E+02  0.00000000000E+00 0.  1.
        -13    1    3    3    0    0 -0.67781483865E+02 -0.16300418490E+02  0.76739382011E+02  0.10367722001E+03  0.00000000000E+00 0. -1.
         13    1    3    3    0    0  0.24831188679E+02 -0.96216713721E+01  0.82151153080E+02  0.86359576444E+02  0.00000000000E+00 0.  1.
          1    1    1    2  501    0  0.24757825170E+02 -0.27871962351E+02 -0.14213276296E+03  0.14694052708E+03  0.00000000000E+00 0. -1.
<scales pt_clust_5="13000.00000" pt_clust_6="13000.00000" pt_clust_7="13000.00000" pt_clust_8="13000.00000" pt_clust_9="37.27997"></scales>
<clustering>
<clus scale="   37.280">  2  9  1 -1</clus>
<clus scale="   91.384">  7  8 -1 -1</clus>
<clus scale="   91.492">  5  6 -1 -1</clus>
<clus scale="  103.939">  1  7  2 -1</clus>
<clus scale="   37.280">  2  5  1 -1</clus>
</clustering>
</event>
<event>
 9    1  0.1321469E-005  0.9841882E+02  0.7546771E-02  0.1285298E+00
          1   -1    0    0  502    0 -0.00000000000E+00  0.00000000000E+00  0.19538812394E+03  0.19538812394E+03  0.00000000000E+00 0. -1.
         21   -1    0    0  501  502  0.00000000000E+00 -0.00000000000E+00 -0.86199979815E+02  0.86199979815E+02  0.00000000000E+00 0.  1.
         23    2    1    2    0    0  0.36111336948E+02 -0.28423830934E+02  0.10140906046E+03  0.14385283760E+03  0.91092801701E+02 0.  0.
         23    2    1    2    0    0 -0.20345349542E+02  0.14539274503E+02  0.39650545210E+02  0.99562797970E+02  0.87836559889E+02 0.  0.
        -11    1    4    4    0    0  0.33172683482E+02  0.17742352801E+02  0.14138095814E+02  0.40188353606E+02  0.00000000000E+00 0.  1.
         11    1    4    4    0    0 -0.53518033024E+02 -0.32030782987E+01  0.25512449396E+02  0.59374444364E+02  0.00000000000E+00 0. -1.
        -13    1    3    3    0    0  0.60165213121E+02  0.38411590951E+01  0.72553684530E+02  0.94332626975E+02  0.00000000000E+00 0.  1.
         13    1    3    3    0    0 -0.24053876173E+02 -0.32264990029E+02  0.28855375934E+02  0.49520210630E+02  0.00000000000E+00 0. -1.
          1    1    1    2  501    0 -0.15765987406E+02  0.13884556431E+02 -0.31871461546E+02  0.38172468184E+02  0.00000000000E+00 0. -1.
<scales pt_clust_5="13000.00000" pt_clust_6="13000.00000" pt_clust_7="13000.00000" pt_clust_8="13000.00000" pt_clust_9="21.00827"></scales>
<clustering>
<clus scale="   21.008">  2  9  1 -1</clus>
<clus scale="   87.837">  5  6 -1 -1</clus>
<clus scale="   91.093">  7  8 -1 -1</clus>
<clus scale="   95.413">  2  5  1 -1</clus>
<clus scale="   21.008">  2  5  1 -1</clus>
</clustering>
</event>
<event>
 9    1  0.1321469E-005  0.1957134E+03  0.7546771E-02  0.1153407E+00
          1   -1    0    0  502    0 -0.00000000000E+00  0.00000000000E+00  0.15425020417E+03  0.15425020417E+03  0.00000000000E+00 0. -1.
         21   -1    0    0  501  502  0.00000000000E+00 -0.00000000000E+00 -0.93948790861E+03  0.93948790861E+03  0.00000000000E+00 0.  1.
         23    2    1    2    0    0  0.14487932850E+03 -0.68640034735E+02  0.19137719536E+02  0.18502796332E+03  0.90374889788E+02 0.  0.
         23    2    1    2    0    0 -0.25714803850E+03  0.11351758062E+03 -0.63833880415E+03  0.70331682804E+03  0.90370221300E+02 0.  0.
        -11    1    4    4    0    0 -0.20984687587E+03  0.10925236148E+03 -0.58945684905E+03  0.63516231524E+03  0.00000000000E+00 0.  1.
         11    1    4    4    0    0 -0.47301162632E+02  0.42652191373E+01 -0.48881955101E+02  0.68154512801E+02  0.00000000000E+00 0. -1.
        -11    1    3    3    0    0  0.74538028619E+02  0.12707508468E+02 -0.98221612620E+00  0.75619860026E+02  0.00000000000E+00 0. -1.
         11    1    3    3    0    0  0.70341299884E+02 -0.81347543203E+02  0.20119935662E+02  0.10940810329E+03  0.00000000000E+00 0.  1.
          1    1    1    2  501    0  0.11226871000E+03 -0.44877545881E+02 -0.16603661982E+03  0.20539332143E+03  0.00000000000E+00 0. -1.
<scales pt_clust_5="13000.00000" pt_clust_6="13000.00000" pt_clust_7="13000.00000" pt_clust_8="13000.00000" pt_clust_9="120.90599"></scales>
<clustering>
<clus scale="   90.370">  5  6 -1 -1</clus>
<clus scale="   90.375">  7  8 -1 -1</clus>
<clus scale="  120.906">  2  9  1 -1</clus>
<clus scale="  195.711">  2  5  1 -1</clus>
<clus scale="  120.906">  2  5  1 -1</clus>
</clustering>
</event>
<event>
 9    1  0.1321469E-005  0.1101663E+03  0.7546771E-02  0.1261380E+00
          1   -1    0    0  502    0 -0.00000000000E+00  0.00000000000E+00  0.41896641272E+03  0.41896641272E+03  0.00000000000E+00 0. -1.
         21   -1    0    0  501  502  0.00000000000E+00 -0.00000000000E+00 -0.82215196755E+02  0.82215196755E+02  0.00000000000E+00 0. -1.
         23    2    1    2    0    0  0.66376787783E+02  0.31140911761E+02  0.32980160100E+03  0.35003652123E+03  0.91546905113E+02 0.  0.
         23    2    1    2    0    0 -0.93258923549E+01 -0.15456843642E+02  0.14030750676E+02  0.91555347976E+02  0.88654574021E+02 0.  0.
        -11    1    3    3    0    0  0.12570787756E+02  0.56441090631E+02  0.16076143127E+03  0.17084454689E+03  0.00000000000E+00 0.  1.
         11    1    3    3    0    0  0.53806000027E+02 -0.25300178870E+02  0.16904016972E+03  0.17919197435E+03  0.00000000000E+00 0. -1.
        -13    1    4    4    0    0  0.35903083548E+02 -0.20658711784E+02  0.19348934888E+02  0.45718651141E+02  0.00000000000E+00 0. -1.
         13    1    4    4    0    0 -0.45228975903E+02  0.52018681426E+01 -0.53181842125E+01  0.45836696835E+02  0.00000000000E+00 0.  1.
          1    1    1    2  501    0 -0.57050895428E+02 -0.15684068119E+02 -0.70811357073E+01  0.59589740265E+02  0.00000000000E+00 0. -1.
<scales pt_clust_5="13000.00000" pt_clust_6="13000.00000" pt_clust_7="13000.00000" pt_clust_8="13000.00000" pt_clust_9="59.16751"></scales>
<clustering>
<clus scale="   59.168">  2  9  1 -1</clus>
<clus scale="   88.655">  7  8 -1 -1</clus>
<clus scale="   91.547">  5  6 -1 -1</clus>
<clus scale="  107.775">  2  7  1 -1</clus>
<clus scale="   59.168">  2  5  1 -1</clus>
</clustering>
</event>
<event>
 9    1  0.1321469E-005  0.2047616E+03  0.7546771E-02  0.1145785E+00
         21   -1    0    0  501  502  0.00000000000E+00  0.00000000000E+00  0.96033949562E+03  0.96033949562E+03  0.00000000000E+00 0.  1.
          2   -1    0    0  502    0 -0.00000000000E+00 -0.00000000000E+00 -0.14217879804E+03  0.14217879804E+03  0.00000000000E+00 0. -1.
         23    2    1    2    0    0  0.23064836982E+02 -0.17135000830E+03  0.21161089330E+02  0.19654708126E+03  0.91050268532E+02 0.  0.
         23    2    1    2    0    0  0.10980320353E+03  0.23627820465E+03  0.43794601384E+03  0.51765552829E+03  0.91029673356E+02 0.  0.
        -11    1    4    4    0    0 -0.53023312974E+01  0.23445931721E+02  0.94662899369E+02  0.97667246037E+02  0.00000000000E+00 0. -1.
         11    1    4    4    0    0  0.11510553483E+03  0.21283227292E+03  0.34328311447E+03  0.41998828225E+03  0.00000000000E+00 0.  1.
        -13    1    3    3    0    0  0.97840264508E+01 -0.64682382307E+02  0.53268886820E+02  0.84362978003E+02  0.00000000000E+00 0.  1.
         13    1    3    3    0    0  0.13280810531E+02 -0.10666762599E+03 -0.32107797490E+02  0.11218410326E+03  0.00000000000E+00 0. -1.
          2    1    1    2  501    0 -0.13286804052E+03 -0.64928196344E+02  0.35905359441E+03  0.38831568412E+03  0.00000000000E+00 0. -1.
<scales pt_clust_5="13000.00000" pt_clust_6="13000.00000" pt_clust_7="13000.00000" pt_clust_8="13000.00000" pt_clust_9="147.88369"></scales>
<clustering>
<clus scale="   91.030">  5  6 -1 -1</clus>
<clus scale="   91.050">  7  8 -1 -1</clus>
<clus scale="  147.884">  1  9  2 -1</clus>
<clus scale="  204.752">  1  5  2 -1</clus>
<clus scale="  147.884">  1  5  2 -1</clus>
</clustering>
</event>
<event>
 9    1  0.1321469E-005  0.1167368E+03  0.7546771E-02  0.1251517E+00
          2   -1    0    0  502    0 -0.00000000000E+00  0.00000000000E+00  0.21207730312E+03  0.21207730312E+03  0.00000000000E+00 0. -1.
         21   -1    0    0  501  502  0.00000000000E+00 -0.00000000000E+00 -0.26001419185E+03  0.26001419185E+03  0.00000000000E+00 0.  1.
         23    2    1    2    0    0  0.18066086049E+02  0.56639876634E+02  0.15899415183E+03  0.19251537242E+03  0.90821634052E+02 0.  0.
         23    2    1    2    0    0 -0.53472362167E+01 -0.84368011931E+02 -0.88498791969E+02  0.15727805988E+03  0.98781564908E+02 0.  0.
        -11    1    4    4    0    0 -0.10020551117E+02 -0.10523058416E+03 -0.59665411880E+02  0.12138306580E+03  0.00000000000E+00 0.  1.
         11    1    4    4    0    0  0.46733149008E+01  0.20862572232E+02 -0.28833380089E+02  0.35894994075E+02  0.00000000000E+00 0. -1.
        -13    1    3    3    0    0  0.11771739079E+01  0.44256305633E+02  0.16491329678E+03  0.17075245761E+03  0.00000000000E+00 0. -1.
         13    1    3    3    0    0  0.16888912141E+02  0.12383571001E+02 -0.59191449471E+01  0.21762914808E+02  0.00000000000E+00 0.  1.
          2    1    1    2  501    0 -0.12718849833E+02  0.27728135297E+02 -0.11843224859E+03  0.12229806267E+03  0.00000000000E+00 0. -1.
<scales pt_clust_5="13000.00000" pt_clust_6="13000.00000" pt_clust_7="13000.00000" pt_clust_8="13000.00000" pt_clust_9="30.50604"></scales>
<clustering>
<clus scale="   30.506">  2  9  1 -1</clus>
<clus scale="   90.822">  7  8 -1 -1</clus>
<clus scale="   98.782">  5  6 -1 -1</clus>
<clus scale="  110.083">  1  7  2 -1</clus>
<clus scale="   30.506">  2  5  1 -1</clus>
</clustering>
</event>
<event>
 9    1  0.1321469E-005  0.9472095E+02  0.7546771E-02  0.1293605E+00
         21   -1    0    0  501  502  0.00000000000E+00  0.00000000000E+00  0.17190434624E+02  0.17190434624E+02  0.00000000000E+00 0. -1.
          2   -1    0    0  502    0 -0.00000000000E+00 -0.00000000000E+00 -0.88996266515E+03  0.88996266515E+03  0.00000000000E+00 0. -1.
         23    2    1    2    0    0 -0.66898453437E+01  0.83324176636E+01 -0.37955250647E+03  0.39043089932E+03  0.90895537638E+02 0.  0.
         23    2    1    2    0    0  0.86227973121E+01  0.37844250928E+02 -0.26476327172E+03  0.28363772727E+03  0.94043768087E+02 0.  0.
        -11    1    3    3    0    0 -0.48664111452E+02  0.83877421693E+01 -0.21680451157E+03  0.22235724903E+03  0.00000000000E+00 0. -1.
         11    1    3    3    0    0  0.41974266108E+02 -0.55324505680E-01 -0.16274799490E+03  0.16807365028E+03  0.00000000000E+00 0.  1.
        -13    1    4    4    0    0  0.15206452165E+02  0.68582508018E+02 -0.18717553379E+03  0.19992367805E+03  0.00000000000E+00 0. -1.
         13    1    4    4    0    0 -0.65836548530E+01 -0.30738257090E+02 -0.77587737929E+02  0.83714049222E+02  0.00000000000E+00 0.  1.
          2    1    1    2  501    0 -0.19329519684E+01 -0.46176668592E+02 -0.22845645234E+03  0.23308447319E+03  0.00000000000E+00 0. -1.
<scales pt_clust_5="13000.00000" pt_clust_6="13000.00000" pt_clust_7="13000.00000" pt_clust_8="13000.00000" pt_clust_9="46.21713"></scales>
<clustering>
<clus scale="   46.217">  1  9  2 -1</clus>
<clus scale="   90.896">  5  6 -1 -1</clus>
<clus scale="   91.596">  2  5  1 -1</clus>
<clus scale="   94.044">  7  8 -1 -1</clus>
<clus scale="   46.217">  1  5  2 -1</clus>
</clustering>
</event>
<event>
 9    1  0.1321469E-005  0.1579280E+03  0.7546771E-02  0.1193188E+00
          1   -1    0    0  502    0 -0.00000000000E+00  0.00000000000E+00  0.28060157356E+03  0.28060157356E+03  0.00000000000E+00 0. -1.
         21   -1    0    0  501  502  0.00000000000E+00 -0.00000000000E+00 -0.15713658595E+03  0.15713658595E+03  0.00000000000E+00 0.  1.
         23    2    1    2    0    0  0.10132424455E+03  0.69855225796E+02  0.10525848204E+03  0.18704372836E+03  0.93593018819E+02 0.  0.
         23    2    1    2    0    0 -0.12489713595E+03  0.23054548861E+01  0.46642186650E+02  0.16963005547E+03  0.10485348088E+03 0.  0.
        -11    1    3    3    0    0  0.32683671527E+02  0.57828388090E+02  0.72975963640E+01  0.66825143219E+02  0.00000000000E+00 0.  1.
         11    1    3    3    0    0  0.68640573028E+02  0.12026837706E+02  0.97960885674E+02  0.12021858514E+03  0.00000000000E+00 0. -1.
        -11    1    4    4    0    0 -0.62175970153E+01 -0.35475733273E+02  0.23348113086E+02  0.42922261690E+02  0.00000000000E+00 0.  1.
         11    1    4    4    0    0 -0.11867953894E+03  0.37781188159E+02  0.23294073564E+02  0.12670779378E+03  0.00000000000E+00 0. -1.
          1    1    1    2  501    0  0.23572891400E+02 -0.72160680682E+02 -0.28435681079E+02  0.81064375676E+02  0.00000000000E+00 0. -1.
<scales pt_clust_5="13000.00000" pt_clust_6="13000.00000" pt_clust_7="13000.00000" pt_clust_8="13000.00000" pt_clust_9="75.91340"></scales>
<clustering>
<clus scale="   75.913">  2  9  1 -1</clus>
<clus scale="   93.593">  5  6 -1 -1</clus>
<clus scale="  104.853">  7  8 -1 -1</clus>
<clus scale="  150.687">  1  5  2 -1</clus>
<clus scale="   75.913">  2  5  1 -1</clus>
</clustering>
</event>
<event>
 9    1  0.1321469E-005  0.2175212E+03  0.7546771E-02  0.1135958E+00
          2   -1    0    0  502    0 -0.00000000000E+00  0.00000000000E+00  0.95258323662E+03  0.95258323662E+03  0.00000000000E+00 0. -1.
         21   -1    0    0  501  502  0.00000000000E+00 -0.00000000000E+00 -0.66730875405E+02  0.66730875405E+02  0.00000000000E+00 0. -1.
         23    2    1    2    0    0 -0.19480474563E+03  0.39325977474E+02  0.62465017628E+03  0.66237112851E+03  0.95143301028E+02 0.  0.
         23    2    1    2    0    0  0.17982462713E+03 -0.57743039377E+02  0.19576271658E+03  0.28733036873E+03  0.92544824111E+02 0.  0.
        -11    1    4    4    0    0  0.37856386901E+02  0.23303897398E+02  0.60947130643E+02  0.75436929926E+02  0.00000000000E+00 0.  1.
         11    1    4    4    0    0  0.14196824023E+03 -0.81046936775E+02  0.13481558594E+03  0.21189343880E+03  0.00000000000E+00 0. -1.
        -13    1    3    3    0    0 -0.13505615929E+03  0.21938622553E+02  0.54147300911E+03  0.55849305180E+03  0.00000000000E+00 0. -1.
         13    1    3    3    0    0 -0.59748586344E+02  0.17387354920E+02  0.83177167176E+02  0.10387807671E+03  0.00000000000E+00 0.  1.
          2    1    1    2  501    0  0.14980118501E+02  0.18417061904E+02  0.65439468355E+02  0.69612614791E+02  0.00000000000E+00 0. -1.
<scales pt_clust_5="13000.00000" pt_clust_6="13000.00000" pt_clust_7="13000.00000" pt_clust_8="13000.00000" pt_clust_9="23.74011"></scales>
<clustering>
<clus scale="   23.740">  2  9  1 -1</clus>
<clus scale="   92.545">  5  6 -1 -1</clus>
<clus scale="   95.143">  7  8 -1 -1</clus>
<clus scale="  216.397">  2  5  1 -1</clus>
<clus scale="   23.740">  2  5  1 -1</clus>
</clustering>
</event>
<event>
 9    1  0.1321469E-005  0.9357936E+02  0.7546771E-02  0.1295616E+00
         21   -1    0    0  501  502  0.00000000000E+00  0.00000000000E+00  0.29582447263E+03  0.29582447263E+03  0.00000000000E+00 0. -1.
          2   -1    0    0  502    0 -0.00000000000E+00 -0.00000000000E+00 -0.35840964697E+03  0.35840964697E+03  0.00000000000E+00 0. -1.
         23    2    1    2    0    0  0.13803799313E+02  0.14285729971E+02 -0.22390536309E+03  0.24249452241E+03  0.90968977262E+02 0.  0.
         23    2    1    2    0    0  0.25115253224E+02 -0.38499123303E+02 -0.10294272283E+03  0.14353097038E+03  0.88831170397E+02 0.  0.
        -13    1    4    4    0    0  0.47929624488E+02 -0.50770175082E+02 -0.91790862850E+02  0.11532745590E+03  0.00000000000E+00 0. -1.
         13    1    4    4    0    0 -0.22814371263E+02  0.12271051778E+02 -0.11151859978E+02  0.28203514477E+02  0.00000000000E+00 0.  1.
        -13    1    3    3    0    0  0.11184577198E+02  0.43877739915E+02 -0.56169492292E+02  0.72148199503E+02  0.00000000000E+00 0.  1.
         13    1    3    3    0    0  0.26192221152E+01 -0.29592009945E+02 -0.16773587079E+03  0.17034632291E+03  0.00000000000E+00 0. -1.
          2    1    1    2  501    0 -0.38919052538E+02  0.24213393332E+02  0.26426291157E+03  0.26820862682E+03  0.00000000000E+00 0. -1.
<scales pt_clust_5="13000.00000" pt_clust_6="13000.00000" pt_clust_7="13000.00000" pt_clust_8="13000.00000" pt_clust_9="45.83646"></scales>
<clustering>
<clus scale="   45.836">  1  9  2 -1</clus>
<clus scale="   88.831">  5  6 -1 -1</clus>
<clus scale="   90.969">  7  8 -1 -1</clus>
<clus scale="   91.503">  1  5  2 -1</clus>
<clus scale="   45.836">  1  5  2 -1</clus>
</clustering>
</event>
<event>
 9    1  0.1321469E-005  0.1017923E+03  0.7546771E-02  0.1276594E+00
          2   -1    0    0  502    0 -0.00000000000E+00  0.00000000000E+00  0.45379192916E+03  0.45379192916E+03  0.00000000000E+00 0. -1.
         21   -1    0    0  501  502  0.00000000000E+00 -0.00000000000E+00 -0.97584748412E+02  0.97584748412E+02  0.00000000000E+00 0. -1.
         23    2    1    2    0    0  0.34802211898E+02  0.48714734955E+02  0.26683147558E+03  0.28804382317E+03  0.90475899268E+02 0.  0.
         23    2    1    2    0    0 -0.27673114673E+02 -0.16114927932E+02  0.15924283059E+03  0.18590555521E+03  0.90427342025E+02 0.  0.
        -13    1    4    4    0    0  0.56221290985E+01 -0.26427440456E+02  0.46302191038E+01  0.27412713722E+02  0.00000000000E+00 0.  1.
         13    1    4    4    0    0 -0.33295243771E+02  0.10312512524E+02  0.15461261149E+03  0.15849284149E+03  0.00000000000E+00 0. -1.
        -13    1    3    3    0    0  0.60766809855E+02  0.51871881775E+02  0.22439675174E+03  0.23819571678E+03  0.00000000000E+00 0.  1.
         13    1    3    3    0    0 -0.25964597958E+02 -0.31571468202E+01  0.42434723839E+02  0.49848106388E+02  0.00000000000E+00 0. -1.
          2    1    1    2  501    0 -0.71290972248E+01 -0.32599807023E+02 -0.69867125426E+02  0.77427299194E+02  0.00000000000E+00 0. -1.
<scales pt_clust_5="13000.00000" pt_clust_6="13000.00000" pt_clust_7="13000.00000" pt_clust_8="13000.00000" pt_clust_9="33.37022"></scales>
<clustering>
<clus scale="   33.370">  2  9  1 -1</clus>
<clus scale="   90.427">  5  6 -1 -1</clus>
<clus scale="   90.476">  7  8 -1 -1</clus>
<clus scale="  101.749">  2  5  1 -1</clus>
<clus scale="   33.370">  2  5  1 -1</clus>
</clustering>
</event>
<event>
 9    1  0.1321469E-005  0.2259671E+03  0.7546771E-02  0.1164147E+00
         21   -1    0    0  501  502  0.00000000000E+00  0.00000000000E+00  0.40493993404E+03  0.40493993404E+03  0.00000000000E+00 0. -1.
          2   -1    0    0  502    0 -0.00000000000E+00 -0.00000000000E+00 -0.30734489647E+03  0.30734489647E+03  0.00000000000E+00 0. -1.
         23    2    1    2    0    0 -0.26350746324E+02 -0.30043863831E+02  0.16135131830E+03  0.18928990235E+03  0.90550668843E+02 0.  0.
         23    2    1    2    0    0 -0.12557002495E+03 -0.12207552267E+03 -0.18963205746E+03  0.27386656835E+03  0.91500358673E+02 0.  0.
        -11    1    4    4    0    0 -0.50392083475E+02 -0.21686714698E+02 -0.11628346741E+03  0.12857496049E+03  0.00000000000E+00 0.  1.
         11    1    4    4    0    0 -0.75177941479E+02 -0.10038880797E+03 -0.73348590052E+02  0.14529160786E+03  0.00000000000E+00 0. -1.
        -13    1    3    3    0    0 -0.50738484912E+02  0.10299716445E+02  0.87781907760E+02  0.10191241995E+03  0.00000000000E+00 0. -1.
         13    1    3    3    0    0  0.24387738589E+02 -0.40343580276E+02  0.73569410538E+02  0.87377482396E+02  0.00000000000E+00 0.  1.
          2    1    1    2  501    0  0.15192077128E+03  0.15211938650E+03  0.12587577674E+03  0.24912835982E+03  0.00000000000E+00 0. -1.
<scales pt_clust_5="13000.00000" pt_clust_6="13000.00000" pt_clust_7="13000.00000" pt_clust_8="13000.00000" pt_clust_9="206.61272"></scales>
<clustering>
<clus scale="   90.551">  7  8 -1 -1</clus>
<clus scale="   91.500">  5  6 -1 -1</clus>
<clus scale="   98.977">  2  7  1 -1</clus>
<clus scale="  206.613">  1  9  2 -1</clus>
<clus scale="  206.613">  1  5  2 -1</clus>
</clustering>
</event>
<event>
 9    1  0.1321469E-005  0.1267242E+03  0.7546771E-02  0.1233556E+00
          2   -1    0    0  502    0 -0.00000000000E+00  0.00000000000E+00  0.31319161861E+03  0.31319161861E+03  0.00000000000E+00 0. -1.
         21   -1    0    0  501  502  0.00000000000E+00 -0.00000000000E+00 -0.17513649545E+03  0.17513649545E+03  0.00000000000E+00 0.  1.
         23    2    1    2    0    0 -0.60132653243E+02  0.70678481773E+02  0.24087320240E+03  0.27214048234E+03  0.86192567671E+02 0.  0.
         23    2    1    2    0    0  0.39847819784E+02 -0.61907182375E+02 -0.58642965440E+01  0.11674696528E+03  0.90416347847E+02 0.  0.
        -11    1    3    3    0    0 -0.10837711599E+02  0.19672947836E+02  0.15360622492E+01  0.22513115211E+02  0.00000000000E+00 0.  1.
         11    1    3    3    0    0 -0.49294941644E+02  0.51005533937E+02  0.23933714015E+03  0.24962736713E+03  0.00000000000E+00 0. -1.
        -11    1    4    4    0    0  0.68309328595E+01  0.23511150371E+02 -0.58373602239E+01  0.25169636666E+02  0.00000000000E+00 0. -1.
         11    1    4    4    0    0  0.33016886925E+02 -0.85418332746E+02 -0.26936320119E-01  0.91577328618E+02  0.00000000000E+00 0.  1.
          2    1    1    2  501    0  0.20284833459E+02 -0.87712993977E+01 -0.96953782699E+02  0.99440666436E+02  0.00000000000E+00 0. -1.
<scales pt_clust_5="13000.00000" pt_clust_6="13000.00000" pt_clust_7="13000.00000" pt_clust_8="13000.00000" pt_clust_9="22.10000"></scales>
<clustering>
<clus scale="   22.100">  2  9  1 -1</clus>
<clus scale="   86.193">  5  6 -1 -1</clus>
<clus scale="   90.416">  7  8 -1 -1</clus>
<clus scale="  123.746">  1  5  2 -1</clus>
<clus scale="   22.100">  2  5  1 -1</clus>
</clustering>
</event>
<event>
 9    1  0.1321469E-005  0.2889368E+03  0.7546771E-02  0.1124617E+00
         21   -1    0    0  501  502  0.00000000000E+00  0.00000000000E+00  0.14626062986E+03  0.14626062986E+03  0.00000000000E+00 0.  1.
         -3   -1    0    0    0  501 -0.00000000000E+00 -0.00000000000E+00 -0.11843811522E+04  0.11843811522E+04  0.00000000000E+00 0.  1.
         23    2    1    2    0    0 -0.48779567405E+02  0.63581155485E+02 -0.45326446406E+03  0.46938758977E+03  0.91945774925E+02 0.  0.
         23    2    1    2    0    0  0.19648957130E+03 -0.22259114966E+03 -0.94532460182E+02  0.32504560009E+03  0.92538016915E+02 0.  0.
        -11    1    3    3    0    0  0.10070454818E+02  0.57557026328E+02 -0.16301334663E+03  0.17316921354E+03  0.00000000000E+00 0. -1.
         11    1    3    3    0    0 -0.58850022223E+02  0.60241291564E+01 -0.29025111743E+03  0.29621837623E+03  0.00000000000E+00 0.  1.
        -11    1    4    4    0    0  0.15245752671E+03 -0.13144788966E+03 -0.26387684797E+02  0.20302254815E+03  0.00000000000E+00 0.  1.
         11    1    4    4    0    0  0.44032044591E+02 -0.91143259992E+02 -0.68144775385E+02  0.12202305194E+03  0.00000000000E+00 0. -1.
         -3    1    1    2    0  502 -0.14771000390E+03  0.15900999417E+03 -0.49032359811E+03  0.53620859222E+03  0.00000000000E+00 0.  1.
<scales pt_clust_5="13000.00000" pt_clust_6="13000.00000" pt_clust_7="13000.00000" pt_clust_8="13000.00000" pt_clust_9="273.71752"></scales>
<clustering>
<clus scale="   91.946">  5  6 -1 -1</clus>
<clus scale="   92.538">  7  8 -1 -1</clus>
<clus scale="  121.967">  2  5  1 -1</clus>
<clus scale="  273.718">  1  9  2 -1</clus>
<clus scale="  273.718">  1  5  2 -1</clus>
</clustering>
</event>
<event>
 9    1  0.1321469E-005  0.1523722E+03  0.7546771E-02  0.1198343E+00
          1   -1    0    0  502    0 -0.00000000000E+00  0.00000000000E+00  0.62486444462E+03  0.62486444462E+03  0.00000000000E+00 0. -1.
         21   -1    0    0  501  502  0.00000000000E+00 -0.00000000000E+00 -0.56168586519E+02  0.56168586519E+02  0.00000000000E+00 0.  1.
         23    2    1    2    0    0 -0.10548833484E+03  0.30475326293E+02  0.32995404976E+03  0.35958244807E+03  0.91505888906E+02 0.  0.
         23    2    1    2    0    0  0.14132310951E+03 -0.30773244042E+02  0.22851743879E+03  0.28418454541E+03  0.87300757081E+02 0.  0.
        -11    1    3    3    0    0 -0.10076962724E+03  0.10737895889E+02  0.32236095291E+03  0.33791478829E+03  0.00000000000E+00 0. -1.
         11    1    3    3    0    0 -0.47187076076E+01  0.19737430404E+02  0.75930968422E+01  0.21667659774E+02  0.00000000000E+00 0.  1.
        -13    1    4    4    0    0  0.45393622025E+02  0.30840462677E+02  0.71080112859E+02  0.89800320170E+02  0.00000000000E+00 0. -1.
         13    1    4    4    0    0  0.95929487488E+02 -0.61613706719E+02  0.15743732593E+03  0.19438422524E+03  0.00000000000E+00 0.  1.
          1    1    1    2  501    0 -0.35834774668E+02  0.29791774890E+00  0.10224369553E+02  0.37266037665E+02  0.00000000000E+00 0. -1.
<scales pt_clust_5="13000.00000" pt_clust_6="13000.00000" pt_clust_7="13000.00000" pt_clust_8="13000.00000" pt_clust_9="35.83601"></scales>
<clustering>
<clus scale="   35.836">  2  9  1 -1</clus>
<clus scale="   87.301">  7  8 -1 -1</clus>
<clus scale="   91.506">  5  6 -1 -1</clus>
<clus scale="  149.885">  2  7  1 -1</clus>
<clus scale="   35.836">  2  5  1 -1</clus>
</clustering>
</event>
<event>
 9    1  0.1321469E-005  0.1913726E+03  0.7546771E-02  0.1157657E+00
          1   -1    0    0  502    0 -0.00000000000E+00  0.00000000000E+00  0.17963150327E+03  0.17963150327E+03  0.00000000000E+00 0. -1.
         21   -1    0    0  501  502  0.00000000000E+00 -0.00000000000E+00 -0.50676056091E+03  0.50676056091E+03  0.00000000000E+00 0. -1.
         23    2    1    2    0    0  0.88227780980E+02  0.14764909555E+03  0.45858644673E+02  0.19904996672E+03  0.89070069095E+02 0.  0.
         23    2    1    2    0    0 -0.35428771734E+02 -0.15896294071E+03 -0.10703779418E+03  0.21596580501E+03  0.93057644312E+02 0.  0.
        -11    1    3    3    0    0 -0.11078369293E+02  0.20861238723E+02 -0.13740881394E+02  0.27326422538E+02  0.00000000000E+00 0.  1.
         11    1    3    3    0    0  0.99306150273E+02  0.12678785683E+03  0.59599526067E+02  0.17172354419E+03  0.00000000000E+00 0. -1.
        -11    1    4    4    0    0 -0.29242911630E+02 -0.12781948603E+03 -0.12356502084E+03  0.18017015087E+03  0.00000000000E+00 0. -1.
         11    1    4    4    0    0 -0.61858601037E+01 -0.31143454674E+02  0.16527226655E+02  0.35795654138E+02  0.00000000000E+00 0.  1.
          1    1    1    2  501    0 -0.52799009246E+02  0.11313845159E+02 -0.26594990812E+03  0.27137629244E+03  0.00000000000E+00 0. -1.
<scales pt_clust_5="13000.00000" pt_clust_6="13000.00000" pt_clust_7="13000.00000" pt_clust_8="13000.00000" pt_clust_9="53.99758"></scales>
<clustering>
<clus scale="   53.998">  2  9  1 -1</clus>
<clus scale="   89.070">  5  6 -1 -1</clus>
<clus scale="   93.058">  7  8 -1 -1</clus>
<clus scale="  189.466">  1  5  2 -1</clus>
<clus scale="   53.998">  2  5  1 -1</clus>
</clustering>
</event>
<event>
 9    1  0.1321469E-005  0.1026768E+03  0.7546771E-02  0.1275588E+00
          1   -1    0    0  502    0 -0.00000000000E+00  0.00000000000E+00  0.38363480815E+03  0.38363480815E+03  0.00000000000E+00 0. -1.
         21   -1    0    0  501  502  0.00000000000E+00 -0.00000000000E+00 -0.10284408355E+03  0.10284408355E+03  0.00000000000E+00 0. -1.
         23    2    1    2    0    0  0.37811461296E+02  0.25556045088E+02  0.30093103927E+03  0.31775228993E+03  0.91237104893E+02 0.  0.
         23    2    1    2    0    0 -0.16085660197E+02 -0.35926385587E+02  0.36332629928E+02  0.10733647334E+03  0.93014003606E+02 0.  0.
        -13    1    4    4    0    0 -0.55036727931E+02 -0.24750990220E+02  0.24413275345E+02  0.65097319079E+02  0.00000000000E+00 0.  1.
         13    1    4    4    0    0  0.38951067734E+02 -0.11175395366E+02  0.11919354583E+02  0.42239154263E+02  0.00000000000E+00 0. -1.
        -13    1    3    3    0    0 -0.22321553447E+02  0.25705027097E+01  0.21845771810E+02  0.31338426547E+02  0.00000000000E+00 0.  1.
         13    1    3    3    0    0  0.60133014743E+02  0.22985542378E+02  0.27908526747E+03  0.28641386338E+03  0.00000000000E+00 0. -1.
          1    1    1    2  501    0 -0.21725801099E+02  0.10370340499E+02 -0.56472944602E+02  0.61390128421E+02  0.00000000000E+00 0. -1.
<scales pt_clust_5="13000.00000" pt_clust_6="13000.00000" pt_clust_7="13000.00000" pt_clust_8="13000.00000" pt_clust_9="24.07394"></scales>
<clustering>
<clus scale="   24.074">  2  9  1 -1</clus>
<clus scale="   91.237">  7  8 -1 -1</clus>
<clus scale="   93.014">  5  6 -1 -1</clus>
<clus scale="  101.070">  1  7  2 -1</clus>
<clus scale="   24.074">  2  5  1 -1</clus>
</clustering>
</event>
<event>
 9    1  0.1321469E-005  0.9189434E+02  0.7546771E-02  0.1298800E+00
         21   -1    0    0  501  502  0.00000000000E+00  0.00000000000E+00  0.14449662778E+03  0.14449662778E+03  0.00000000000E+00 0. -1.
         -2   -1    0    0    0  501 -0.00000000000E+00 -0.00000000000E+00 -0.99139443216E+02  0.99139443216E+02  0.00000000000E+00 0.  1.
         23    2    1    2    0    0  0.17433168367E+02  0.61849723008E+01  0.25313109577E+02  0.96013492235E+02  0.90750580897E+02 0.  0.
         23    2    1    2    0    0  0.18723011464E+02  0.22958865860E+02  0.28635069473E+02  0.10039506741E+03  0.91550760109E+02 0.  0.
        -11    1    3    3    0    0  0.17002083699E+02  0.47911073922E+02  0.15468785544E+02  0.53139676144E+02  0.00000000000E+00 0.  1.
         11    1    3    3    0    0  0.43108466750E+00 -0.41726101622E+02  0.98443240330E+01  0.42873816091E+02  0.00000000000E+00 0. -1.
        -11    1    4    4    0    0  0.16656702786E+02  0.52113472418E+02 -0.60422826093E+01  0.55043336874E+02  0.00000000000E+00 0.  1.
         11    1    4    4    0    0  0.20663086782E+01 -0.29154606557E+02  0.34677352082E+02  0.45351730535E+02  0.00000000000E+00 0. -1.
         -2    1    1    2    0  502 -0.36156179830E+02 -0.29143838161E+02 -0.85909944818E+01  0.47227511356E+02  0.00000000000E+00 0.  1.
<scales pt_clust_5="13000.00000" pt_clust_6="13000.00000" pt_clust_7="13000.00000" pt_clust_8="13000.00000" pt_clust_9="46.43958"></scales>
<clustering>
<clus scale="   46.440">  1  9  2 -1</clus>
<clus scale="   90.751">  5  6 -1 -1</clus>
<clus scale="   91.097">  2  5  1 -1</clus>
<clus scale="   91.551">  7  8 -1 -1</clus>
<clus scale="   46.440">  1  5  2 -1</clus>
</clustering>
</event>
<event>
 9    1  0.1321469E-005  0.1705281E+03  0.7546771E-02  0.1205190E+00
         21   -1    0    0  501  502  0.00000000000E+00  0.00000000000E+00  0.15298401983E+03  0.15298401983E+03  0.00000000000E+00 0.  1.
          3   -1    0    0  502    0 -0.00000000000E+00 -0.00000000000E+00 -0.35565420914E+03  0.35565420914E+03  0.00000000000E+00 0. -1.
         23    2    1    2    0    0  0.25978348697E+02  0.14430621701E+02  0.39619817585E+02  0.10034486611E+03  0.87271099258E+02 0.  0.
         23    2    1    2    0    0  0.28024553148E+02  0.12695374351E+03 -0.19123402904E+03  0.24856683091E+03  0.91172292923E+02 0.  0.
        -11    1    3    3    0    0 -0.23500522853E+02  0.11452867273E+02  0.43364536346E+02  0.50635222481E+02  0.00000000000E+00 0. -1.
         11    1    3    3    0    0  0.49478871550E+02  0.29777544274E+01 -0.37447187609E+01  0.49709643631E+02  0.00000000000E+00 0.  1.
        -11    1    4    4    0    0 -0.83032896547E+01  0.48702600376E+02 -0.13945668647E+03  0.14794950254E+03  0.00000000000E+00 0.  1.
         11    1    4    4    0    0  0.36327842802E+02  0.78251143133E+02 -0.51777342575E+02  0.10061732837E+03  0.00000000000E+00 0. -1.
          3    1    1    2  501    0 -0.54002901844E+02 -0.14138436521E+03 -0.51055977845E+02  0.15972653195E+03  0.00000000000E+00 0. -1.
<scales pt_clust_5="13000.00000" pt_clust_6="13000.00000" pt_clust_7="13000.00000" pt_clust_8="13000.00000" pt_clust_9="144.10915"></scales>
<clustering>
<clus scale="   87.271">  5  6 -1 -1</clus>
<clus scale="   91.172">  7  8 -1 -1</clus>
<clus scale="   92.192">  2  5  1 -1</clus>
<clus scale="  144.109">  1  9  2 -1</clus>
<clus scale="  144.109">  1  5  2 -1</clus>
</clustering>
</event>
<event>
 9    1  0.1321469E-005  0.1913057E+03  0.7546771E-02  0.1157357E+00
         21   -1    0    0  501  502  0.00000000000E+00  0.00000000000E+00  0.13794697744E+03  0.13794697744E+03  0.00000000000E+00 0.  1.
          2   -1    0    0  502    0 -0.00000000000E+00 -0.00000000000E+00 -0.53512789319E+03  0.53512789319E+03  0.00000000000E+00 0. -1.
         23    2    1    2    0    0 -0.33141872880E+02 -0.16019827775E+03 -0.38404592752E+03  0.42719656225E+03  0.90795134367E+02 0.  0.
         23    2    1    2    0    0  0.26241446807E+02  0.18433229002E+03 -0.37619825355E+02  0.21081303101E+03  0.91432358122E+02 0.  0.
        -13    1    3    3    0    0 -0.53404288940E+02 -0.15792227857E+03 -0.34193541313E+03  0.38040937278E+03  0.00000000000E+00 0. -1.
         13    1    3    3    0    0  0.20262416060E+02 -0.22759991837E+01 -0.42110514382E+02  0.46787189468E+02  0.00000000000E+00 0.  1.
        -13    1    4    4    0    0 -0.17861562423E+02  0.12034650844E+03  0.57817226438E+01  0.12180207643E+03  0.00000000000E+00 0.  1.
         13    1    4    4    0    0  0.44103009229E+02  0.63985781576E+02 -0.43401547999E+02  0.89010954582E+02  0.00000000000E+00 0. -1.
          2    1    1    2  501    0  0.69004260736E+01 -0.24134012263E+02  0.24484837125E+02  0.35065277369E+02  0.00000000000E+00 0. -1.
<scales pt_clust_5="13000.00000" pt_clust_6="13000.00000" pt_clust_7="13000.00000" pt_clust_8="13000.00000" pt_clust_9="25.10112"></scales>
<clustering>
<clus scale="   25.101">  1  9  2 -1</clus>
<clus scale="   90.795">  5  6 -1 -1</clus>
<clus scale="   91.432">  7  8 -1 -1</clus>
<clus scale="  191.002">  2  5  1 -1</clus>
<clus scale="   25.101">  1  5  2 -1</clus>
</clustering>
</event>
<event>
 9    1  0.1321469E-005  0.1067795E+03  0.7546771E-02  0.1267269E+00
         21   -1    0    0  501  502  0.00000000000E+00  0.00000000000E+00  0.23472121857E+03  0.23472121857E+03  0.00000000000E+00 0. -1.
         -1   -1    0    0    0  501 -0.00000000000E+00 -0.00000000000E+00 -0.18329661339E+03  0.18329661339E+03  0.00000000000E+00 0.  1.
         23    2    1    2    0    0  0.27427945901E+01  0.44918962265E+02 -0.96706597966E+02  0.14128772548E+03  0.92654299356E+02 0.  0.
         23    2    1    2    0    0  0.22476040786E+02 -0.73430802474E+02 -0.46231392006E+01  0.11930455647E+03  0.91186340085E+02 0.  0.
        -11    1    3    3    0    0  0.46212353510E+02  0.17832421959E+02 -0.62274075363E+02  0.79571586337E+02  0.00000000000E+00 0. -1.
         11    1    3    3    0    0 -0.43469558920E+02  0.27086540306E+02 -0.34432522602E+02  0.61716139147E+02  0.00000000000E+00 0.  1.
        -13    1    4    4    0    0  0.26821023115E+02  0.11820054842E+02  0.13129748576E+02  0.32116526511E+02  0.00000000000E+00 0. -1.
         13    1    4    4    0    0 -0.43449823291E+01 -0.85250857316E+02 -0.17752887776E+02  0.87188029964E+02  0.00000000000E+00 0.  1.
         -1    1    1    2    0  502 -0.25218835376E+02  0.28511840210E+02  0.15275434235E+03  0.15742555001E+03  0.00000000000E+00 0.  1.
<scales pt_clust_5="13000.00000" pt_clust_6="13000.00000" pt_clust_7="13000.00000" pt_clust_8="13000.00000" pt_clust_9="38.06461"></scales>
<clustering>
<clus scale="   38.065">  1  9  2 -1</clus>
<clus scale="   91.186">  7  8 -1 -1</clus>
<clus scale="   92.654">  5  6 -1 -1</clus>
<clus scale="  105.508">  1  7  2 -1</clus>
<clus scale="   38.065">  1  5  2 -1</clus>
</clustering>
</event>
<event>
 9    1  0.1905415E-005  0.9155685E+02  0.7546771E-02  0.1299512E+00
         21   -1    0    0  501  502  0.00000000000E+00  0.00000000000E+00  0.54344283355E+02  0.54344283355E+02  0.00000000000E+00 0. -1.
         -2   -1    0    0    0  501 -0.00000000000E+00 -0.00000000000E+00 -0.57384153998E+03  0.57384153998E+03  0.00000000000E+00 0.  1.
         23    2    1    2    0    0  0.61234738876E+01 -0.12978265769E+02 -0.39602870158E+03  0.40664112610E+03  0.91172038727E+02 0.  0.
         23    2    1    2    0    0  0.37308014503E+02 -0.27721384211E+02 -0.22303090618E+02  0.10416835002E+03  0.90516596304E+02 0.  0.
        -13    1    4    4    0    0 -0.13537736793E+02  0.24869703820E+02 -0.27495135217E+01  0.28448766409E+02  0.00000000000E+00 0. -1.
         13    1    4    4    0    0  0.50845751297E+02 -0.52591088031E+02 -0.19553577096E+02  0.75719583613E+02  0.00000000000E+00 0.  1.
        -13    1    3    3    0    0  0.13761720302E+02  0.37253085118E+02 -0.21403026804E+03  0.21768356147E+03  0.00000000000E+00 0.  1.
         13    1    3    3    0    0 -0.76382464147E+01 -0.50231350887E+02 -0.18199843354E+03  0.18895756463E+03  0.00000000000E+00 0. -1.
         -2    1    1    2    0  502 -0.43431488391E+02  0.40699649980E+02 -0.10116546443E+03  0.11737634721E+03  0.00000000000E+00 0.  1.
<scales pt_clust_5="13000.00000" pt_clust_6="13000.00000" pt_clust_7="13000.00000" pt_clust_8="13000.00000" pt_clust_9="59.52108"></scales>
<clustering>
<clus scale="   59.521">  1  9  2 -1</clus>
<clus scale="   90.517">  5  6 -1 -1</clus>
<clus scale="   90.904">  1  5  2 -1</clus>
<clus scale="   91.172">  7  8 -1 -1</clus>
<clus scale="   59.521">  1  5  2 -1</clus>
</clustering>
</event>
<event>
 9    1  0.1321469E-005  0.1005926E+03  0.7546771E-02  0.1279107E+00
         -1   -1    0    0    0  501 -0.00000000000E+00  0.00000000000E+00  0.92871505872E+02  0.92871505872E+02  0.00000000000E+00 0.  1.
         21   -1    0    0  501  502  0.00000000000E+00 -0.00000000000E+00 -0.14620813036E+03  0.14620813036E+03  0.00000000000E+00 0.  1.
         23    2    1    2    0    0 -0.16965380768E+02  0.34638341458E+02 -0.50618578833E+01  0.98847089272E+02  0.90870709300E+02 0.  0.
         23    2    1    2    0    0  0.43209658788E+02 -0.30828879218E+02 -0.38323116326E+02  0.11190747901E+03  0.90758626069E+02 0.  0.
        -11    1    4    4    0    0  0.23409863030E+02  0.31536335286E+02 -0.19325759752E+02  0.43772675499E+02  0.00000000000E+00 0.  1.
         11    1    4    4    0    0  0.19799795759E+02 -0.62365214503E+02 -0.18997356575E+02  0.68134803507E+02  0.00000000000E+00 0. -1.
        -13    1    3    3    0    0  0.17067270598E+02  0.55864126867E+02 -0.60502899826E+01  0.58725619666E+02  0.00000000000E+00 0.  1.
         13    1    3    3    0    0 -0.34032651366E+02 -0.21225785410E+02  0.98843209934E+00  0.40121469605E+02  0.00000000000E+00 0. -1.
         -1    1    1    2    0  502 -0.26244278020E+02 -0.38094622401E+01 -0.99516502783E+01  0.28325067954E+02  0.00000000000E+00 0.  1.
<scales pt_clust_5="13000.00000" pt_clust_6="13000.00000" pt_clust_7="13000.00000" pt_clust_8="13000.00000" pt_clust_9="26.51932"></scales>
<clustering>
<clus scale="   26.519">  2  9  1 -1</clus>
<clus scale="   90.759">  5  6 -1 -1</clus>
<clus scale="   90.871">  7  8 -1 -1</clus>
<clus scale="  100.491">  2  5  1 -1</clus>
<clus scale="   26.519">  2  5  1 -1</clus>
</clustering>
</event>
<event>
 9    1  0.1321469E-005  0.1323453E+03  0.7546771E-02  0.1224483E+00
         21   -1    0    0  501  502  0.00000000000E+00  0.00000000000E+00  0.60360932152E+02  0.60360932152E+02  0.00000000000E+00 0. -1.
          1   -1    0    0  502    0 -0.00000000000E+00 -0.00000000000E+00 -0.84382236538E+03  0.84382236538E+03  0.00000000000E+00 0. -1.
         23    2    1    2    0    0 -0.86722431720E+02  0.30728057031E+02 -0.46058529282E+03  0.47835653611E+03  0.90670667939E+02 0.  0.
         23    2    1    2    0    0  0.11105881175E+03  0.23496542413E+02 -0.33543010517E+03  0.36508000341E+03  0.88791363643E+02 0.  0.
        -11    1    4    4    0    0  0.69239680602E+01  0.30058361659E+02 -0.14190256659E+03  0.14521633808E+03  0.00000000000E+00 0. -1.
         11    1    4    4    0    0  0.10413484369E+03 -0.65618192461E+01 -0.19352753858E+03  0.21986366533E+03  0.00000000000E+00 0.  1.
        -13    1    3    3    0    0 -0.84045515879E+02  0.75044061108E+01 -0.43728015553E+03  0.44534694258E+03  0.00000000000E+00 0. -1.
         13    1    3    3    0    0 -0.26769158411E+01  0.23223650920E+02 -0.23305137290E+02  0.33009593524E+02  0.00000000000E+00 0.  1.
          1    1    1    2  501    0 -0.24336380032E+02 -0.54224599444E+02  0.12553964766E+02  0.60746758014E+02  0.00000000000E+00 0. -1.
<scales pt_clust_5="13000.00000" pt_clust_6="13000.00000" pt_clust_7="13000.00000" pt_clust_8="13000.00000" pt_clust_9="59.43540"></scales>
<clustering>
<clus scale="   59.435">  1  9  2 -1</clus>
<clus scale="   88.791">  5  6 -1 -1</clus>
<clus scale="   90.671">  7  8 -1 -1</clus>
<clus scale="  131.065">  1  5  2 -1</clus>
<clus scale="   59.435">  1  5  2 -1</clus>
</clustering>
</event>
<event>
 9    1  0.1423092E-005  0.1523850E+03  0.7546771E-02  0.1219178E+00
          1   -1    0    0  502    0 -0.00000000000E+00  0.00000000000E+00  0.92083745844E+03  0.92083745844E+03  0.00000000000E+00 0. -1.
         21   -1    0    0  501  502  0.00000000000E+00 -0.00000000000E+00 -0.17415687646E+03  0.17415687646E+03  0.00000000000E+00 0. -1.
         23    2    1    2    0    0 -0.22182225794E+02  0.18129604302E+02  0.35027931803E+03  0.36318111801E+03  0.91565223471E+02 0.  0.
         23    2    1    2    0    0  0.14195968778E+03 -0.37829949810E+02  0.52637509528E+03  0.55397075614E+03  0.90714936287E+02 0.  0.
        -11    1    4    4    0    0  0.15310829021E+02 -0.38769998375E+02  0.83269713150E+02  0.93120241556E+02  0.00000000000E+00 0.  1.
         11    1    4    4    0    0  0.12664885876E+03  0.94004856501E+00  0.44310538213E+03  0.46085051458E+03  0.00000000000E+00 0. -1.
        -13    1    3    3    0    0  0.17352007016E+02  0.37727688062E+02  0.89117127420E+02  0.98317511124E+02  0.00000000000E+00 0. -1.
         13    1    3    3    0    0 -0.39534232810E+02 -0.19598083760E+02  0.26116219061E+03  0.26486360689E+03  0.00000000000E+00 0.  1.
          1    1    1    2  501    0 -0.11977746199E+03  0.19700345508E+02 -0.12997383133E+03  0.17784246074E+03  0.00000000000E+00 0. -1.
<scales pt_clust_5="13000.00000" pt_clust_6="13000.00000" pt_clust_7="13000.00000" pt_clust_8="13000.00000" pt_clust_9="122.44178"></scales>
<clustering>
<clus scale="   90.715">  5  6 -1 -1</clus>
<clus scale="   91.565">  7  8 -1 -1</clus>
<clus scale="   95.942">  1  7  2 -1</clus>
<clus scale="  122.442">  2  9  1 -1</clus>
<clus scale="  122.442">  2  5  1 -1</clus>
</clustering>
</event>
<event>
 9    1  0.1321469E-005  0.1099845E+03  0.7546771E-02  0.1261237E+00
         21   -1    0    0  501  502  0.00000000000E+00  0.00000000000E+00  0.83201896855E+02  0.83201896855E+02  0.00000000000E+00 0.  1.
         -1   -1    0    0    0  501 -0.00000000000E+00 -0.00000000000E+00 -0.58633492508E+03  0.58633492508E+03  0.00000000000E+00 0.  1.
         23    2    1    2    0    0 -0.27263606981E+02  0.39794861920E+02 -0.33000564060E+03  0.34606748663E+03  0.92369081243E+02 0.  0.
         23    2    1    2    0    0  0.62958446836E+02 -0.54938865925E+02 -0.22625677979E+03  0.25769552013E+03  0.90734809602E+02 0.  0.
        -11    1    3    3    0    0 -0.59610931467E+02  0.23434887289E+02 -0.16215097815E+03  0.17434333026E+03  0.00000000000E+00 0. -1.
         11    1    3    3    0    0  0.32347324486E+02  0.16359974632E+02 -0.16785466245E+03  0.17172415636E+03  0.00000000000E+00 0.  1.
        -13    1    4    4    0    0  0.27751661904E+02 -0.55226145742E+02 -0.54613858790E+02  0.82478818395E+02  0.00000000000E+00 0. -1.
         13    1    4    4    0    0  0.35206784932E+02  0.28727981665E+00 -0.17164292100E+03  0.17521670173E+03  0.00000000000E+00 0.  1.
         -1    1    1    2    0  502 -0.35694839855E+02  0.15144004005E+02  0.53129392178E+02  0.65773815176E+02  0.00000000000E+00 0.  1.
<scales pt_clust_5="13000.00000" pt_clust_6="13000.00000" pt_clust_7="13000.00000" pt_clust_8="13000.00000" pt_clust_9="38.77451"></scales>
<clustering>
<clus scale="   38.775">  1  9  2 -1</clus>
<clus scale="   90.735">  7  8 -1 -1</clus>
<clus scale="   92.369">  5  6 -1 -1</clus>
<clus scale="  108.616">  1  7  2 -1</clus>
<clus scale="   38.775">  1  5  2 -1</clus>
</clustering>
</event>
<event>
 9    1  0.1321469E-005  0.1081498E+03  0.7546771E-02  0.1264540E+00
         21   -1    0    0  501  502  0.00000000000E+00  0.00000000000E+00  0.26752974859E+03  0.26752974859E+03  0.00000000000E+00 0.  1.
         -2   -1    0    0    0  501 -0.00000000000E+00 -0.00000000000E+00 -0.81032582856E+02  0.81032582856E+02  0.00000000000E+00 0.  1.
         23    2    1    2    0    0 -0.49776746365E+02  0.18379096512E+02 -0.80380364846E+01  0.10554204595E+03  0.90879028190E+02 0.  0.
         23    2    1    2    0    0  0.70550738908E+02 -0.33482419620E+02  0.14754580274E+03  0.18946962913E+03  0.89613041851E+02 0.  0.
        -11    1    3    3    0    0  0.73565480755E+00 -0.32382763318E+02  0.49338297706E+01  0.32764725305E+02  0.00000000000E+00 0. -1.
         11    1    3    3    0    0 -0.50512401173E+02  0.50761859830E+02 -0.12971866255E+02  0.72777320642E+02  0.00000000000E+00 0.  1.
        -13    1    4    4    0    0  0.17845278034E+02 -0.16881675076E+02 -0.68342985482E+01  0.25498088912E+02  0.00000000000E+00 0. -1.
         13    1    4    4    0    0  0.52705460874E+02 -0.16600744543E+02  0.15438010129E+03  0.16397154021E+03  0.00000000000E+00 0.  1.
         -2    1    1    2    0  502 -0.20773992543E+02  0.15103323108E+02  0.46989399480E+02  0.53550656378E+02  0.00000000000E+00 0.  1.
<scales pt_clust_5="13000.00000" pt_clust_6="13000.00000" pt_clust_7="13000.00000" pt_clust_8="13000.00000" pt_clust_9="25.68402"></scales>
<clustering>
<clus scale="   25.684">  1  9  2 -1</clus>
<clus scale="   89.613">  7  8 -1 -1</clus>
<clus scale="   90.879">  5  6 -1 -1</clus>
<clus scale="  107.088">  1  7  2 -1</clus>
<clus scale="   25.684">  1  5  2 -1</clus>
</clustering>
</event>
<event>
 9    1  0.1321469E-005  0.1014882E+03  0.7546771E-02  0.1278273E+00
         -3   -1    0    0    0  501 -0.00000000000E+00  0.00000000000E+00  0.22791300491E+03  0.22791300491E+03  0.00000000000E+00 0.  1.
         21   -1    0    0  501  502  0.00000000000E+00 -0.00000000000E+00 -0.70790715467E+02  0.70790715467E+02  0.00000000000E+00 0. -1.
         23    2    1    2    0    0 -0.28371462624E+02 -0.80997031129E+01  0.10495232145E+03  0.14437358106E+03  0.94647747194E+02 0.  0.
         23    2    1    2    0    0  0.54479704476E+02  0.13191497742E+01  0.14909191082E+02  0.10833033832E+03  0.92430513711E+02 0.  0.
        -11    1    3    3    0    0 -0.16572649095E+02  0.32332416711E+02  0.94113136267E+02  0.10088270559E+03  0.00000000000E+00 0. -1.
         11    1    3    3    0    0 -0.11798813529E+02 -0.40432119824E+02  0.10839185183E+02  0.43490875476E+02  0.00000000000E+00 0.  1.
        -13    1    4    4    0    0  0.26580898611E+02 -0.37886930562E+02  0.33086974282E+02  0.56892104421E+02  0.00000000000E+00 0.  1.
         13    1    4    4    0    0  0.27898805865E+02  0.39206080336E+02 -0.18177783200E+02  0.51438233894E+02  0.00000000000E+00 0. -1.
         -3    1    1    2    0  502 -0.26108241851E+02  0.67805533387E+01  0.37260776915E+02  0.45999801005E+02  0.00000000000E+00 0.  1.
<scales pt_clust_5="13000.00000" pt_clust_6="13000.00000" pt_clust_7="13000.00000" pt_clust_8="13000.00000" pt_clust_9="26.97438"></scales>
<clustering>
<clus scale="   26.974">  2  9  1 -1</clus>
<clus scale="   92.431">  7  8 -1 -1</clus>
<clus scale="   94.648">  5  6 -1 -1</clus>
<clus scale="   99.424">  2  7  1 -1</clus>
<clus scale="   26.974">  2  5  1 -1</clus>
</clustering>
</event>
<event>
 9    1  0.1321469E-005  0.2801765E+03  0.7546771E-02  0.1095740E+00
         21   -1    0    0  501  502  0.00000000000E+00  0.00000000000E+00  0.21582363656E+03  0.21582363656E+03  0.00000000000E+00 0. -1.
          4   -1    0    0  502    0 -0.00000000000E+00 -0.00000000000E+00 -0.86688098814E+03  0.86688098814E+03  0.00000000000E+00 0. -1.
         23    2    1    2    0    0 -0.16827553955E+03 -0.20700212698E+03 -0.31055574371E+03  0.41839122766E+03  0.86254342756E+02 0.  0.
         23    2    1    2    0    0 -0.19569098488E+02  0.30709196291E+03 -0.31594300162E+03  0.45005488861E+03  0.89671618628E+02 0.  0.
        -11    1    4    4    0    0 -0.48783774583E+02  0.25000426764E+03 -0.26984242903E+03  0.37107536567E+03  0.00000000000E+00 0. -1.
         11    1    4    4    0    0  0.29214676095E+02  0.57087695263E+02 -0.46100572584E+02  0.78979522931E+02  0.00000000000E+00 0.  1.
        -11    1    3    3    0    0 -0.24295419165E+02  0.42139004171E+01 -0.24425720231E+02  0.34707926442E+02  0.00000000000E+00 0.  1.
         11    1    3    3    0    0 -0.14398012039E+03 -0.21121602739E+03 -0.28613002348E+03  0.38368330122E+03  0.00000000000E+00 0. -1.
          4    1    1    2  501    0  0.18784463804E+03 -0.10008983593E+03 -0.24558606251E+02  0.21425850844E+03  0.00000000000E+00 0. -1.
<scales pt_clust_5="13000.00000" pt_clust_6="13000.00000" pt_clust_7="13000.00000" pt_clust_8="13000.00000" pt_clust_9="212.84638"></scales>
<clustering>
<clus scale="   86.254">  7  8 -1 -1</clus>
<clus scale="   89.672">  5  6 -1 -1</clus>
<clus scale="  212.846">  1  9  2 -1</clus>
<clus scale="  279.102">  2  7  1 -1</clus>
<clus scale="  212.846">  1  5  2 -1</clus>
</clustering>
</event>
<event>
 9    1  0.1321469E-005  0.9507868E+02  0.7546771E-02  0.1291205E+00
          1   -1    0    0  502    0 -0.00000000000E+00  0.00000000000E+00  0.39787912867E+03  0.39787912867E+03  0.00000000000E+00 0. -1.
         21   -1    0    0  501  502  0.00000000000E+00 -0.00000000000E+00 -0.70190974368E+02  0.70190974368E+02  0.00000000000E+00 0. -1.
         23    2    1    2    0    0 -0.34387785017E+02  0.21386207860E+01  0.22104984241E+03  0.24161816998E+03  0.91264526376E+02 0.  0.
         23    2    1    2    0    0  0.13129274378E+02 -0.58609248754E+01  0.15094341920E+03  0.17716986374E+03  0.91643420564E+02 0.  0.
        -13    1    4    4    0    0  0.38319899660E+02  0.29671038218E+02  0.90619127772E+02  0.10276483609E+03  0.00000000000E+00 0.  1.
         13    1    4    4    0    0 -0.25190625281E+02 -0.35531963094E+02  0.60324291427E+02  0.74405027649E+02  0.00000000000E+00 0. -1.
        -13    1    3    3    0    0  0.28035445258E+02 -0.14533057923E+02  0.92550095984E+02  0.97789141677E+02  0.00000000000E+00 0.  1.
         13    1    3    3    0    0 -0.62423230276E+02  0.16671678709E+02  0.12849974643E+03  0.14382902830E+03  0.00000000000E+00 0. -1.
          1    1    1    2  501    0  0.21258510639E+02  0.37223040893E+01 -0.44305107312E+02  0.49282069318E+02  0.00000000000E+00 0. -1.
<scales pt_clust_5="13000.00000" pt_clust_6="13000.00000" pt_clust_7="13000.00000" pt_clust_8="13000.00000" pt_clust_9="21.58193"></scales>
<clustering>
<clus scale="   21.582">  2  9  1 -1</clus>
<clus scale="   91.265">  7  8 -1 -1</clus>
<clus scale="   91.643">  5  6 -1 -1</clus>
<clus scale="   94.714">  1  7  2 -1</clus>
<clus scale="   21.582">  2  5  1 -1</clus>
</clustering>
</event>
<event>
 9    1  0.1321469E-005  0.1794184E+03  0.7546771E-02  0.1184298E+00
          1   -1    0    0  502    0 -0.00000000000E+00  0.00000000000E+00  0.91714939070E+03  0.91714939070E+03  0.00000000000E+00 0. -1.
         21   -1    0    0  501  502  0.00000000000E+00 -0.00000000000E+00 -0.13712925420E+03  0.13712925420E+03  0.00000000000E+00 0. -1.
         23    2    1    2    0    0  0.82319444925E+02  0.24674907697E+02  0.60275870702E+03  0.61560853054E+03  0.90942079901E+02 0.  0.
         23    2    1    2    0    0  0.85724574593E+02  0.11470924617E+02  0.22691634156E+03  0.25975414531E+03  0.92200353250E+02 0.  0.
        -11    1    3    3    0    0  0.21042487875E+02 -0.33684960724E+02  0.22602534497E+03  0.22948838629E+03  0.00000000000E+00 0.  1.
         11    1    3    3    0    0  0.61276957050E+02  0.58359868421E+02  0.37673336206E+03  0.38612014425E+03  0.00000000000E+00 0. -1.
        -13    1    4    4    0    0  0.78863463463E+02  0.44585706679E+02  0.14302488470E+03  0.16930283150E+03  0.00000000000E+00 0.  1.
         13    1    4    4    0    0  0.68611111298E+01 -0.33114782062E+02  0.83891456854E+02  0.90451313811E+02  0.00000000000E+00 0. -1.
          1    1    1    2  501    0 -0.16804401952E+03 -0.36145832313E+02 -0.49654912079E+02  0.17891596906E+03  0.00000000000E+00 0. -1.
<scales pt_clust_5="13000.00000" pt_clust_6="13000.00000" pt_clust_7="13000.00000" pt_clust_8="13000.00000" pt_clust_9="153.91571"></scales>
<clustering>
<clus scale="   90.942">  5  6 -1 -1</clus>
<clus scale="   92.200">  7  8 -1 -1</clus>
<clus scale="  125.123">  1  5  2 -1</clus>
<clus scale="  153.916">  2  9  1 -1</clus>
<clus scale="  153.916">  2  5  1 -1</clus>
</clustering>
</event>
<event>
 9    1  0.1321469E-005  0.1906126E+03  0.7546771E-02  0.1158130E+00
          1   -1    0    0  502    0 -0.00000000000E+00  0.00000000000E+00  0.14541049579E+04  0.14541049579E+04  0.00000000000E+00 0. -1.
         21   -1    0    0  501  502  0.00000000000E+00 -0.00000000000E+00 -0.58039120521E+02  0.58039120521E+02  0.00000000000E+00 0. -1.
         23    2    1    2    0    0 -0.17225688728E+03  0.63836698811E+02  0.97132143233E+03  0.99290210705E+03  0.92960797815E+02 0.  0.
         23    2    1    2    0    0  0.68093359139E+02 -0.12762366434E+03  0.19670691992E+03  0.26055313863E+03  0.90938553140E+02 0.  0.
        -11    1    3    3    0    0 -0.17886821028E+02  0.47271492655E+02  0.25124431403E+03  0.25627765746E+03  0.00000000000E+00 0.  1.
         11    1    3    3    0    0 -0.15437006625E+03  0.16565206156E+02  0.72007711831E+03  0.73662444958E+03  0.00000000000E+00 0. -1.
        -11    1    4    4    0    0  0.80750665823E+02 -0.56826502846E+02  0.12003003442E+03  0.15542564338E+03  0.00000000000E+00 0.  1.
         11    1    4    4    0    0 -0.12657306684E+02 -0.70797161491E+02  0.76676885494E+02  0.10512749525E+03  0.00000000000E+00 0. -1.
          1    1    1    2  501    0  0.10416352814E+03  0.63786965525E+02  0.22803748512E+03  0.25868883275E+03  0.00000000000E+00 0. -1.
<scales pt_clust_5="13000.00000" pt_clust_6="13000.00000" pt_clust_7="13000.00000" pt_clust_8="13000.00000" pt_clust_9="122.14261"></scales>
<clustering>
<clus scale="   90.939">  7  8 -1 -1</clus>
<clus scale="   92.961">  5  6 -1 -1</clus>
<clus scale="  122.143">  2  9  1 -1</clus>
<clus scale="  189.635">  2  7  1 -1</clus>
<clus scale="  122.143">  2  5  1 -1</clus>
</clustering>
</event>
<event>
 9    1  0.1321469E-005  0.1019548E+03  0.7546771E-02  0.1280797E+00
         21   -1    0    0  501  502  0.00000000000E+00  0.00000000000E+00  0.52299696090E+02  0.52299696090E+02  0.00000000000E+00 0. -1.
          2   -1    0    0  502    0 -0.00000000000E+00 -0.00000000000E+00 -0.31139435685E+03  0.31139435685E+03  0.00000000000E+00 0. -1.
         23    2    1    2    0    0  0.33437856195E+02  0.35166654723E+02 -0.19666449890E+03  0.22241190247E+03  0.91844136448E+02 0.  0.
         23    2    1    2    0    0 -0.44859083631E+01 -0.42003153910E+02 -0.62285049898E+02  0.11153363687E+03  0.82316076192E+02 0.  0.
        -11    1    3    3    0    0  0.19702594630E+02 -0.38920036724E+01  0.13370868828E+01  0.20127785002E+02  0.00000000000E+00 0.  1.
         11    1    3    3    0    0  0.13735261565E+02  0.39058658395E+02 -0.19800158579E+03  0.20228411747E+03  0.00000000000E+00 0. -1.
        -13    1    4    4    0    0  0.30789277928E+02 -0.47451007140E+02 -0.42247652593E+02  0.70600579768E+02  0.00000000000E+00 0.  1.
         13    1    4    4    0    0 -0.35275186291E+02  0.54478532299E+01 -0.20037397305E+02  0.40933057099E+02  0.00000000000E+00 0. -1.
          2    1    1    2  501    0 -0.28951947832E+02  0.68364991871E+01 -0.14511196240E+00  0.29748513608E+02  0.00000000000E+00 0. -1.
<scales pt_clust_5="13000.00000" pt_clust_6="13000.00000" pt_clust_7="13000.00000" pt_clust_8="13000.00000" pt_clust_9="29.74816"></scales>
<clustering>
<clus scale="   29.748">  1  9  2 -1</clus>
<clus scale="   82.316">  7  8 -1 -1</clus>
<clus scale="   91.844">  5  6 -1 -1</clus>
<clus scale="   93.463">  1  7  2 -1</clus>
<clus scale="   29.748">  1  5  2 -1</clus>
</clustering>
</event>
<event>
 9    1  0.1321469E-005  0.1271246E+03  0.7546771E-02  0.1232051E+00
          2   -1    0    0  502    0 -0.00000000000E+00  0.00000000000E+00  0.67213328516E+03  0.67213328516E+03  0.00000000000E+00 0. -1.
         21   -1    0    0  501  502  0.00000000000E+00 -0.00000000000E+00 -0.47247166037E+02  0.47247166037E+02  0.00000000000E+00 0. -1.
         23    2    1    2    0    0  0.14588469925E+01  0.87678585451E+02  0.40497020819E+03  0.42411039476E+03  0.90438348302E+02 0.  0.
         23    2    1    2    0    0 -0.29130399881E+02 -0.89490802812E+02  0.82260870500E+02  0.15484958383E+03  0.91402181650E+02 0.  0.
        -11    1    4    4    0    0 -0.38507790247E+02 -0.37626187532E+02  0.86594052867E+02  0.10196621936E+03  0.00000000000E+00 0.  1.
         11    1    4    4    0    0  0.93773903661E+01 -0.51864615280E+02 -0.43331823664E+01  0.52883364470E+02  0.00000000000E+00 0. -1.
        -13    1    3    3    0    0 -0.44231882678E+02  0.36683669119E+02  0.18992189519E+03  0.19842499162E+03  0.00000000000E+00 0. -1.
         13    1    3    3    0    0  0.45690729671E+02  0.50994916332E+02  0.21504831299E+03  0.22568540314E+03  0.00000000000E+00 0.  1.
          2    1    1    2  501    0  0.27671552888E+02  0.18122173607E+01  0.13765504043E+03  0.14042047261E+03  0.00000000000E+00 0. -1.
<scales pt_clust_5="13000.00000" pt_clust_6="13000.00000" pt_clust_7="13000.00000" pt_clust_8="13000.00000" pt_clust_9="27.73084"></scales>
<clustering>
<clus scale="   27.731">  2  9  1 -1</clus>
<clus scale="   90.438">  7  8 -1 -1</clus>
<clus scale="   91.402">  5  6 -1 -1</clus>
<clus scale="  126.433">  1  7  2 -1</clus>
<clus scale="   27.731">  2  5  1 -1</clus>
</clustering>
</event>
<event>
 9    1  0.1321469E-005  0.2983341E+03  0.7546771E-02  0.1086463E+00
          2   -1    0    0  502    0 -0.00000000000E+00  0.00000000000E+00  0.30150886121E+03  0.30150886121E+03  0.00000000000E+00 0. -1.
         21   -1    0    0  501  502  0.00000000000E+00 -0.00000000000E+00 -0.10359966681E+04  0.10359966681E+04  0.00000000000E+00 0. -1.
         23    2    1    2    0    0 -0.20989092574E+03  0.16325307161E+03  0.10951189488E+03  0.30012984212E+03  0.85902857439E+02 0.  0.
         23    2    1    2    0    0  0.26033374273E+03 -0.21936050745E+03 -0.23708044210E+03  0.42578472102E+03  0.95879105097E+02 0.  0.
        -11    1    3    3    0    0 -0.12586200534E+02  0.50434165948E+02  0.16305998403E+02  0.54478464761E+02  0.00000000000E+00 0. -1.
         11    1    3    3    0    0 -0.19730472521E+03  0.11281890566E+03  0.93205896474E+02  0.24565137736E+03  0.00000000000E+00 0.  1.
        -11    1    4    4    0    0  0.12547938394E+03 -0.14511929077E+03 -0.86504535190E+02  0.21044647527E+03  0.00000000000E+00 0. -1.
         11    1    4    4    0    0  0.13485435879E+03 -0.74241216688E+02 -0.15057590691E+03  0.21533824575E+03  0.00000000000E+00 0.  1.
          2    1    1    2  501    0 -0.50442816991E+02  0.56107435846E+02 -0.60691925968E+03  0.61159096618E+03  0.00000000000E+00 0. -1.
<scales pt_clust_5="13000.00000" pt_clust_6="13000.00000" pt_clust_7="13000.00000" pt_clust_8="13000.00000" pt_clust_9="75.44880"></scales>
<clustering>
<clus scale="   75.449">  2  9  1 -1</clus>
<clus scale="   85.903">  5  6 -1 -1</clus>
<clus scale="   95.879">  7  8 -1 -1</clus>
<clus scale="  295.279">  1  5  2 -1</clus>
<clus scale="   75.449">  2  5  1 -1</clus>
</clustering>
</event>
<event>
 9    1  0.1321469E-005  0.9557299E+02  0.7546771E-02  0.1290753E+00
          4   -1    0    0  502    0 -0.00000000000E+00  0.00000000000E+00  0.24548085270E+03  0.24548085270E+03  0.00000000000E+00 0. -1.
         21   -1    0    0  501  502  0.00000000000E+00 -0.00000000000E+00 -0.63582364827E+02  0.63582364827E+02  0.00000000000E+00 0. -1.
         23    2    1    2    0    0 -0.35791286246E+02  0.15361690422E+02  0.14420801342E+03  0.17493361300E+03  0.91042957539E+02 0.  0.
         23    2    1    2    0    0  0.43128297042E+00 -0.18518029269E+02  0.37219432212E+02  0.98625883777E+02  0.89435314074E+02 0.  0.
        -11    1    4    4    0    0  0.28365950472E+01 -0.52620695447E+02  0.73098783783E+01  0.53201674623E+02  0.00000000000E+00 0. -1.
         11    1    4    4    0    0 -0.24053120768E+01  0.34102666178E+02  0.29909553834E+02  0.45424209153E+02  0.00000000000E+00 0.  1.
        -13    1    3    3    0    0  0.14640557078E+02  0.26629286695E+02  0.11451863044E+02  0.32474759254E+02  0.00000000000E+00 0.  1.
         13    1    3    3    0    0 -0.50431843323E+02 -0.11267596273E+02  0.13275615038E+03  0.14245885374E+03  0.00000000000E+00 0. -1.
          4    1    1    2  501    0  0.35360003275E+02  0.31563388471E+01  0.47104223936E+00  0.35503720753E+02  0.00000000000E+00 0. -1.
<scales pt_clust_5="13000.00000" pt_clust_6="13000.00000" pt_clust_7="13000.00000" pt_clust_8="13000.00000" pt_clust_9="35.50060"></scales>
<clustering>
<clus scale="   35.501">  2  9  1 -1</clus>
<clus scale="   89.435">  5  6 -1 -1</clus>
<clus scale="   91.043">  7  8 -1 -1</clus>
<clus scale="   94.043">  2  5  1 -1</clus>
<clus scale="   35.501">  2  5  1 -1</clus>
</clustering>
</event>
<event>
 9    1  0.1321469E-005  0.1044448E+03  0.7546771E-02  0.1271419E+00
         21   -1    0    0  501  502  0.00000000000E+00  0.00000000000E+00  0.24959401523E+03  0.24959401523E+03  0.00000000000E+00 0.  1.
         -1   -1    0    0    0  501 -0.00000000000E+00 -0.00000000000E+00 -0.48059092542E+03  0.48059092542E+03  0.00000000000E+00 0.  1.
         23    2    1    2    0    0  0.77410885674E+00  0.51985520648E+02 -0.40792150909E+03  0.42131245170E+03  0.91657682593E+02 0.  0.
         23    2    1    2    0    0 -0.37106236452E+02 -0.35473663875E+02 -0.21192431350E+02  0.10677592148E+03  0.91196078038E+02 0.  0.
        -13    1    4    4    0    0 -0.34269624481E+02  0.24940414918E+02 -0.18470441574E+02  0.46234063960E+02  0.00000000000E+00 0.  1.
         13    1    4    4    0    0 -0.28366119706E+01 -0.60414078793E+02 -0.27219897762E+01  0.60541857522E+02  0.00000000000E+00 0. -1.
        -13    1    3    3    0    0  0.33492597277E+02  0.50540995439E+02 -0.34591366152E+03  0.35118714030E+03  0.00000000000E+00 0.  1.
         13    1    3    3    0    0 -0.32718488420E+02  0.14445252087E+01 -0.62007847575E+02  0.70125311396E+02  0.00000000000E+00 0. -1.
         -1    1    1    2    0  502  0.36332127595E+02 -0.16511856773E+02  0.19811703024E+03  0.20209656747E+03  0.00000000000E+00 0.  1.
<scales pt_clust_5="13000.00000" pt_clust_6="13000.00000" pt_clust_7="13000.00000" pt_clust_8="13000.00000" pt_clust_9="39.90821"></scales>
<clustering>
<clus scale="   39.908">  1  9  2 -1</clus>
<clus scale="   91.196">  5  6 -1 -1</clus>
<clus scale="   91.658">  7  8 -1 -1</clus>
<clus scale="  104.040">  1  5  2 -1</clus>
<clus scale="   39.908">  1  5  2 -1</clus>
</clustering>
</event>
<event>
 9    1  0.1321469E-005  0.9866770E+02  0.7546771E-02  0.1287675E+00
          1   -1    0    0  502    0 -0.00000000000E+00  0.00000000000E+00  0.28593791768E+03  0.28593791768E+03  0.00000000000E+00 0. -1.
         21   -1    0    0  501  502  0.00000000000E+00 -0.00000000000E+00 -0.45792369150E+02  0.45792369150E+02  0.00000000000E+00 0.  1.
         23    2    1    2    0    0  0.52942805723E+01 -0.26288593827E+02  0.12245967878E+03  0.15030776960E+03  0.82927275984E+02 0.  0.
         23    2    1    2    0    0 -0.29737710765E+02  0.45256733290E+02  0.98067483885E+02  0.14478711553E+03  0.91725536670E+02 0.  0.
        -11    1    4    4    0    0 -0.51493802533E+02  0.53030480310E+02  0.96601341794E+02  0.12163742343E+03  0.00000000000E+00 0.  1.
         11    1    4    4    0    0  0.21756091768E+02 -0.77737470208E+01  0.14661420911E+01  0.23149692101E+02  0.00000000000E+00 0. -1.
        -13    1    3    3    0    0  0.25333701526E+02  0.56941870961E+01  0.10599756266E+03  0.10913158795E+03  0.00000000000E+00 0. -1.
         13    1    3    3    0    0 -0.20039420953E+02 -0.31982780923E+02  0.16462116126E+02  0.41176181647E+02  0.00000000000E+00 0.  1.
          1    1    1    2  501    0  0.24443430193E+02 -0.18968139463E+02  0.19618385865E+02  0.36635401707E+02  0.00000000000E+00 0. -1.
<scales pt_clust_5="13000.00000" pt_clust_6="13000.00000" pt_clust_7="13000.00000" pt_clust_8="13000.00000" pt_clust_9="30.93981"></scales>
<clustering>
<clus scale="   30.940">  2  9  1 -1</clus>
<clus scale="   82.927">  7  8 -1 -1</clus>
<clus scale="   90.547">  1  7  2 -1</clus>
<clus scale="   91.726">  5  6 -1 -1</clus>
<clus scale="   30.940">  2  5  1 -1</clus>
</clustering>
</event>
<event>
 9    1  0.1321469E-005  0.1008037E+03  0.7546771E-02  0.1279869E+00
         -3   -1    0    0    0  501 -0.00000000000E+00  0.00000000000E+00  0.17996375681E+03  0.17996375681E+03  0.00000000000E+00 0.  1.
         21   -1    0    0  501  502  0.00000000000E+00 -0.00000000000E+00 -0.33650825132E+03  0.33650825132E+03  0.00000000000E+00 0. -1.
         23    2    1    2    0    0  0.29332882326E+02  0.29023483607E+02  0.14432761339E+03  0.17486472045E+03  0.89690745816E+02 0.  0.
         23    2    1    2    0    0 -0.54631064908E+02  0.16340786113E+02 -0.22317300224E+03  0.24814571253E+03  0.92295889258E+02 0.  0.
        -11    1    4    4    0    0  0.13301029161E+02  0.14939055628E+02 -0.64429830329E+01  0.21014394833E+02  0.00000000000E+00 0.  1.
         11    1    4    4    0    0 -0.67932094070E+02  0.14017304847E+01 -0.21673001920E+03  0.22713131769E+03  0.00000000000E+00 0. -1.
        -13    1    3    3    0    0  0.10530474457E+02  0.44450402940E+02  0.14342809466E+03  0.15052689976E+03  0.00000000000E+00 0.  1.
         13    1    3    3    0    0  0.18802407869E+02 -0.15426919333E+02  0.89951872586E+00  0.24337820686E+02  0.00000000000E+00 0. -1.
         -3    1    1    2    0  502  0.25298182582E+02 -0.45364269720E+02 -0.77699105669E+02  0.93461575157E+02  0.00000000000E+00 0.  1.
<scales pt_clust_5="13000.00000" pt_clust_6="13000.00000" pt_clust_7="13000.00000" pt_clust_8="13000.00000" pt_clust_9="51.94146"></scales>
<clustering>
<clus scale="   51.941">  2  9  1 -1</clus>
<clus scale="   89.691">  7  8 -1 -1</clus>
<clus scale="   92.296">  5  6 -1 -1</clus>
<clus scale="   98.424">  1  7  2 -1</clus>
<clus scale="   51.941">  2  5  1 -1</clus>
</clustering>
</event>
<event>
 9    1  0.1321469E-005  0.1015824E+03  0.7546771E-02  0.1278499E+00
         21   -1    0    0  501  502  0.00000000000E+00  0.00000000000E+00  0.70737084532E+02  0.70737084532E+02  0.00000000000E+00 0.  1.
          1   -1    0    0  502    0 -0.00000000000E+00 -0.00000000000E+00 -0.30380989774E+03  0.30380989774E+03  0.00000000000E+00 0. -1.
         23    2    1    2    0    0 -0.21228434112E+02 -0.42479992612E+02 -0.22557253751E+03  0.24686418366E+03  0.88338888995E+02 0.  0.
         23    2    1    2    0    0  0.92134624238E+01  0.24622728309E+02  0.15166200522E+02  0.96425630197E+02  0.91524433249E+02 0.  0.
        -11    1    3    3    0    0  0.34065421540E+02 -0.76155856416E+01 -0.80905574014E+02  0.88114482328E+02  0.00000000000E+00 0.  1.
         11    1    3    3    0    0 -0.55293855652E+02 -0.34864406971E+02 -0.14466696350E+03  0.15874970133E+03  0.00000000000E+00 0. -1.
        -11    1    4    4    0    0  0.41563597295E+02 -0.25515112641E+01 -0.15272007105E+02  0.44353996786E+02  0.00000000000E+00 0. -1.
         11    1    4    4    0    0 -0.32350134872E+02  0.27174239573E+02  0.30438207627E+02  0.52071633411E+02  0.00000000000E+00 0.  1.
          1    1    1    2  501    0  0.12014971688E+02  0.17857264304E+02 -0.22666476222E+02  0.31257168416E+02  0.00000000000E+00 0. -1.
<scales pt_clust_5="13000.00000" pt_clust_6="13000.00000" pt_clust_7="13000.00000" pt_clust_8="13000.00000" pt_clust_9="21.52305"></scales>
<clustering>
<clus scale="   21.523">  1  9  2 -1</clus>
<clus scale="   88.339">  5  6 -1 -1</clus>
<clus scale="   91.524">  7  8 -1 -1</clus>
<clus scale="   98.722">  2  5  1 -1</clus>
<clus scale="   21.523">  1  5  2 -1</clus>
</clustering>
</event>
<event>
 9    1  0.1321469E-005  0.1900110E+03  0.7546771E-02  0.1158735E+00
         21   -1    0    0  501  502  0.00000000000E+00  0.00000000000E+00  0.14549499153E+03  0.14549499153E+03  0.00000000000E+00 0.  1.
          1   -1    0    0  502    0 -0.00000000000E+00 -0.00000000000E+00 -0.61346027516E+03  0.61346027516E+03  0.00000000000E+00 0. -1.
         23    2    1    2    0    0 -0.10446385763E+03  0.15711098308E+03 -0.46377311195E+03  0.50894127471E+03  0.91319018699E+02 0.  0.
         23    2    1    2    0    0  0.13402111241E+02 -0.89583898487E+02  0.25272037891E+02  0.13288035696E+03  0.93880892155E+02 0.  0.
        -11    1    4    4    0    0  0.51380343284E+02 -0.68219044245E+02  0.72012874591E+01  0.85706687106E+02  0.00000000000E+00 0.  1.
         11    1    4    4    0    0 -0.37978232044E+02 -0.21364854242E+02  0.18070750432E+02  0.47173669850E+02  0.00000000000E+00 0. -1.
        -11    1    3    3    0    0 -0.87171683695E+02  0.12227047708E+03 -0.43603636047E+03  0.46116881904E+03  0.00000000000E+00 0. -1.
         11    1    3    3    0    0 -0.17292173931E+02  0.34840505998E+02 -0.27736751479E+02  0.47772455663E+02  0.00000000000E+00 0.  1.
          1    1    1    2  501    0  0.91061746385E+02 -0.67527084595E+02 -0.29464209575E+02  0.11713363503E+03  0.00000000000E+00 0. -1.
<scales pt_clust_5="13000.00000" pt_clust_6="13000.00000" pt_clust_7="13000.00000" pt_clust_8="13000.00000" pt_clust_9="113.36732"></scales>
<clustering>
<clus scale="   91.319">  7  8 -1 -1</clus>
<clus scale="   93.881">  5  6 -1 -1</clus>
<clus scale="  113.367">  1  9  2 -1</clus>
<clus scale="  188.758">  2  7  1 -1</clus>
<clus scale="  113.367">  1  5  2 -1</clus>
</clustering>
</event>
<event>
 9    1  0.1321469E-005  0.1016192E+03  0.7546771E-02  0.1277285E+00
         21   -1    0    0  501  502  0.00000000000E+00  0.00000000000E+00  0.19461138194E+03  0.19461138194E+03  0.00000000000E+00 0.  1.
          2   -1    0    0  502    0 -0.00000000000E+00 -0.00000000000E+00 -0.10640059854E+03  0.10640059854E+03  0.00000000000E+00 0. -1.
         23    2    1    2    0    0  0.37932074784E+02  0.12954149873E+02 -0.42256977165E+02  0.10802285685E+03  0.90976003360E+02 0.  0.
         23    2    1    2    0    0 -0.63485056425E+02 -0.58155348131E+01  0.81406704093E+02  0.13721366345E+03  0.90201802264E+02 0.  0.
        -11    1    4    4    0    0 -0.23649919816E+02  0.26973488602E+02  0.77586359001E+02  0.85478248097E+02  0.00000000000E+00 0.  1.
         11    1    4    4    0    0 -0.39835136609E+02 -0.32789023415E+02  0.38203450923E+01  0.51735415353E+02  0.00000000000E+00 0. -1.
        -13    1    3    3    0    0  0.49437206262E+02  0.39348919362E+02 -0.86603453891E+01  0.63775986078E+02  0.00000000000E+00 0. -1.
         13    1    3    3    0    0 -0.11505131478E+02 -0.26394769489E+02 -0.33596631776E+02  0.44246870776E+02  0.00000000000E+00 0.  1.
          2    1    1    2  501    0  0.25552981641E+02 -0.71386150596E+01  0.49061056469E+02  0.55775460173E+02  0.00000000000E+00 0. -1.
<scales pt_clust_5="13000.00000" pt_clust_6="13000.00000" pt_clust_7="13000.00000" pt_clust_8="13000.00000" pt_clust_9="26.53139"></scales>
<clustering>
<clus scale="   26.531">  1  9  2 -1</clus>
<clus scale="   90.202">  5  6 -1 -1</clus>
<clus scale="   90.976">  7  8 -1 -1</clus>
<clus scale="  100.927">  1  5  2 -1</clus>
<clus scale="   26.531">  1  5  2 -1</clus>
</clustering>
</event>
<event>
 9    1  0.1321469E-005  0.1260017E+03  0.7546771E-02  0.1255956E+00
          1   -1    0    0  502    0 -0.00000000000E+00  0.00000000000E+00  0.36568219979E+03  0.36568219979E+03  0.00000000000E+00 0. -1.
         21   -1    0    0  501  502  0.00000000000E+00 -0.00000000000E+00 -0.60967231776E+02  0.60967231776E+02  0.00000000000E+00 0.  1.
         23    2    1    2    0    0  0.16820028274E+02 -0.23999139110E+01  0.53603631940E+02  0.96428114438E+02  0.78334915325E+02 0.  0.
         23    2    1    2    0    0 -0.42642835621E+02  0.82815527693E+02  0.15459395677E+03  0.20196730032E+03  0.90634849107E+02 0.  0.
        -11    1    3    3    0    0 -0.31574041452E+02 -0.15974288619E+00  0.18425977968E+02  0.36557656866E+02  0.00000000000E+00 0. -1.
         11    1    3    3    0    0  0.48394069727E+02 -0.22401710248E+01  0.35177653972E+02  0.59870457572E+02  0.00000000000E+00 0.  1.
        -11    1    4    4    0    0 -0.41268917455E+02 -0.53987533959E+01  0.53685082086E+02  0.67929066861E+02  0.00000000000E+00 0. -1.
         11    1    4    4    0    0 -0.13739181667E+01  0.88214281089E+02  0.10090887468E+03  0.13403823346E+03  0.00000000000E+00 0.  1.
          1    1    1    2  501    0  0.25822807347E+02 -0.80415613782E+02  0.96517379305E+02  0.12825401681E+03  0.00000000000E+00 0. -1.
<scales pt_clust_5="13000.00000" pt_clust_6="13000.00000" pt_clust_7="13000.00000" pt_clust_8="13000.00000" pt_clust_9="87.53146"></scales>
<clustering>
<clus scale="   78.335">  5  6 -1 -1</clus>
<clus scale="   80.156">  1  5  2 -1</clus>
<clus scale="   87.531">  2  9  1 -1</clus>
<clus scale="   90.635">  7  8 -1 -1</clus>
<clus scale="   87.531">  2  5  1 -1</clus>
</clustering>
</event>
<event>
 9    1  0.1321469E-005  0.9436404E+02  0.7546771E-02  0.1293252E+00
         21   -1    0    0  501  502  0.00000000000E+00  0.00000000000E+00  0.10433156287E+03  0.10433156287E+03  0.00000000000E+00 0. -1.
          3   -1    0    0  502    0 -0.00000000000E+00 -0.00000000000E+00 -0.20939857642E+03  0.20939857642E+03  0.00000000000E+00 0. -1.
         23    2    1    2    0    0 -0.79561105361E+01 -0.23923990684E+02 -0.14645358580E+03  0.17384015318E+03  0.90200271836E+02 0.  0.
         23    2    1    2    0    0  0.30301487369E+02  0.50217188652E+01  0.98737233719E+01  0.96882179961E+02  0.91352441586E+02 0.  0.
        -11    1    4    4    0    0  0.60711734533E+02 -0.49251393046E+01  0.18654122038E+02  0.63703594688E+02  0.00000000000E+00 0.  1.
         11    1    4    4    0    0 -0.30410247164E+02  0.99468581699E+01 -0.87803986662E+01  0.33178585274E+02  0.00000000000E+00 0. -1.
        -13    1    3    3    0    0  0.10063061354E+02  0.32425972952E+02 -0.44612406249E+02  0.56062248591E+02  0.00000000000E+00 0.  1.
         13    1    3    3    0    0 -0.18019171890E+02 -0.56349963637E+02 -0.10184117955E+03  0.11777790459E+03  0.00000000000E+00 0. -1.
          3    1    1    2  501    0 -0.22345376833E+02  0.18902271819E+02  0.31512848872E+02  0.43007806149E+02  0.00000000000E+00 0. -1.
<scales pt_clust_5="13000.00000" pt_clust_6="13000.00000" pt_clust_7="13000.00000" pt_clust_8="13000.00000" pt_clust_9="29.26793"></scales>
<clustering>
<clus scale="   29.268">  1  9  2 -1</clus>
<clus scale="   90.200">  7  8 -1 -1</clus>
<clus scale="   91.352">  5  6 -1 -1</clus>
<clus scale="   93.249">  2  7  1 -1</clus>
<clus scale="   29.268">  1  5  2 -1</clus>
</clustering>
</event>
<event>
 9    1  0.1321469E-005  0.1018987E+03  0.7546771E-02  0.1276758E+00
         21   -1    0    0  501  502  0.00000000000E+00  0.00000000000E+00  0.71983960940E+02  0.71983960940E+02  0.00000000000E+00 0.  1.
          2   -1    0    0  502    0 -0.00000000000E+00 -0.00000000000E+00 -0.23003662248E+03  0.23003662248E+03  0.00000000000E+00 0. -1.
         23    2    1    2    0    0 -0.49057680264E+02 -0.29696375186E+02 -0.59686625548E+02  0.12280902620E+03  0.90725040401E+02 0.  0.
         23    2    1    2    0    0  0.40533419541E+02 -0.89274064056E+01 -0.35898692437E+02  0.10527490503E+03  0.89841153299E+02 0.  0.
        -11    1    4    4    0    0 -0.28218440473E+01 -0.40832172028E+02 -0.65590732588E+00  0.40934817586E+02  0.00000000000E+00 0. -1.
         11    1    4    4    0    0  0.43355263589E+02  0.31904765623E+02 -0.35242785111E+02  0.64340087447E+02  0.00000000000E+00 0.  1.
        -13    1    3    3    0    0 -0.63995877893E+02  0.70351660329E+01 -0.51199807338E+02  0.82258046536E+02  0.00000000000E+00 0. -1.
         13    1    3    3    0    0  0.14938197629E+02 -0.36731541219E+02 -0.84868182098E+01  0.40550979668E+02  0.00000000000E+00 0.  1.
          2    1    1    2  501    0  0.85242607228E+01  0.38623781591E+02 -0.62467343551E+02  0.73936652180E+02  0.00000000000E+00 0. -1.
<scales pt_clust_5="13000.00000" pt_clust_6="13000.00000" pt_clust_7="13000.00000" pt_clust_8="13000.00000" pt_clust_9="39.55327"></scales>
<clustering>
<clus scale="   39.553">  1  9  2 -1</clus>
<clus scale="   89.841">  5  6 -1 -1</clus>
<clus scale="   90.725">  7  8 -1 -1</clus>
<clus scale="  101.112">  1  5  2 -1</clus>
<clus scale="   39.553">  1  5  2 -1</clus>
</clustering>
</event>
<event>
 9    1  0.1321469E-005  0.9778258E+02  0.7546771E-02  0.1285723E+00
         21   -1    0    0  501  502  0.00000000000E+00  0.00000000000E+00  0.72525272869E+02  0.72525272869E+02  0.00000000000E+00 0. -1.
          2   -1    0    0  502    0 -0.00000000000E+00 -0.00000000000E+00 -0.29115950326E+03  0.29115950326E+03  0.00000000000E+00 0. -1.
         23    2    1    2    0    0  0.20316384444E+02 -0.27784605628E+02 -0.16295943141E+03  0.18889493198E+03  0.89111050130E+02 0.  0.
         23    2    1    2    0    0 -0.17610526417E+01  0.46443894295E+02 -0.87016798136E+02  0.13386564223E+03  0.90487294069E+02 0.  0.
        -11    1    4    4    0    0 -0.38042322056E+02  0.81351235381E+01 -0.66918613004E+02  0.77404775491E+02  0.00000000000E+00 0.  1.
         11    1    4    4    0    0  0.36281269415E+02  0.38308770757E+02 -0.20098185132E+02  0.56460866738E+02  0.00000000000E+00 0. -1.
        -11    1    3    3    0    0 -0.84672908489E+01 -0.47784958147E+02 -0.46259408735E+02  0.67044985912E+02  0.00000000000E+00 0. -1.
         11    1    3    3    0    0  0.28783675293E+02  0.20000352519E+02 -0.11670002268E+03  0.12184994607E+03  0.00000000000E+00 0.  1.
          2    1    1    2  501    0 -0.18555331803E+02 -0.18659288668E+02  0.31341999155E+02  0.40924201921E+02  0.00000000000E+00 0. -1.
<scales pt_clust_5="13000.00000" pt_clust_6="13000.00000" pt_clust_7="13000.00000" pt_clust_8="13000.00000" pt_clust_9="26.31481"></scales>
<clustering>
<clus scale="   26.315">  1  9  2 -1</clus>
<clus scale="   89.111">  7  8 -1 -1</clus>
<clus scale="   90.487">  5  6 -1 -1</clus>
<clus scale="   96.510">  2  7  1 -1</clus>
<clus scale="   26.315">  1  5  2 -1</clus>
</clustering>
</event>
<event>
 9    1  0.1321469E-005  0.1085798E+03  0.7546771E-02  0.1266775E+00
         21   -1    0    0  501  502  0.00000000000E+00  0.00000000000E+00  0.10535097157E+03  0.10535097157E+03  0.00000000000E+00 0.  1.
         -1   -1    0    0    0  501 -0.00000000000E+00 -0.00000000000E+00 -0.18369412242E+03  0.18369412242E+03  0.00000000000E+00 0.  1.
         23    2    1    2    0    0 -0.20454590253E+01 -0.54994213016E+02 -0.95563428034E+02  0.14226970734E+03  0.89887448965E+02 0.  0.
         23    2    1    2    0    0 -0.25689658823E+02  0.24189983423E+02  0.15303128958E+02  0.10528065469E+03  0.98003656198E+02 0.  0.
        -11    1    3    3    0    0  0.40151960813E+02 -0.29392489597E+02 -0.23768157013E+02  0.55145477508E+02  0.00000000000E+00 0.  1.
         11    1    3    3    0    0 -0.42197419838E+02 -0.25601723420E+02 -0.71795271021E+02  0.87124229833E+02  0.00000000000E+00 0. -1.
        -11    1    4    4    0    0 -0.16601912915E+01  0.24938232423E+02 -0.38756357060E+02  0.46116449171E+02  0.00000000000E+00 0. -1.
         11    1    4    4    0    0 -0.24029467532E+02 -0.74824900059E+00  0.54059486019E+02  0.59164205522E+02  0.00000000000E+00 0.  1.
         -1    1    1    2    0  502  0.27735117849E+02  0.30804229594E+02  0.19171482284E+01  0.41494731958E+02  0.00000000000E+00 0.  1.
<scales pt_clust_5="13000.00000" pt_clust_6="13000.00000" pt_clust_7="13000.00000" pt_clust_8="13000.00000" pt_clust_9="41.45042"></scales>
<clustering>
<clus scale="   41.450">  1  9  2 -1</clus>
<clus scale="   89.887">  5  6 -1 -1</clus>
<clus scale="   98.004">  7  8 -1 -1</clus>
<clus scale="  101.314">  2  5  1 -1</clus>
<clus scale="   41.450">  1  5  2 -1</clus>
</clustering>
</event>
<event>
 9    1  0.1321469E-005  0.9756547E+02  0.7546771E-02  0.1287337E+00
         21   -1    0    0  501  502  0.00000000000E+00  0.00000000000E+00  0.67800845717E+02  0.67800845717E+02  0.00000000000E+00 0. -1.
          4   -1    0    0  502    0 -0.00000000000E+00 -0.00000000000E+00 -0.49989320194E+03  0.49989320194E+03  0.00000000000E+00 0. -1.
         23    2    1    2    0    0  0.13789030307E+02 -0.32975853108E+02 -0.31860962832E+03  0.33329887045E+03  0.91096089584E+02 0.  0.
         23    2    1    2    0    0  0.97193536364E+01  0.60880498868E+01 -0.15357759892E+03  0.18069976996E+03  0.94524059298E+02 0.  0.
        -11    1    3    3    0    0 -0.45980975653E+01  0.28176485786E+02 -0.53877885898E+02  0.60974449086E+02  0.00000000000E+00 0.  1.
         11    1    3    3    0    0  0.18387127872E+02 -0.61152338894E+02 -0.26473174242E+03  0.27232442136E+03  0.00000000000E+00 0. -1.
        -11    1    4    4    0    0  0.11645318006E+02  0.42620139298E+02 -0.12968785108E+03  0.13700740281E+03  0.00000000000E+00 0.  1.
         11    1    4    4    0    0 -0.19259643699E+01 -0.36532089411E+02 -0.23889747836E+02  0.43692367150E+02  0.00000000000E+00 0. -1.
          4    1    1    2  501    0 -0.23508383943E+02  0.26887803221E+02  0.40094871019E+02  0.53695407250E+02  0.00000000000E+00 0. -1.
<scales pt_clust_5="13000.00000" pt_clust_6="13000.00000" pt_clust_7="13000.00000" pt_clust_8="13000.00000" pt_clust_9="35.71552"></scales>
<clustering>
<clus scale="   35.716">  1  9  2 -1</clus>
<clus scale="   91.096">  5  6 -1 -1</clus>
<clus scale="   94.248">  2  5  1 -1</clus>
<clus scale="   94.524">  7  8 -1 -1</clus>
<clus scale="   35.716">  1  5  2 -1</clus>
</clustering>
</event>
<event>
 9    1  0.1321469E-005  0.1467740E+03  0.7546771E-02  0.1204673E+00
         21   -1    0    0  501  502  0.00000000000E+00  0.00000000000E+00  0.23845374852E+03  0.23845374852E+03  0.00000000000E+00 0.  1.
          3   -1    0    0  502    0 -0.00000000000E+00 -0.00000000000E+00 -0.13433428829E+03  0.13433428829E+03  0.00000000000E+00 0. -1.
         23    2    1    2    0    0 -0.16213451032E+02  0.10993973994E+03 -0.20847321765E+01  0.14355795758E+03  0.90856582945E+02 0.  0.
         23    2    1    2    0    0  0.43326777856E+02 -0.11630664661E+03  0.12241671779E+03  0.19700406534E+03  0.91762210311E+02 0.  0.
        -13    1    3    3    0    0 -0.31047340810E+02  0.64503913337E+01  0.18914304539E+02  0.36922836239E+02  0.00000000000E+00 0.  1.
         13    1    3    3    0    0  0.14833889778E+02  0.10348934860E+03 -0.20999036716E+02  0.10663512134E+03  0.00000000000E+00 0. -1.
        -13    1    4    4    0    0  0.70746622088E+02 -0.84046666309E+02  0.10236073535E+03  0.15015540881E+03  0.00000000000E+00 0.  1.
         13    1    4    4    0    0 -0.27419844232E+02 -0.32259980299E+02  0.20055982435E+02  0.46848656523E+02  0.00000000000E+00 0. -1.
          3    1    1    2  501    0 -0.27113326824E+02  0.63669066695E+01 -0.16212525380E+02  0.32226013889E+02  0.00000000000E+00 0. -1.
<scales pt_clust_5="13000.00000" pt_clust_6="13000.00000" pt_clust_7="13000.00000" pt_clust_8="13000.00000" pt_clust_9="27.85087"></scales>
<clustering>
<clus scale="   27.851">  1  9  2 -1</clus>
<clus scale="   90.857">  5  6 -1 -1</clus>
<clus scale="   91.762">  7  8 -1 -1</clus>
<clus scale="  146.210">  2  5  1 -1</clus>
<clus scale="   27.851">  1  5  2 -1</clus>
</clustering>
</event>
<event>
 9    1  0.1321469E-005  0.9833009E+02  0.7546771E-02  0.1285904E+00
          2   -1    0    0  502    0 -0.00000000000E+00  0.00000000000E+00  0.23997985309E+03  0.23997985309E+03  0.00000000000E+00 0. -1.
         21   -1    0    0  501  502  0.00000000000E+00 -0.00000000000E+00 -0.65361737770E+02  0.65361737770E+02  0.00000000000E+00 0.  1.
         23    2    1    2    0    0 -0.20623463329E+02  0.10029287913E+02  0.15175539215E+03  0.17894852069E+03  0.92016086391E+02 0.  0.
         23    2    1    2    0    0  0.24214150397E+02  0.14113552039E+02  0.19357916992E+02  0.10173433093E+03  0.95862545914E+02 0.  0.
        -11    1    4    4    0    0  0.57486112106E+02  0.68877333393E+01 -0.74834269539E+01  0.58378897169E+02  0.00000000000E+00 0.  1.
         11    1    4    4    0    0 -0.33271961710E+02  0.72258187001E+01  0.26841343946E+02  0.43355433762E+02  0.00000000000E+00 0. -1.
        -13    1    3    3    0    0  0.16313851643E+02  0.26594300236E+02  0.12856170446E+03  0.13229327426E+03  0.00000000000E+00 0. -1.
         13    1    3    3    0    0 -0.36937314972E+02 -0.16565012323E+02  0.23193687684E+02  0.46655246425E+02  0.00000000000E+00 0.  1.
          2    1    1    2  501    0 -0.35906870675E+01 -0.24142839953E+02  0.35048061817E+01  0.24658739241E+02  0.00000000000E+00 0. -1.
<scales pt_clust_5="13000.00000" pt_clust_6="13000.00000" pt_clust_7="13000.00000" pt_clust_8="13000.00000" pt_clust_9="24.40840"></scales>
<clustering>
<clus scale="   24.408">  2  9  1 -1</clus>
<clus scale="   92.016">  7  8 -1 -1</clus>
<clus scale="   94.584">  1  7  2 -1</clus>
<clus scale="   95.863">  5  6 -1 -1</clus>
<clus scale="   24.408">  2  5  1 -1</clus>
</clustering>
</event>
<event>
 9    1  0.1321469E-005  0.1303898E+03  0.7546771E-02  0.1227878E+00
         21   -1    0    0  501  502  0.00000000000E+00  0.00000000000E+00  0.89939364782E+02  0.89939364782E+02  0.00000000000E+00 0.  1.
         -1   -1    0    0    0  501 -0.00000000000E+00 -0.00000000000E+00 -0.40593321481E+03  0.40593321481E+03  0.00000000000E+00 0.  1.
         23    2    1    2    0    0  0.26078956982E+02  0.75817873286E+02 -0.22161498967E+03  0.25367659005E+03  0.93862382183E+02 0.  0.
         23    2    1    2    0    0 -0.47134124003E+02 -0.10077967103E+03 -0.13034433038E+03  0.19361691546E+03  0.90109365516E+02 0.  0.
        -13    1    4    4    0    0 -0.25070678723E+01 -0.94320276759E+02 -0.66413031931E+02  0.11538323452E+03  0.00000000000E+00 0.  1.
         13    1    4    4    0    0 -0.44627056131E+02 -0.64593942687E+01 -0.63931298449E+02  0.78233680948E+02  0.00000000000E+00 0. -1.
        -13    1    3    3    0    0 -0.31774688678E+02  0.36244417351E+02 -0.56293976862E+02  0.74110056407E+02  0.00000000000E+00 0.  1.
         13    1    3    3    0    0  0.57853645660E+02  0.39573455935E+02 -0.16532101281E+03  0.17956653365E+03  0.00000000000E+00 0. -1.
         -1    1    1    2    0  502  0.21055167022E+02  0.24961797742E+02  0.35965470016E+02  0.48579074078E+02  0.00000000000E+00 0.  1.
<scales pt_clust_5="13000.00000" pt_clust_6="13000.00000" pt_clust_7="13000.00000" pt_clust_8="13000.00000" pt_clust_9="32.65596"></scales>
<clustering>
<clus scale="   32.656">  1  9  2 -1</clus>
<clus scale="   90.109">  5  6 -1 -1</clus>
<clus scale="   93.862">  7  8 -1 -1</clus>
<clus scale="  127.715">  1  5  2 -1</clus>
<clus scale="   32.656">  1  5  2 -1</clus>
</clustering>
</event>
<event>
 9    1  0.1321469E-005  0.2053267E+03  0.7546771E-02  0.1145487E+00
         21   -1    0    0  501  502  0.00000000000E+00  0.00000000000E+00  0.18091894505E+03  0.18091894505E+03  0.00000000000E+00 0. -1.
         -1   -1    0    0    0  501 -0.00000000000E+00 -0.00000000000E+00 -0.40035734290E+03  0.40035734290E+03  0.00000000000E+00 0.  1.
         23    2    1    2    0    0  0.14526868130E+03 -0.47212630821E+02 -0.15839190682E+02  0.17879852242E+03  0.91575157017E+02 0.  0.
         23    2    1    2    0    0 -0.19929137562E+03  0.91235928647E+02 -0.62254587225E+02  0.24488714448E+03  0.89738691929E+02 0.  0.
        -13    1    4    4    0    0 -0.32347956522E+02  0.41058667019E+01 -0.45296274263E+02  0.55812193064E+02  0.00000000000E+00 0.  1.
         13    1    4    4    0    0 -0.16694341910E+03  0.87130061946E+02 -0.16958312962E+02  0.18907495142E+03  0.00000000000E+00 0. -1.
        -13    1    3    3    0    0  0.79201667151E+02 -0.10414686060E+02 -0.51647648197E+02  0.95125439970E+02  0.00000000000E+00 0. -1.
         13    1    3    3    0    0  0.66067014151E+02 -0.36797944761E+02  0.35808457515E+02  0.83673082452E+02  0.00000000000E+00 0.  1.
         -1    1    1    2    0  502  0.54022694322E+02 -0.44023297826E+02 -0.14134461995E+03  0.15759062105E+03  0.00000000000E+00 0.  1.
<scales pt_clust_5="13000.00000" pt_clust_6="13000.00000" pt_clust_7="13000.00000" pt_clust_8="13000.00000" pt_clust_9="69.68864"></scales>
<clustering>
<clus scale="   69.689">  1  9  2 -1</clus>
<clus scale="   89.739">  5  6 -1 -1</clus>
<clus scale="   91.575">  7  8 -1 -1</clus>
<clus scale="  204.514">  1  5  2 -1</clus>
<clus scale="   69.689">  1  5  2 -1</clus>
</clustering>
</event>
<event>
 9    1  0.1321469E-005  0.1026691E+03  0.7546771E-02  0.1278844E+00
         -1   -1    0    0    0  501 -0.00000000000E+00  0.00000000000E+00  0.35895708178E+03  0.35895708178E+03  0.00000000000E+00 0.  1.
         21   -1    0    0  501  502  0.00000000000E+00 -0.00000000000E+00 -0.88120763385E+02  0.88120763385E+02  0.00000000000E+00 0.  1.
         23    2    1    2    0    0 -0.43223265882E+02  0.19354596722E+02  0.27744365194E+03  0.29552314812E+03  0.90089399762E+02 0.  0.
         23    2    1    2    0    0  0.66230306011E+02  0.10310383513E+02  0.17754049407E+02  0.10680191024E+03  0.81232286176E+02 0.  0.
        -13    1    4    4    0    0 -0.62859400453E+00 -0.27913283796E+02  0.73621631612E+00  0.27930065470E+02  0.00000000000E+00 0. -1.
         13    1    4    4    0    0  0.66858900016E+02  0.38223667309E+02  0.17017833091E+02  0.78871844767E+02  0.00000000000E+00 0.  1.
        -13    1    3    3    0    0  0.73324928874E+00 -0.27420285890E+02  0.33610116620E+02  0.43382596418E+02  0.00000000000E+00 0. -1.
         13    1    3    3    0    0 -0.43956515171E+02  0.46774882612E+02  0.24383353532E+03  0.25214055171E+03  0.00000000000E+00 0.  1.
         -1    1    1    2    0  502 -0.23007040129E+02 -0.29664980235E+02 -0.24361382947E+02  0.44752786806E+02  0.00000000000E+00 0.  1.
<scales pt_clust_5="13000.00000" pt_clust_6="13000.00000" pt_clust_7="13000.00000" pt_clust_8="13000.00000" pt_clust_9="37.54111"></scales>
<clustering>
<clus scale="   37.541">  2  9  1 -1</clus>
<clus scale="   81.232">  5  6 -1 -1</clus>
<clus scale="   90.089">  7  8 -1 -1</clus>
<clus scale="   94.992">  2  5  1 -1</clus>
<clus scale="   37.541">  2  5  1 -1</clus>
</clustering>
</event>
<event>
 9    1  0.1321469E-005  0.1158992E+03  0.7546771E-02  0.1250803E+00
         -1   -1    0    0    0  501 -0.00000000000E+00  0.00000000000E+00  0.30016421775E+03  0.30016421775E+03  0.00000000000E+00 0.  1.
         21   -1    0    0  501  502  0.00000000000E+00 -0.00000000000E+00 -0.10712832560E+03  0.10712832560E+03  0.00000000000E+00 0.  1.
         23    2    1    2    0    0 -0.32554723274E+01  0.83990968039E+02  0.21376825604E+03  0.24747804548E+03  0.92105563836E+02 0.  0.
         23    2    1    2    0    0 -0.18568129590E+02 -0.24588140793E+02 -0.16468286513E+02  0.96386208902E+02  0.89831757757E+02 0.  0.
        -11    1    3    3    0    0  0.44688361649E+01  0.22152962205E+02 -0.21927708058E+01  0.22705340229E+02  0.00000000000E+00 0. -1.
         11    1    3    3    0    0 -0.77243084922E+01  0.61838005834E+02  0.21596102685E+03  0.22477270525E+03  0.00000000000E+00 0.  1.
        -11    1    4    4    0    0 -0.23471212688E+01  0.23823823256E+02 -0.34712904078E+02  0.42167158338E+02  0.00000000000E+00 0.  1.
         11    1    4    4    0    0 -0.16221008321E+02 -0.48411964049E+02  0.18244617565E+02  0.54219050564E+02  0.00000000000E+00 0. -1.
         -1    1    1    2    0  502  0.21823601917E+02 -0.59402827246E+02 -0.42640773791E+01  0.63428288967E+02  0.00000000000E+00 0.  1.
<scales pt_clust_5="13000.00000" pt_clust_6="13000.00000" pt_clust_7="13000.00000" pt_clust_8="13000.00000" pt_clust_9="63.28480"></scales>
<clustering>
<clus scale="   63.285">  2  9  1 -1</clus>
<clus scale="   89.832">  7  8 -1 -1</clus>
<clus scale="   92.106">  5  6 -1 -1</clus>
<clus scale="  114.101">  2  7  1 -1</clus>
<clus scale="   63.285">  2  5  1 -1</clus>
</clustering>
</event>
<event>
 9    1  0.1321469E-005  0.9909227E+02  0.7546771E-02  0.1284069E+00
         21   -1    0    0  501  502  0.00000000000E+00  0.00000000000E+00  0.90703844135E+02  0.90703844135E+02  0.00000000000E+00 0.  1.
          2   -1    0    0  502    0 -0.00000000000E+00 -0.00000000000E+00 -0.19236879083E+03  0.19236879083E+03  0.00000000000E+00 0. -1.
         23    2    1    2    0    0 -0.14301875426E+02  0.23874844542E+02 -0.10445884006E+03  0.14303016746E+03  0.93655900473E+02 0.  0.
         23    2    1    2    0    0  0.28401709151E+02 -0.39254589491E+02  0.29253239248E+02  0.10634619397E+03  0.90034332824E+02 0.  0.
        -11    1    3    3    0    0 -0.26483532651E+02 -0.29543840178E+02 -0.26381437294E+02  0.47646576244E+02  0.00000000000E+00 0.  1.
         11    1    3    3    0    0  0.12181657225E+02  0.53418684719E+02 -0.78077402765E+02  0.95383591212E+02  0.00000000000E+00 0. -1.
        -11    1    4    4    0    0  0.41185946429E+01 -0.54509906035E+02  0.47446899962E+02  0.72384397447E+02  0.00000000000E+00 0.  1.
         11    1    4    4    0    0  0.24283114508E+02  0.15255316544E+02 -0.18193660714E+02  0.33961796525E+02  0.00000000000E+00 0. -1.
          2    1    1    2  501    0 -0.14099833725E+02  0.15379744949E+02 -0.26459345887E+02  0.33696273541E+02  0.00000000000E+00 0. -1.
<scales pt_clust_5="13000.00000" pt_clust_6="13000.00000" pt_clust_7="13000.00000" pt_clust_8="13000.00000" pt_clust_9="20.86486"></scales>
<clustering>
<clus scale="   20.865">  1  9  2 -1</clus>
<clus scale="   90.034">  7  8 -1 -1</clus>
<clus scale="   93.656">  5  6 -1 -1</clus>
<clus scale="   95.677">  1  7  2 -1</clus>
<clus scale="   20.865">  1  5  2 -1</clus>
</clustering>
</event>
<event>
 9    1  0.1321469E-005  0.1732087E+03  0.7546771E-02  0.1174698E+00
          2   -1    0    0  502    0 -0.00000000000E+00  0.00000000000E+00  0.86316717718E+03  0.86316717718E+03  0.00000000000E+00 0. -1.
         21   -1    0    0  501  502  0.00000000000E+00 -0.00000000000E+00 -0.19975748030E+03  0.19975748030E+03  0.00000000000E+00 0. -1.
         23    2    1    2    0    0 -0.14747381794E+03  0.33826611504E+02  0.74706101666E+03  0.76764636149E+03  0.91038492226E+02 0.  0.
         23    2    1    2    0    0  0.12535570012E+03  0.25224113501E+02  0.34485669468E+02  0.16136583395E+03  0.92191992667E+02 0.  0.
        -11    1    4    4    0    0  0.12751243948E+03  0.32592996753E+01  0.47067460613E+02  0.13596099111E+03  0.00000000000E+00 0.  1.
         11    1    4    4    0    0 -0.21567393553E+01  0.21964813826E+02 -0.12581791145E+02  0.25404842835E+02  0.00000000000E+00 0. -1.
        -11    1    3    3    0    0 -0.90334218586E+02 -0.21990650215E+02  0.32238292486E+03  0.33552140019E+03  0.00000000000E+00 0.  1.
         11    1    3    3    0    0 -0.57139599351E+02  0.55817261719E+02  0.42467809180E+03  0.43212496130E+03  0.00000000000E+00 0. -1.
          2    1    1    2  501    0  0.22118117816E+02 -0.59050725005E+02 -0.11813698926E+03  0.13391246204E+03  0.00000000000E+00 0. -1.
<scales pt_clust_5="13000.00000" pt_clust_6="13000.00000" pt_clust_7="13000.00000" pt_clust_8="13000.00000" pt_clust_9="63.05711"></scales>
<clustering>
<clus scale="   63.057">  2  9  1 -1</clus>
<clus scale="   91.038">  7  8 -1 -1</clus>
<clus scale="   92.192">  5  6 -1 -1</clus>
<clus scale="  172.598">  1  7  2 -1</clus>
<clus scale="   63.057">  2  5  1 -1</clus>
</clustering>
</event>
<event>
 9    1  0.1321469E-005  0.1353179E+03  0.7546771E-02  0.1232762E+00
          2   -1    0    0  502    0 -0.00000000000E+00  0.00000000000E+00  0.50120293551E+03  0.50120293551E+03  0.00000000000E+00 0. -1.
         21   -1    0    0  501  502  0.00000000000E+00 -0.00000000000E+00 -0.62303023013E+02  0.62303023013E+02  0.00000000000E+00 0. -1.
         23    2    1    2    0    0 -0.48964003132E+02 -0.20267585182E+02  0.17140613031E+03  0.20013081036E+03  0.88679372669E+02 0.  0.
         23    2    1    2    0    0 -0.36952691716E+02 -0.70530412036E+02  0.12565152347E+03  0.17431118779E+03  0.90862777810E+02 0.  0.
        -13    1    3    3    0    0 -0.19402683244E+02  0.16514880562E+02  0.14256916906E+03  0.14482808209E+03  0.00000000000E+00 0. -1.
         13    1    3    3    0    0 -0.29561319889E+02 -0.36782465744E+02  0.28836961251E+02  0.55302728268E+02  0.00000000000E+00 0.  1.
        -13    1    4    4    0    0 -0.55688504938E+02 -0.59230084543E+02  0.12869272059E+03  0.15222098683E+03  0.00000000000E+00 0. -1.
         13    1    4    4    0    0  0.18735813221E+02 -0.11300327494E+02 -0.30411971253E+01  0.22090200961E+02  0.00000000000E+00 0.  1.
          2    1    1    2  501    0  0.85916694849E+02  0.90797997218E+02  0.14184225872E+03  0.18906396037E+03  0.00000000000E+00 0. -1.
<scales pt_clust_5="13000.00000" pt_clust_6="13000.00000" pt_clust_7="13000.00000" pt_clust_8="13000.00000" pt_clust_9="100.27413"></scales>
<clustering>
<clus scale="   88.679">  5  6 -1 -1</clus>
<clus scale="   90.863">  7  8 -1 -1</clus>
<clus scale="  103.307">  1  5  2 -1</clus>
<clus scale="  100.274">  2  9  1 -1</clus>
<clus scale="  100.274">  2  5  1 -1</clus>
</clustering>
</event>
<event>
 9    1  0.1321469E-005  0.9985694E+02  0.7546771E-02  0.1280722E+00
         -1   -1    0    0    0  501 -0.00000000000E+00  0.00000000000E+00  0.37121987659E+03  0.37121987659E+03  0.00000000000E+00 0.  1.
         21   -1    0    0  501  502  0.00000000000E+00 -0.00000000000E+00 -0.91207081903E+02  0.91207081903E+02  0.00000000000E+00 0.  1.
         23    2    1    2    0    0 -0.84980531866E+00 -0.49609572451E+02  0.23260180057E+03  0.25469730486E+03  0.91133350788E+02 0.  0.
         23    2    1    2    0    0  0.20375725534E+02  0.22052632842E+02  0.10410024722E+03  0.14174239806E+03  0.91392325330E+02 0.  0.
        -11    1    4    4    0    0 -0.15471361001E+02  0.40889881980E+02  0.19340472503E+02  0.47805850439E+02  0.00000000000E+00 0. -1.
         11    1    4    4    0    0  0.35847086535E+02 -0.18837249138E+02  0.84759774720E+02  0.93936547619E+02  0.00000000000E+00 0.  1.
        -13    1    3    3    0    0 -0.29490880115E+02 -0.64894627290E+02  0.16205458926E+03  0.17703873746E+03  0.00000000000E+00 0.  1.
         13    1    3    3    0    0  0.28641074796E+02  0.15285054838E+02  0.70547211308E+02  0.77658567398E+02  0.00000000000E+00 0. -1.
         -1    1    1    2    0  502 -0.19525920215E+02  0.27556939609E+02 -0.56689253105E+02  0.65987255577E+02  0.00000000000E+00 0.  1.
<scales pt_clust_5="13000.00000" pt_clust_6="13000.00000" pt_clust_7="13000.00000" pt_clust_8="13000.00000" pt_clust_9="33.77346"></scales>
<clustering>
<clus scale="   33.773">  2  9  1 -1</clus>
<clus scale="   91.133">  7  8 -1 -1</clus>
<clus scale="   91.392">  5  6 -1 -1</clus>
<clus scale="   99.620">  1  7  2 -1</clus>
<clus scale="   33.773">  2  5  1 -1</clus>
</clustering>
</event>
<event>
 9    1  0.1321469E-005  0.1029902E+03  0.7546771E-02  0.1274426E+00
         21   -1    0    0  501  502  0.00000000000E+00  0.00000000000E+00  0.30646895788E+03  0.30646895788E+03  0.00000000000E+00 0.  1.
          2   -1    0    0  502    0 -0.00000000000E+00 -0.00000000000E+00 -0.99386216182E+02  0.99386216182E+02  0.00000000000E+00 0. -1.
         23    2    1    2    0    0 -0.82233967311E+01  0.48320789224E+02 -0.94350886766E+01  0.10397091079E+03  0.91205298464E+02 0.  0.
         23    2    1    2    0    0 -0.39411150476E+02 -0.45378348972E+02  0.22819354843E+03  0.25275147957E+03  0.90546018906E+02 0.  0.
        -13    1    4    4    0    0 -0.55552216973E+02 -0.60812462192E+02  0.14656926771E+03  0.16812719770E+03  0.00000000000E+00 0.  1.
         13    1    4    4    0    0  0.16141066497E+02  0.15434113220E+02  0.81624280722E+02  0.84624281870E+02  0.00000000000E+00 0. -1.
        -13    1    3    3    0    0  0.19034402692E+02 -0.95578164659E+01  0.23748793821E+02  0.31900870668E+02  0.00000000000E+00 0.  1.
         13    1    3    3    0    0 -0.27257799423E+02  0.57878605690E+02 -0.33183882498E+02  0.72070040125E+02  0.00000000000E+00 0. -1.
          2    1    1    2  501    0  0.47634547207E+02 -0.29424402520E+01 -0.11675718058E+02  0.49132783703E+02  0.00000000000E+00 0. -1.
<scales pt_clust_5="13000.00000" pt_clust_6="13000.00000" pt_clust_7="13000.00000" pt_clust_8="13000.00000" pt_clust_9="47.72536"></scales>
<clustering>
<clus scale="   47.725">  1  9  2 -1</clus>
<clus scale="   90.546">  5  6 -1 -1</clus>
<clus scale="   91.205">  7  8 -1 -1</clus>
<clus scale="  102.407">  1  5  2 -1</clus>
<clus scale="   47.725">  1  5  2 -1</clus>
</clustering>
</event>
<event>
 9    1  0.1321469E-005  0.1035828E+03  0.7546771E-02  0.1276552E+00
         21   -1    0    0  501  502  0.00000000000E+00  0.00000000000E+00  0.23480638545E+03  0.23480638545E+03  0.00000000000E+00 0.  1.
         -1   -1    0    0    0  501 -0.00000000000E+00 -0.00000000000E+00 -0.10928924799E+03  0.10928924799E+03  0.00000000000E+00 0.  1.
         23    2    1    2    0    0  0.40899811139E+00  0.13977450060E+01  0.24832931939E+02  0.94975091090E+02  0.91659546411E+02 0.  0.
         23    2    1    2    0    0  0.65172734555E+02 -0.62842060243E+02  0.82402511451E+02  0.15741128506E+03  0.98952154629E+02 0.  0.
        -11    1    3    3    0    0  0.39337592971E+02 -0.20889170391E+02  0.22886684751E+02  0.50075982259E+02  0.00000000000E+00 0.  1.
         11    1    3    3    0    0 -0.38928594859E+02  0.22286915397E+02  0.19462471878E+01  0.44899108830E+02  0.00000000000E+00 0. -1.
        -13    1    4    4    0    0  0.60302335949E+02 -0.88994402492E+02  0.65041752243E+02  0.12564555277E+03  0.00000000000E+00 0.  1.
         13    1    4    4    0    0  0.48703986061E+01  0.26152342249E+02  0.17360759208E+02  0.31765732291E+02  0.00000000000E+00 0. -1.
         -1    1    1    2    0  502 -0.65581732666E+02  0.61444315237E+02  0.18281694070E+02  0.91709257289E+02  0.00000000000E+00 0.  1.
<scales pt_clust_5="13000.00000" pt_clust_6="13000.00000" pt_clust_7="13000.00000" pt_clust_8="13000.00000" pt_clust_9="89.86866"></scales>
<clustering>
<clus scale="   89.869">  1  9  2 -1</clus>
<clus scale="   91.660">  5  6 -1 -1</clus>
<clus scale="   96.640">  2  5  1 -1</clus>
<clus scale="   98.952">  7  8 -1 -1</clus>
<clus scale="   89.869">  1  5  2 -1</clus>
</clustering>
</event>
<event>
 9    1  0.1321469E-005  0.8910565E+02  0.7546771E-02  0.1311480E+00
         21   -1    0    0  501  502  0.00000000000E+00  0.00000000000E+00  0.57611781041E+02  0.57611781041E+02  0.00000000000E+00 0. -1.
          2   -1    0    0  502    0 -0.00000000000E+00 -0.00000000000E+00 -0.28375852621E+03  0.28375852621E+03  0.00000000000E+00 0. -1.
         23    2    1    2    0    0  0.12523652557E+02  0.23695955800E+02 -0.14025496977E+03  0.16824079147E+03  0.88967225298E+02 0.  0.
         23    2    1    2    0    0  0.22663379634E+02  0.21796874578E+02 -0.77314221825E+02  0.11498057533E+03  0.79084203786E+02 0.  0.
        -11    1    4    4    0    0  0.29599513756E+02  0.48856493614E+02 -0.50090901264E+02  0.75974907518E+02  0.00000000000E+00 0. -1.
         11    1    4    4    0    0 -0.69361341221E+01 -0.27059619036E+02 -0.27223320560E+02  0.39005667810E+02  0.00000000000E+00 0.  1.
        -13    1    3    3    0    0  0.36394121234E+02  0.54319256553E+00 -0.12755062503E+03  0.13264233511E+03  0.00000000000E+00 0. -1.
         13    1    3    3    0    0 -0.23870468677E+02  0.23152763235E+02 -0.12704344739E+02  0.35598456364E+02  0.00000000000E+00 0.  1.
          2    1    1    2  501    0 -0.35187032191E+02 -0.45492830378E+02 -0.85775535801E+01  0.58148940451E+02  0.00000000000E+00 0. -1.
<scales pt_clust_5="13000.00000" pt_clust_6="13000.00000" pt_clust_7="13000.00000" pt_clust_8="13000.00000" pt_clust_9="57.51282"></scales>
<clustering>
<clus scale="   57.513">  1  9  2 -1</clus>
<clus scale="   79.084">  5  6 -1 -1</clus>
<clus scale="   79.240">  1  5  2 -1</clus>
<clus scale="   88.967">  7  8 -1 -1</clus>
<clus scale="   57.513">  1  5  2 -1</clus>
</clustering>
</event>
<event>
 9    1  0.1321469E-005  0.9081346E+02  0.7546771E-02  0.1301412E+00
         -3   -1    0    0    0  501 -0.00000000000E+00  0.00000000000E+00  0.25350112045E+03  0.25350112045E+03  0.00000000000E+00 0.  1.
         21   -1    0    0  501  502  0.00000000000E+00 -0.00000000000E+00 -0.14991976654E+03  0.14991976654E+03  0.00000000000E+00 0.  1.
         23    2    1    2    0    0  0.31571350448E+01 -0.16040706093E+02  0.17428557015E+03  0.19674099139E+03  0.89801369587E+02 0.  0.
         23    2    1    2    0    0  0.25950441756E+02 -0.55683838110E+02 -0.13324817668E+02  0.11032608587E+03  0.90665203926E+02 0.  0.
        -13    1    4    4    0    0 -0.75357944929E+01 -0.71714140724E+02 -0.12547355856E+02  0.73192501784E+02  0.00000000000E+00 0.  1.
         13    1    4    4    0    0  0.33486236249E+02  0.16030302614E+02 -0.77746181167E+00  0.37133584083E+02  0.00000000000E+00 0. -1.
        -13    1    3    3    0    0 -0.41296103089E+02 -0.20277515020E+02  0.77009251772E+02  0.89704908473E+02  0.00000000000E+00 0. -1.
         13    1    3    3    0    0  0.44453238134E+02  0.42368089273E+01  0.97276318376E+02  0.10703608292E+03  0.00000000000E+00 0.  1.
         -3    1    1    2    0  502 -0.29107576801E+02  0.71724544203E+02 -0.57379398574E+02  0.96353809728E+02  0.00000000000E+00 0.  1.
<scales pt_clust_5="13000.00000" pt_clust_6="13000.00000" pt_clust_7="13000.00000" pt_clust_8="13000.00000" pt_clust_9="77.40582"></scales>
<clustering>
<clus scale="   77.406">  2  9  1 -1</clus>
<clus scale="   89.801">  7  8 -1 -1</clus>
<clus scale="   89.951">  1  7  2 -1</clus>
<clus scale="   90.665">  5  6 -1 -1</clus>
<clus scale="   77.406">  2  5  1 -1</clus>
</clustering>
</event>
<event>
 9    1  0.1321469E-005  0.1119785E+03  0.7546771E-02  0.1265309E+00
         21   -1    0    0  501  502  0.00000000000E+00  0.00000000000E+00  0.54070113988E+02  0.54070113988E+02  0.00000000000E+00 0. -1.
         -1   -1    0    0    0  501 -0.00000000000E+00 -0.00000000000E+00 -0.33549623402E+03  0.33549623402E+03  0.00000000000E+00 0.  1.
         23    2    1    2    0    0 -0.28626376874E+02  0.41068783589E+01 -0.19077971278E+03  0.22084859104E+03  0.10742842015E+03 0.  0.
         23    2    1    2    0    0  0.38742084087E+02  0.16152725041E+02 -0.29140811028E+02  0.10317603415E+03  0.89633964264E+02 0.  0.
        -13    1    4    4    0    0 -0.13716840941E+02 -0.19187995626E+02  0.13229594514E+02  0.27043540310E+02  0.00000000000E+00 0. -1.
         13    1    4    4    0    0  0.52458925028E+02  0.35340720666E+02 -0.42370405542E+02  0.76132493839E+02  0.00000000000E+00 0.  1.
        -13    1    3    3    0    0 -0.33095805493E+02  0.28340280672E+02 -0.19130162267E+03  0.19620095485E+03  0.00000000000E+00 0.  1.
         13    1    3    3    0    0  0.44694286185E+01 -0.24233402313E+02  0.52190989266E+00  0.24647636190E+02  0.00000000000E+00 0. -1.
         -1    1    1    2    0  502 -0.10115707213E+02 -0.20259603399E+02 -0.61505596223E+02  0.65541722811E+02  0.00000000000E+00 0.  1.
<scales pt_clust_5="13000.00000" pt_clust_6="13000.00000" pt_clust_7="13000.00000" pt_clust_8="13000.00000" pt_clust_9="22.64464"></scales>
<clustering>
<clus scale="   22.645">  1  9  2 -1</clus>
<clus scale="   89.634">  5  6 -1 -1</clus>
<clus scale="   95.040">  1  5  2 -1</clus>
<clus scale="  107.428">  7  8 -1 -1</clus>
<clus scale="   22.645">  1  5  2 -1</clus>
</clustering>
</event>
<event>
 9    1  0.1321469E-005  0.9289003E+02  0.7546771E-02  0.1297144E+00
          2   -1    0    0  502    0 -0.00000000000E+00  0.00000000000E+00  0.15174585701E+03  0.15174585701E+03  0.00000000000E+00 0. -1.
         21   -1    0    0  501  502  0.00000000000E+00 -0.00000000000E+00 -0.83344335449E+02  0.83344335449E+02  0.00000000000E+00 0.  1.
         23    2    1    2    0    0  0.21812056683E+02  0.19350285186E+02  0.50144367221E+02  0.10589700876E+03  0.88597514341E+02 0.  0.
         23    2    1    2    0    0 -0.13651781961E+02  0.12397240666E+00  0.39017486148E+02  0.99581899208E+02  0.90596930990E+02 0.  0.
        -11    1    3    3    0    0 -0.27686597890E+02  0.76157221089E+00  0.44910811374E+02  0.52764653635E+02  0.00000000000E+00 0.  1.
         11    1    3    3    0    0  0.49498654573E+02  0.18588712975E+02  0.52335558475E+01  0.53132355128E+02  0.00000000000E+00 0. -1.
        -11    1    4    4    0    0 -0.45006667494E+02  0.22651432749E+01 -0.51685137731E+01  0.45359062244E+02  0.00000000000E+00 0.  1.
         11    1    4    4    0    0  0.31354885533E+02 -0.21411708683E+01  0.44185999921E+02  0.54222836965E+02  0.00000000000E+00 0. -1.
          2    1    1    2  501    0 -0.81602747217E+01 -0.19474257592E+02 -0.20760331808E+02  0.29611284489E+02  0.00000000000E+00 0. -1.
<scales pt_clust_5="13000.00000" pt_clust_6="13000.00000" pt_clust_7="13000.00000" pt_clust_8="13000.00000" pt_clust_9="21.11485"></scales>
<clustering>
<clus scale="   21.115">  2  9  1 -1</clus>
<clus scale="   88.598">  5  6 -1 -1</clus>
<clus scale="   90.597">  7  8 -1 -1</clus>
<clus scale="   90.941">  1  5  2 -1</clus>
<clus scale="   21.115">  2  5  1 -1</clus>
</clustering>
</event>
<event>
 9    1  0.1321469E-005  0.1617890E+03  0.7546771E-02  0.1189195E+00
         21   -1    0    0  501  502  0.00000000000E+00  0.00000000000E+00  0.44873785342E+03  0.44873785342E+03  0.00000000000E+00 0.  1.
          2   -1    0    0  502    0 -0.00000000000E+00 -0.00000000000E+00 -0.79790295200E+02  0.79790295200E+02  0.00000000000E+00 0. -1.
         23    2    1    2    0    0 -0.88841798805E+02  0.73011013358E+02  0.94710668428E+02  0.18214843312E+03  0.10480681126E+03 0.  0.
         23    2    1    2    0    0  0.96703559181E+02 -0.93800594198E+02  0.15307644064E+03  0.22319745871E+03  0.90744581479E+02 0.  0.
        -11    1    4    4    0    0  0.76372832601E+02 -0.65903529492E+02  0.15887451318E+03  0.18819456872E+03  0.00000000000E+00 0.  1.
         11    1    4    4    0    0  0.20330726579E+02 -0.27897064706E+02 -0.57980725418E+01  0.35002889990E+02  0.00000000000E+00 0. -1.
        -13    1    3    3    0    0 -0.22099550900E+02  0.25391612365E+02 -0.21488525483E+02  0.39935959434E+02  0.00000000000E+00 0. -1.
         13    1    3    3    0    0 -0.66742247905E+02  0.47619400992E+02  0.11619919391E+03  0.14221247369E+03  0.00000000000E+00 0.  1.
          2    1    1    2  501    0 -0.78617603755E+01  0.20789580840E+02  0.12116044915E+03  0.12318225678E+03  0.00000000000E+00 0. -1.
<scales pt_clust_5="13000.00000" pt_clust_6="13000.00000" pt_clust_7="13000.00000" pt_clust_8="13000.00000" pt_clust_9="22.22642"></scales>
<clustering>
<clus scale="   22.226">  1  9  2 -1</clus>
<clus scale="   90.745">  5  6 -1 -1</clus>
<clus scale="  104.807">  7  8 -1 -1</clus>
<clus scale="  153.055">  1  5  2 -1</clus>
<clus scale="   22.226">  1  5  2 -1</clus>
</clustering>
</event>
<event>
 9    1  0.1321469E-005  0.1149496E+03  0.7546771E-02  0.1252112E+00
         21   -1    0    0  501  502  0.00000000000E+00  0.00000000000E+00  0.31015109182E+03  0.31015109182E+03  0.00000000000E+00 0. -1.
          1   -1    0    0  502    0 -0.00000000000E+00 -0.00000000000E+00 -0.22253899534E+03  0.22253899534E+03  0.00000000000E+00 0. -1.
         23    2    1    2    0    0 -0.42772960606E+01 -0.64628967859E+02 -0.12283163743E+03  0.16601192140E+03  0.90978833513E+02 0.  0.
         23    2    1    2    0    0  0.65323866254E+02  0.74586832486E+02 -0.13469597524E+02  0.13437874090E+03  0.89698455204E+02 0.  0.
        -11    1    3    3    0    0 -0.14300814810E+02 -0.17390988370E+02  0.10028516180E+02  0.24648142272E+02  0.00000000000E+00 0.  1.
         11    1    3    3    0    0  0.10023518750E+02 -0.47237979490E+02 -0.13286015360E+03  0.14136377913E+03  0.00000000000E+00 0. -1.
        -13    1    4    4    0    0  0.39342114744E+02 -0.12413715809E+01 -0.33579147074E+02  0.51738787327E+02  0.00000000000E+00 0. -1.
         13    1    4    4    0    0  0.25981751511E+02  0.75828204067E+02  0.20109549549E+02  0.82639953573E+02  0.00000000000E+00 0.  1.
          1    1    1    2  501    0 -0.61046570194E+02 -0.99578646263E+01  0.22391333143E+03  0.23229942486E+03  0.00000000000E+00 0. -1.
<scales pt_clust_5="13000.00000" pt_clust_6="13000.00000" pt_clust_7="13000.00000" pt_clust_8="13000.00000" pt_clust_9="61.85340"></scales>
<clustering>
<clus scale="   61.853">  1  9  2 -1</clus>
<clus scale="   89.698">  7  8 -1 -1</clus>
<clus scale="   90.979">  5  6 -1 -1</clus>
<clus scale="  113.939">  1  7  2 -1</clus>
<clus scale="   61.853">  1  5  2 -1</clus>
</clustering>
</event>
<event>
 9    1  0.1321469E-005  0.1134097E+03  0.7546771E-02  0.1254813E+00
         -1   -1    0    0    0  501 -0.00000000000E+00  0.00000000000E+00  0.22872771215E+03  0.22872771215E+03  0.00000000000E+00 0.  1.
         21   -1    0    0  501  502  0.00000000000E+00 -0.00000000000E+00 -0.10164235659E+03  0.10164235659E+03  0.00000000000E+00 0.  1.
         23    2    1    2    0    0  0.60337081758E+02  0.25538993503E+02  0.12073758711E+03  0.16540487818E+03  0.92132541271E+02 0.  0.
         23    2    1    2    0    0 -0.43409224628E+02 -0.60764176481E+02  0.27042087873E+02  0.12074278991E+03  0.90944493354E+02 0.  0.
        -11    1    3    3    0    0 -0.89254103749E+01  0.22076749052E+02 -0.25525065661E+01  0.23949135450E+02  0.00000000000E+00 0. -1.
         11    1    3    3    0    0  0.69262492133E+02  0.34622444513E+01  0.12329009368E+03  0.14145574273E+03  0.00000000000E+00 0.  1.
        -11    1    4    4    0    0 -0.39341640155E+02  0.14741513504E+02  0.80160355074E+01  0.42770710722E+02  0.00000000000E+00 0. -1.
         11    1    4    4    0    0 -0.40675844736E+01 -0.75505689985E+02  0.19026052366E+02  0.77972079184E+02  0.00000000000E+00 0.  1.
         -1    1    1    2    0  502 -0.16927857130E+02  0.35225182978E+02 -0.20694319429E+02  0.44222400653E+02  0.00000000000E+00 0.  1.
<scales pt_clust_5="13000.00000" pt_clust_6="13000.00000" pt_clust_7="13000.00000" pt_clust_8="13000.00000" pt_clust_9="39.08153"></scales>
<clustering>
<clus scale="   39.082">  2  9  1 -1</clus>
<clus scale="   90.944">  7  8 -1 -1</clus>
<clus scale="   92.133">  5  6 -1 -1</clus>
<clus scale="  112.447">  2  7  1 -1</clus>
<clus scale="   39.082">  2  5  1 -1</clus>
</clustering>
</event>
<event>
 9    1  0.1321469E-005  0.1018767E+03  0.7546771E-02  0.1276813E+00
         -1   -1    0    0    0  501 -0.00000000000E+00  0.00000000000E+00  0.38982704720E+03  0.38982704720E+03  0.00000000000E+00 0.  1.
         21   -1    0    0  501  502  0.00000000000E+00 -0.00000000000E+00 -0.58814441025E+02  0.58814441025E+02  0.00000000000E+00 0.  1.
         23    2    1    2    0    0  0.41960412404E+02 -0.19268509092E+02  0.17743024152E+03  0.20444581863E+03  0.90469058241E+02 0.  0.
         23    2    1    2    0    0 -0.51220450880E+02 -0.86590244139E+01  0.17802560187E+03  0.20594429987E+03  0.89562416431E+02 0.  0.
        -11    1    3    3    0    0  0.28444861911E+02 -0.43839249288E+02  0.44647526069E+02  0.68734209324E+02  0.00000000000E+00 0. -1.
         11    1    3    3    0    0  0.13515550492E+02  0.24570740195E+02  0.13278271545E+03  0.13571160931E+03  0.00000000000E+00 0.  1.
        -13    1    4    4    0    0 -0.52642203748E+01  0.27144785284E+02  0.12208733733E+03  0.12517934862E+03  0.00000000000E+00 0.  1.
         13    1    4    4    0    0 -0.45956230505E+02 -0.35803809698E+02  0.55938264534E+02  0.80764951249E+02  0.00000000000E+00 0. -1.
         -1    1    1    2    0  502  0.92600384767E+01  0.27927533506E+02 -0.24443237210E+02  0.38251369722E+02  0.00000000000E+00 0.  1.
<scales pt_clust_5="13000.00000" pt_clust_6="13000.00000" pt_clust_7="13000.00000" pt_clust_8="13000.00000" pt_clust_9="29.42270"></scales>
<clustering>
<clus scale="   29.423">  2  9  1 -1</clus>
<clus scale="   89.562">  7  8 -1 -1</clus>
<clus scale="   90.469">  5  6 -1 -1</clus>
<clus scale="  101.072">  2  7  1 -1</clus>
<clus scale="   29.423">  2  5  1 -1</clus>
</clustering>
</event>
<event>
 9    1  0.1321469E-005  0.1073223E+03  0.7546771E-02  0.1266181E+00
          1   -1    0    0  502    0 -0.00000000000E+00  0.00000000000E+00  0.18556489208E+03  0.18556489208E+03  0.00000000000E+00 0. -1.
         21   -1    0    0  501  502  0.00000000000E+00 -0.00000000000E+00 -0.91065577522E+02  0.91065577522E+02  0.00000000000E+00 0. -1.
         23    2    1    2    0    0 -0.14830963867E+02 -0.47688649699E+02  0.66500605464E+02  0.12406368749E+03  0.92061410092E+02 0.  0.
         23    2    1    2    0    0 -0.12902674902E+02  0.65519478142E+02  0.36745807996E+02  0.11845512865E+03  0.90675697200E+02 0.  0.
        -11    1    3    3    0    0  0.14837943502E+02 -0.15879067385E+02 -0.18525469299E+02  0.28557001963E+02  0.00000000000E+00 0.  1.
         11    1    3    3    0    0 -0.29668907368E+02 -0.31809582314E+02  0.85026074763E+02  0.95506685530E+02  0.00000000000E+00 0. -1.
        -13    1    4    4    0    0 -0.32283726529E+02  0.72026751450E+02  0.50601267371E+02  0.93758093958E+02  0.00000000000E+00 0. -1.
         13    1    4    4    0    0  0.19381051627E+02 -0.65072733079E+01 -0.13855459376E+02  0.24697034692E+02  0.00000000000E+00 0.  1.
          1    1    1    2  501    0  0.27733638768E+02 -0.17830828443E+02 -0.87470989032E+01  0.34111653456E+02  0.00000000000E+00 0. -1.
<scales pt_clust_5="13000.00000" pt_clust_6="13000.00000" pt_clust_7="13000.00000" pt_clust_8="13000.00000" pt_clust_9="32.97110"></scales>
<clustering>
<clus scale="   32.971">  2  9  1 -1</clus>
<clus scale="   90.676">  7  8 -1 -1</clus>
<clus scale="   92.061">  5  6 -1 -1</clus>
<clus scale="  106.136">  2  7  1 -1</clus>
<clus scale="   32.971">  2  5  1 -1</clus>
</clustering>
</event>
<event>
 9    1  0.1321469E-005  0.1282051E+03  0.7546771E-02  0.1230660E+00
          2   -1    0    0  502    0 -0.00000000000E+00  0.00000000000E+00  0.73063463905E+03  0.73063463905E+03  0.00000000000E+00 0. -1.
         21   -1    0    0  501  502  0.00000000000E+00 -0.00000000000E+00 -0.36887040667E+02  0.36887040667E+02  0.00000000000E+00 0. -1.
         23    2    1    2    0    0  0.75985802686E+02 -0.65833306505E+02  0.45024224530E+03  0.47013962647E+03  0.90583235027E+02 0.  0.
         23    2    1    2    0    0 -0.71615002120E+02  0.13655765548E+02  0.15682519336E+03  0.19611483363E+03  0.92475392613E+02 0.  0.
        -11    1    4    4    0    0  0.38028325710E+01  0.37816999956E+02  0.60037762279E+02  0.71057159531E+02  0.00000000000E+00 0.  1.
         11    1    4    4    0    0 -0.75417834691E+02 -0.24161234407E+02  0.96787431077E+02  0.12505767410E+03  0.00000000000E+00 0. -1.
        -11    1    3    3    0    0  0.74147894368E+02 -0.27385529649E+02  0.39486636530E+03  0.40270004212E+03  0.00000000000E+00 0. -1.
         11    1    3    3    0    0  0.18379083186E+01 -0.38447776856E+02  0.55375880001E+02  0.67439584356E+02  0.00000000000E+00 0.  1.
          2    1    1    2  501    0 -0.43708005664E+01  0.52177540956E+02  0.86680159722E+02  0.10126721961E+03  0.00000000000E+00 0. -1.
<scales pt_clust_5="13000.00000" pt_clust_6="13000.00000" pt_clust_7="13000.00000" pt_clust_8="13000.00000" pt_clust_9="52.36029"></scales>
<clustering>
<clus scale="   52.360">  2  9  1 -1</clus>
<clus scale="   90.583">  7  8 -1 -1</clus>
<clus scale="   92.475">  5  6 -1 -1</clus>
<clus scale="  126.847">  1  7  2 -1</clus>
<clus scale="   52.360">  2  5  1 -1</clus>
</clustering>
</event>
<event>
 9    1  0.1321469E-005  0.1079071E+03  0.7546771E-02  0.1266300E+00
         21   -1    0    0  501  502  0.00000000000E+00  0.00000000000E+00  0.58960701136E+02  0.58960701136E+02  0.00000000000E+00 0. -1.
         -4   -1    0    0    0  501 -0.00000000000E+00 -0.00000000000E+00 -0.30959953903E+03  0.30959953903E+03  0.00000000000E+00 0.  1.
         23    2    1    2    0    0 -0.31670903054E+02  0.33583528415E+02 -0.96578298424E+02  0.14260412362E+03  0.94221382217E+02 0.  0.
         23    2    1    2    0    0  0.30509206197E+02 -0.55559962097E+02 -0.52258099314E+02  0.12180214399E+03  0.89928484285E+02 0.  0.
        -11    1    4    4    0    0 -0.27894998175E+02 -0.38620213139E+01 -0.28969273958E+02  0.40401299057E+02  0.00000000000E+00 0.  1.
         11    1    4    4    0    0  0.58404204371E+02 -0.51697940783E+02 -0.23288825356E+02  0.81400844934E+02  0.00000000000E+00 0. -1.
        -13    1    3    3    0    0 -0.31081707228E+02  0.58176135888E+02 -0.97812164558E+02  0.11797353452E+03  0.00000000000E+00 0.  1.
         13    1    3    3    0    0 -0.58919582589E+00 -0.24592607473E+02  0.12338661344E+01  0.24630589105E+02  0.00000000000E+00 0. -1.
         -4    1    1    2    0  502  0.11616968571E+01  0.21976433682E+02 -0.10180244016E+03  0.10415397256E+03  0.00000000000E+00 0.  1.
<scales pt_clust_5="13000.00000" pt_clust_6="13000.00000" pt_clust_7="13000.00000" pt_clust_8="13000.00000" pt_clust_9="22.00713"></scales>
<clustering>
<clus scale="   22.007">  1  9  2 -1</clus>
<clus scale="   89.928">  5  6 -1 -1</clus>
<clus scale="   94.221">  7  8 -1 -1</clus>
<clus scale="  104.180">  1  5  2 -1</clus>
<clus scale="   22.007">  1  5  2 -1</clus>
</clustering>
</event>
<event>
 9    1  0.1321469E-005  0.1010181E+03  0.7546771E-02  0.1282146E+00
          2   -1    0    0  502    0 -0.00000000000E+00  0.00000000000E+00  0.88028945905E+03  0.88028945905E+03  0.00000000000E+00 0. -1.
         21   -1    0    0  501  502  0.00000000000E+00 -0.00000000000E+00 -0.31160879204E+02  0.31160879204E+02  0.00000000000E+00 0. -1.
         23    2    1    2    0    0  0.63227155688E+01 -0.15963679748E+02  0.47950278672E+03  0.48949336995E+03  0.96881478888E+02 0.  0.
         23    2    1    2    0    0  0.11690715949E+02  0.45423581475E+02  0.37382970631E+03  0.38717130444E+03  0.89179566418E+02 0.  0.
        -11    1    4    4    0    0  0.25609272760E+02 -0.84693048080E+01  0.37082431404E+02  0.45854887352E+02  0.00000000000E+00 0.  1.
         11    1    4    4    0    0 -0.13918556810E+02  0.53892886283E+02  0.33674727491E+03  0.34131641709E+03  0.00000000000E+00 0. -1.
        -13    1    3    3    0    0 -0.24958866379E+02  0.32058017438E+02  0.22236103203E+03  0.22604223070E+03  0.00000000000E+00 0. -1.
         13    1    3    3    0    0  0.31281581948E+02 -0.48021697186E+02  0.25714175469E+03  0.26345113925E+03  0.00000000000E+00 0.  1.
          2    1    1    2  501    0 -0.18013431518E+02 -0.29459901727E+02 -0.42039131780E+01  0.34785663870E+02  0.00000000000E+00 0. -1.
<scales pt_clust_5="13000.00000" pt_clust_6="13000.00000" pt_clust_7="13000.00000" pt_clust_8="13000.00000" pt_clust_9="34.53070"></scales>
<clustering>
<clus scale="   34.531">  2  9  1 -1</clus>
<clus scale="   89.180">  5  6 -1 -1</clus>
<clus scale="   93.657">  2  5  1 -1</clus>
<clus scale="   96.881">  7  8 -1 -1</clus>
<clus scale="   34.531">  2  5  1 -1</clus>
</clustering>
</event>
<event>
 9    1  0.1321469E-005  0.9897722E+02  0.7546771E-02  0.1283993E+00
         21   -1    0    0  501  502  0.00000000000E+00  0.00000000000E+00  0.20453379851E+03  0.20453379851E+03  0.00000000000E+00 0. -1.
          1   -1    0    0  502    0 -0.00000000000E+00 -0.00000000000E+00 -0.19751329845E+03  0.19751329845E+03  0.00000000000E+00 0. -1.
         23    2    1    2    0    0  0.16403747618E+01 -0.34873269845E+02 -0.14690888162E+03  0.17692525556E+03  0.92203529091E+02 0.  0.
         23    2    1    2    0    0 -0.29645323900E+02  0.38300588190E+02  0.42211325148E+02  0.10989620256E+03  0.89160524237E+02 0.  0.
        -11    1    3    3    0    0  0.46875183724E+02 -0.20064319445E+02 -0.76931986174E+02  0.92295125877E+02  0.00000000000E+00 0.  1.
         11    1    3    3    0    0 -0.45234808962E+02 -0.14808950401E+02 -0.69976895450E+02  0.84630129686E+02  0.00000000000E+00 0. -1.
        -13    1    4    4    0    0  0.11840996658E+02  0.45437234746E+02  0.48300524175E+02  0.67362394100E+02  0.00000000000E+00 0.  1.
         13    1    4    4    0    0 -0.41486320559E+02 -0.71366465568E+01 -0.60891990274E+01  0.42533808463E+02  0.00000000000E+00 0. -1.
          1    1    1    2  501    0  0.28004949139E+02 -0.34273183443E+01  0.11171805654E+03  0.11522563884E+03  0.00000000000E+00 0. -1.
<scales pt_clust_5="13000.00000" pt_clust_6="13000.00000" pt_clust_7="13000.00000" pt_clust_8="13000.00000" pt_clust_9="28.21389"></scales>
<clustering>
<clus scale="   28.214">  1  9  2 -1</clus>
<clus scale="   89.161">  7  8 -1 -1</clus>
<clus scale="   92.204">  5  6 -1 -1</clus>
<clus scale="   96.149">  1  7  2 -1</clus>
<clus scale="   28.214">  1  5  2 -1</clus>
</clustering>
</event>
<event>
 9    1  0.1321469E-005  0.1017053E+03  0.7546771E-02  0.1277163E+00
         -3   -1    0    0    0  501 -0.00000000000E+00  0.00000000000E+00  0.10307356433E+03  0.10307356433E+03  0.00000000000E+00 0.  1.
         21   -1    0    0  501  502  0.00000000000E+00 -0.00000000000E+00 -0.15791006337E+03  0.15791006337E+03  0.00000000000E+00 0. -1.
         23    2    1    2    0    0 -0.42574752316E+02  0.24033737526E+02 -0.21452419699E+01  0.10318636213E+03  0.90843784550E+02 0.  0.
         23    2    1    2    0    0  0.44383658322E+02  0.18473267760E+02 -0.50432076125E+02  0.11519184881E+03  0.91731112398E+02 0.  0.
        -11    1    4    4    0    0 -0.15589025948E+02 -0.23185808799E+02 -0.26070155427E+02  0.38213249844E+02  0.00000000000E+00 0. -1.
         11    1    4    4    0    0  0.59972684270E+02  0.41659076559E+02 -0.24361920699E+02  0.76978598964E+02  0.00000000000E+00 0.  1.
        -13    1    3    3    0    0 -0.19595052393E+01  0.48688457689E+02  0.17496409817E+02  0.51773834409E+02  0.00000000000E+00 0. -1.
         13    1    3    3    0    0 -0.40615247076E+02 -0.24654720163E+02 -0.19641651787E+02  0.51412527717E+02  0.00000000000E+00 0.  1.
         -3    1    1    2    0  502 -0.18089060062E+01 -0.42507005286E+02 -0.22591809392E+01  0.42605416766E+02  0.00000000000E+00 0.  1.
<scales pt_clust_5="13000.00000" pt_clust_6="13000.00000" pt_clust_7="13000.00000" pt_clust_8="13000.00000" pt_clust_9="42.54550"></scales>
<clustering>
<clus scale="   42.545">  2  9  1 -1</clus>
<clus scale="   90.844">  7  8 -1 -1</clus>
<clus scale="   91.731">  5  6 -1 -1</clus>
<clus scale="  100.906">  1  7  2 -1</clus>
<clus scale="   42.545">  2  5  1 -1</clus>
</clustering>
</event>
<event>
 9    1  0.1321469E-005  0.9603403E+02  0.7546771E-02  0.1289806E+00
         21   -1    0    0  501  502  0.00000000000E+00  0.00000000000E+00  0.52535456930E+02  0.52535456930E+02  0.00000000000E+00 0.  1.
          1   -1    0    0  502    0 -0.00000000000E+00 -0.00000000000E+00 -0.33002300441E+03  0.33002300441E+03  0.00000000000E+00 0. -1.
         23    2    1    2    0    0  0.28216699905E+02 -0.23559919718E+02 -0.14749061336E+03  0.17648001896E+03  0.89668634936E+02 0.  0.
         23    2    1    2    0    0 -0.30655263034E+02 -0.25257942685E+02 -0.12031527984E+03  0.15625008991E+03  0.91436399834E+02 0.  0.
        -11    1    4    4    0    0  0.28624817256E+02 -0.45011964083E+01 -0.12680215295E+02  0.31629555672E+02  0.00000000000E+00 0.  1.
         11    1    4    4    0    0 -0.59280080290E+02 -0.20756746277E+02 -0.10763506454E+03  0.12462053424E+03  0.00000000000E+00 0. -1.
        -13    1    3    3    0    0  0.50188312617E+02  0.51447612495E+01 -0.44297549419E+02  0.67138723373E+02  0.00000000000E+00 0.  1.
         13    1    3    3    0    0 -0.21971612712E+02 -0.28704680967E+02 -0.10319306394E+03  0.10934129558E+03  0.00000000000E+00 0. -1.
          1    1    1    2  501    0  0.24385631283E+01  0.48817862403E+02 -0.96816542758E+01  0.49828352464E+02  0.00000000000E+00 0. -1.
<scales pt_clust_5="13000.00000" pt_clust_6="13000.00000" pt_clust_7="13000.00000" pt_clust_8="13000.00000" pt_clust_9="48.87873"></scales>
<clustering>
<clus scale="   48.879">  1  9  2 -1</clus>
<clus scale="   89.669">  7  8 -1 -1</clus>
<clus scale="   91.436">  5  6 -1 -1</clus>
<clus scale="   94.352">  2  7  1 -1</clus>
<clus scale="   48.879">  1  5  2 -1</clus>
</clustering>
</event>
<event>
 9    1  0.1321469E-005  0.1080927E+03  0.7546771E-02  0.1266359E+00
         -4   -1    0    0    0  501 -0.00000000000E+00  0.00000000000E+00  0.79469789407E+02  0.79469789407E+02  0.00000000000E+00 0.  1.
         21   -1    0    0  501  502  0.00000000000E+00 -0.00000000000E+00 -0.30015041606E+03  0.30015041606E+03  0.00000000000E+00 0.  1.
         23    2    1    2    0    0  0.13474342463E+02 -0.69924249596E+02 -0.21182049732E+02  0.12090726761E+03  0.95388309264E+02 0.  0.
         23    2    1    2    0    0 -0.33762068621E+02  0.60733369152E+01 -0.10188014109E+03  0.14031576772E+03  0.90178649483E+02 0.  0.
        -13    1    3    3    0    0 -0.31760035272E+02 -0.52417704469E+02  0.11582990472E+02  0.62373722436E+02  0.00000000000E+00 0.  1.
         13    1    3    3    0    0  0.45234377735E+02 -0.17506545127E+02 -0.32765040204E+02  0.58533545176E+02  0.00000000000E+00 0. -1.
        -13    1    4    4    0    0 -0.42102070436E+02 -0.27402404427E+02 -0.91340345540E+02  0.10424267277E+03  0.00000000000E+00 0.  1.
         13    1    4    4    0    0  0.83400018153E+01  0.33475741343E+02 -0.10539795554E+02  0.36073094947E+02  0.00000000000E+00 0. -1.
         -4    1    1    2    0  502  0.20287726158E+02  0.63850912681E+02 -0.97618435829E+02  0.11839717014E+03  0.00000000000E+00 0.  1.
<scales pt_clust_5="13000.00000" pt_clust_6="13000.00000" pt_clust_7="13000.00000" pt_clust_8="13000.00000" pt_clust_9="66.99650"></scales>
<clustering>
<clus scale="   66.996">  2  9  1 -1</clus>
<clus scale="   90.179">  7  8 -1 -1</clus>
<clus scale="   95.388">  5  6 -1 -1</clus>
<clus scale="  103.524">  2  7  1 -1</clus>
<clus scale="   66.996">  2  5  1 -1</clus>
</clustering>
</event>
<event>
 9    1  0.1442334E-005  0.9542320E+02  0.7546771E-02  0.1290414E+00
         -4   -1    0    0    0  501 -0.00000000000E+00  0.00000000000E+00  0.15121402504E+03  0.15121402504E+03  0.00000000000E+00 0.  1.
         21   -1    0    0  501  502  0.00000000000E+00 -0.00000000000E+00 -0.32039035275E+03  0.32039035275E+03  0.00000000000E+00 0.  1.
         23    2    1    2    0    0 -0.27642903748E+02  0.16063265110E+02  0.57410104044E+02  0.11230935515E+03  0.91078606682E+02 0.  0.
         23    2    1    2    0    0  0.29567537874E+02  0.22818494903E+02  0.27777163711E+02  0.10196967571E+03  0.90726627484E+02 0.  0.
        -11    1    4    4    0    0  0.55305349184E+02  0.70884094645E+01  0.40823761156E+02  0.69105040858E+02  0.00000000000E+00 0. -1.
         11    1    4    4    0    0 -0.25737811310E+02  0.15730085439E+02 -0.13046597445E+02  0.32864634850E+02  0.00000000000E+00 0.  1.
        -13    1    3    3    0    0  0.26954778350E+02 -0.99785906753E+01  0.40200102180E+02  0.49418423316E+02  0.00000000000E+00 0.  1.
         13    1    3    3    0    0 -0.54597682098E+02  0.26041855785E+02  0.17210001864E+02  0.62890931838E+02  0.00000000000E+00 0. -1.
         -4    1    1    2    0  502 -0.19246341257E+01 -0.38881760013E+02 -0.25436359546E+03  0.25732534693E+03  0.00000000000E+00 0.  1.
<scales pt_clust_5="13000.00000" pt_clust_6="13000.00000" pt_clust_7="13000.00000" pt_clust_8="13000.00000" pt_clust_9="38.92937"></scales>
<clustering>
<clus scale="   38.929">  2  9  1 -1</clus>
<clus scale="   90.727">  5  6 -1 -1</clus>
<clus scale="   91.079">  7  8 -1 -1</clus>
<clus scale="   95.087">  2  5  1 -1</clus>
<clus scale="   38.929">  2  5  1 -1</clus>
</clustering>
</event>
<event>
 9    1  0.1321469E-005  0.1026155E+03  0.7546771E-02  0.1276336E+00
          2   -1    0    0  502    0 -0.00000000000E+00  0.00000000000E+00  0.31123291852E+03  0.31123291852E+03  0.00000000000E+00 0. -1.
         21   -1    0    0  501  502  0.00000000000E+00 -0.00000000000E+00 -0.17084947609E+03  0.17084947609E+03  0.00000000000E+00 0. -1.
         23    2    1    2    0    0 -0.35748306633E+02 -0.24208399944E+02  0.26749020179E+03  0.28538273821E+03  0.89600843537E+02 0.  0.
         23    2    1    2    0    0  0.63737280934E+02  0.49938853463E+01 -0.11416846893E+03  0.16036813272E+03  0.92715256696E+02 0.  0.
        -11    1    3    3    0    0 -0.63928894216E+02 -0.30368269800E+01  0.18123430123E+03  0.19220301188E+03  0.00000000000E+00 0.  1.
         11    1    3    3    0    0  0.28180587583E+02 -0.21171572964E+02  0.86255900561E+02  0.93179726335E+02  0.00000000000E+00 0. -1.
        -13    1    4    4    0    0  0.14064682744E+02  0.45942014043E+02 -0.53543371605E+02  0.71940090338E+02  0.00000000000E+00 0. -1.
         13    1    4    4    0    0  0.49672598189E+02 -0.40948128697E+02 -0.60625097325E+02  0.88428042386E+02  0.00000000000E+00 0.  1.
          2    1    1    2  501    0 -0.27988974301E+02  0.19214514598E+02 -0.12938290421E+02  0.36331523676E+02  0.00000000000E+00 0. -1.
<scales pt_clust_5="13000.00000" pt_clust_6="13000.00000" pt_clust_7="13000.00000" pt_clust_8="13000.00000" pt_clust_9="33.94967"></scales>
<clustering>
<clus scale="   33.950">  2  9  1 -1</clus>
<clus scale="   89.601">  5  6 -1 -1</clus>
<clus scale="   92.715">  7  8 -1 -1</clus>
<clus scale="   99.810">  1  5  2 -1</clus>
<clus scale="   33.950">  2  5  1 -1</clus>
</clustering>
</event>
<event>
 9    1  0.1321469E-005  0.1175003E+03  0.7546771E-02  0.1247379E+00
          1   -1    0    0  502    0 -0.00000000000E+00  0.00000000000E+00  0.44172696785E+03  0.44172696785E+03  0.00000000000E+00 0. -1.
         21   -1    0    0  501  502  0.00000000000E+00 -0.00000000000E+00 -0.47902272922E+02  0.47902272922E+02  0.00000000000E+00 0.  1.
         23    2    1    2    0    0  0.63865465571E+02 -0.27668050692E+02  0.26596958679E+03  0.29030073783E+03  0.93222199966E+02 0.  0.
         23    2    1    2    0    0 -0.57822966031E+02  0.52626044974E+02  0.12363998652E+03  0.17330581036E+03  0.92925032291E+02 0.  0.
        -13    1    4    4    0    0 -0.17101585547E+01  0.50536924438E+02  0.18008121872E+02  0.53676790396E+02  0.00000000000E+00 0.  1.
         13    1    4    4    0    0 -0.56112807476E+02  0.20891205368E+01  0.10563186465E+03  0.11962901996E+03  0.00000000000E+00 0. -1.
        -13    1    3    3    0    0 -0.12413643807E+02 -0.37354733506E+02  0.84908635088E+02  0.93589267442E+02  0.00000000000E+00 0.  1.
         13    1    3    3    0    0  0.76279109378E+02  0.96866828132E+01  0.18106095170E+03  0.19671147039E+03  0.00000000000E+00 0. -1.
          1    1    1    2  501    0 -0.60424995404E+01 -0.24957994282E+02  0.42151216225E+01  0.26022692589E+02  0.00000000000E+00 0. -1.
<scales pt_clust_5="13000.00000" pt_clust_6="13000.00000" pt_clust_7="13000.00000" pt_clust_8="13000.00000" pt_clust_9="25.67904"></scales>
<clustering>
<clus scale="   25.679">  2  9  1 -1</clus>
<clus scale="   92.925">  5  6 -1 -1</clus>
<clus scale="   93.222">  7  8 -1 -1</clus>
<clus scale="  117.265">  2  5  1 -1</clus>
<clus scale="   25.679">  2  5  1 -1</clus>
</clustering>
</event>
<event>
 9    1  0.1321469E-005  0.3174832E+03  0.7546771E-02  0.1076845E+00
         21   -1    0    0  501  502  0.00000000000E+00  0.00000000000E+00  0.41106680108E+03  0.41106680108E+03  0.00000000000E+00 0. -1.
          1   -1    0    0  502    0 -0.00000000000E+00 -0.00000000000E+00 -0.75887895416E+03  0.75887895416E+03  0.00000000000E+00 0. -1.
         23    2    1    2    0    0  0.63209484730E+02 -0.29294992953E+03 -0.34162347338E+03  0.46349591485E+03  0.91141457917E+02 0.  0.
         23    2    1    2    0    0  0.92998795880E+02  0.31990643372E+03 -0.24226727420E+03  0.42208953579E+03  0.92071937622E+02 0.  0.
        -13    1    4    4    0    0  0.41148422491E+02  0.42099410766E+02 -0.18768569974E+02  0.61788447781E+02  0.00000000000E+00 0.  1.
         13    1    4    4    0    0  0.51850373388E+02  0.27780702296E+03 -0.22349870423E+03  0.36030108801E+03  0.00000000000E+00 0. -1.
        -13    1    3    3    0    0 -0.99736507552E+01 -0.88888543612E+02 -0.58382817771E+02  0.10681385821E+03  0.00000000000E+00 0.  1.
         13    1    3    3    0    0  0.73183135485E+02 -0.20406138591E+03 -0.28324065561E+03  0.35668205664E+03  0.00000000000E+00 0. -1.
          1    1    1    2  501    0 -0.15620828061E+03 -0.26956504196E+02  0.23607859450E+03  0.28436030460E+03  0.00000000000E+00 0. -1.
<scales pt_clust_5="13000.00000" pt_clust_6="13000.00000" pt_clust_7="13000.00000" pt_clust_8="13000.00000" pt_clust_9="158.51713"></scales>
<clustering>
<clus scale="   91.141">  7  8 -1 -1</clus>
<clus scale="   92.072">  5  6 -1 -1</clus>
<clus scale="  158.517">  1  9  2 -1</clus>
<clus scale="  317.215">  2  7  1 -1</clus>
<clus scale="  158.517">  1  5  2 -1</clus>
</clustering>
</event>
<event>
 9    1  0.1321469E-005  0.1240914E+03  0.7546771E-02  0.1237321E+00
         21   -1    0    0  501  502  0.00000000000E+00  0.00000000000E+00  0.29078155072E+02  0.29078155072E+02  0.00000000000E+00 0. -1.
         -1   -1    0    0    0  501 -0.00000000000E+00 -0.00000000000E+00 -0.77903949231E+03  0.77903949231E+03  0.00000000000E+00 0.  1.
         23    2    1    2    0    0  0.44143294302E+02  0.68969579230E+02 -0.48907339900E+03  0.50508664109E+03  0.95991104305E+02 0.  0.
         23    2    1    2    0    0 -0.61843928988E+02 -0.43127200395E+02 -0.18017929717E+03  0.21645718949E+03  0.93297957042E+02 0.  0.
        -11    1    4    4    0    0 -0.53086579588E+02 -0.66310117756E+02 -0.93581351991E+02  0.12638309258E+03  0.00000000000E+00 0. -1.
         11    1    4    4    0    0 -0.87573494003E+01  0.23182917361E+02 -0.86597945179E+02  0.90074096916E+02  0.00000000000E+00 0.  1.
        -13    1    3    3    0    0 -0.14930895544E+02 -0.14247703657E+02 -0.46087415121E+02  0.50497312144E+02  0.00000000000E+00 0. -1.
         13    1    3    3    0    0  0.59074189845E+02  0.83217282887E+02 -0.44298598388E+03  0.45458932894E+03  0.00000000000E+00 0.  1.
         -1    1    1    2    0  502  0.17700634686E+02 -0.25842378835E+02 -0.80708641066E+02  0.86573816797E+02  0.00000000000E+00 0.  1.
<scales pt_clust_5="13000.00000" pt_clust_6="13000.00000" pt_clust_7="13000.00000" pt_clust_8="13000.00000" pt_clust_9="31.32319"></scales>
<clustering>
<clus scale="   31.323">  1  9  2 -1</clus>
<clus scale="   93.298">  5  6 -1 -1</clus>
<clus scale="   95.991">  7  8 -1 -1</clus>
<clus scale="  122.020">  1  5  2 -1</clus>
<clus scale="   31.323">  1  5  2 -1</clus>
</clustering>
</event>
<event>
 9    1  0.1321469E-005  0.1392019E+03  0.7546771E-02  0.1219206E+00
         21   -1    0    0  501  502  0.00000000000E+00  0.00000000000E+00  0.61216324336E+03  0.61216324336E+03  0.00000000000E+00 0.  1.
          1   -1    0    0  502    0 -0.00000000000E+00 -0.00000000000E+00 -0.48741853448E+02  0.48741853448E+02  0.00000000000E+00 0. -1.
         23    2    1    2    0    0 -0.66510301582E+02 -0.50528923422E+02  0.15852891988E+03  0.20235543458E+03  0.94018674454E+02 0.  0.
         23    2    1    2    0    0  0.98492035977E+02 -0.75073774661E+01  0.28789198181E+03  0.32408718494E+03  0.11132685382E+03 0.  0.
        -11    1    3    3    0    0 -0.29415175673E+02 -0.29735722808E+02  0.39258546727E+01  0.42010452339E+02  0.00000000000E+00 0. -1.
         11    1    3    3    0    0 -0.37095125909E+02 -0.20793200615E+02  0.15460306520E+03  0.16034498224E+03  0.00000000000E+00 0.  1.
        -11    1    4    4    0    0  0.10850783407E+03  0.14411239391E+02  0.15946328679E+03  0.19341709777E+03  0.00000000000E+00 0.  1.
         11    1    4    4    0    0 -0.10015798091E+02 -0.21918616857E+02  0.12842869502E+03  0.13067008717E+03  0.00000000000E+00 0. -1.
          1    1    1    2  501    0 -0.31981734395E+02  0.58036300889E+02  0.11700048823E+03  0.13446247730E+03  0.00000000000E+00 0. -1.
<scales pt_clust_5="13000.00000" pt_clust_6="13000.00000" pt_clust_7="13000.00000" pt_clust_8="13000.00000" pt_clust_9="66.26495"></scales>
<clustering>
<clus scale="   66.265">  1  9  2 -1</clus>
<clus scale="   94.019">  5  6 -1 -1</clus>
<clus scale="  111.327">  7  8 -1 -1</clus>
<clus scale="  125.790">  2  5  1 -1</clus>
<clus scale="   66.265">  1  5  2 -1</clus>
</clustering>
</event>
<event>
 9    1  0.1321469E-005  0.1394299E+03  0.7546771E-02  0.1215228E+00
         21   -1    0    0  501  502  0.00000000000E+00  0.00000000000E+00  0.12068766369E+03  0.12068766369E+03  0.00000000000E+00 0. -1.
          1   -1    0    0  502    0 -0.00000000000E+00 -0.00000000000E+00 -0.41891820525E+03  0.41891820525E+03  0.00000000000E+00 0. -1.
         23    2    1    2    0    0 -0.91895932163E+02 -0.44158475379E+02 -0.18502308340E+03  0.23213358812E+03  0.96216568453E+02 0.  0.
         23    2    1    2    0    0  0.49017515386E+02  0.10141655572E+03 -0.16460458278E+03  0.21938873634E+03  0.91371299497E+02 0.  0.
        -11    1    3    3    0    0 -0.10764543893E+03 -0.21171293782E+02 -0.12739843727E+03  0.16812532831E+03  0.00000000000E+00 0.  1.
         11    1    3    3    0    0  0.15749506764E+02 -0.22987181597E+02 -0.57624646134E+02  0.64008259804E+02  0.00000000000E+00 0. -1.
        -13    1    4    4    0    0  0.32401502606E+02  0.14034907743E+02 -0.10879625189E+03  0.11438295516E+03  0.00000000000E+00 0.  1.
         13    1    4    4    0    0  0.16616012779E+02  0.87381647978E+02 -0.55808330893E+02  0.10500578118E+03  0.00000000000E+00 0. -1.
          1    1    1    2  501    0  0.42878416778E+02 -0.57258080342E+02  0.51397124620E+02  0.88083544485E+02  0.00000000000E+00 0. -1.
<scales pt_clust_5="13000.00000" pt_clust_6="13000.00000" pt_clust_7="13000.00000" pt_clust_8="13000.00000" pt_clust_9="71.53353"></scales>
<clustering>
<clus scale="   71.534">  1  9  2 -1</clus>
<clus scale="   91.371">  7  8 -1 -1</clus>
<clus scale="   96.217">  5  6 -1 -1</clus>
<clus scale="  136.132">  1  7  2 -1</clus>
<clus scale="   71.534">  1  5  2 -1</clus>
</clustering>
</event>
<event>
 9    1  0.1321469E-005  0.1292931E+03  0.7546771E-02  0.1231577E+00
         21   -1    0    0  501  502  0.00000000000E+00  0.00000000000E+00  0.54742106505E+02  0.54742106505E+02  0.00000000000E+00 0. -1.
          2   -1    0    0  502    0 -0.00000000000E+00 -0.00000000000E+00 -0.69211859885E+03  0.69211859885E+03  0.00000000000E+00 0. -1.
         23    2    1    2    0    0 -0.41365185134E+02  0.56582424825E+02 -0.35978112366E+03  0.37679514701E+03  0.87289612937E+02 0.  0.
         23    2    1    2    0    0  0.10555710396E+03 -0.92466433200E+02 -0.19536318086E+03  0.25974603508E+03  0.98024929688E+02 0.  0.
        -11    1    3    3    0    0 -0.49697476277E+02  0.64873429070E+01 -0.97333117165E+02  0.10947904121E+03  0.00000000000E+00 0. -1.
         11    1    3    3    0    0  0.83322911434E+01  0.50095081918E+02 -0.26244800650E+03  0.26731610580E+03  0.00000000000E+00 0.  1.
        -13    1    4    4    0    0  0.37791680612E+02 -0.19788907698E+02 -0.24320415201E+01  0.42728524633E+02  0.00000000000E+00 0.  1.
         13    1    4    4    0    0  0.67765423344E+02 -0.72677525502E+02 -0.19293113934E+03  0.21701751045E+03  0.00000000000E+00 0. -1.
          2    1    1    2  501    0 -0.64191918822E+02  0.35884008375E+02 -0.82232187828E+02  0.11031952327E+03  0.00000000000E+00 0. -1.
<scales pt_clust_5="13000.00000" pt_clust_6="13000.00000" pt_clust_7="13000.00000" pt_clust_8="13000.00000" pt_clust_9="73.54090"></scales>
<clustering>
<clus scale="   73.541">  1  9  2 -1</clus>
<clus scale="   87.290">  5  6 -1 -1</clus>
<clus scale="   98.025">  7  8 -1 -1</clus>
<clus scale="  121.356">  2  5  1 -1</clus>
<clus scale="   73.541">  1  5  2 -1</clus>
</clustering>
</event>
<event>
 9    1  0.1550628E-005  0.1062281E+03  0.7546771E-02  0.1268678E+00
         -1   -1    0    0    0  501 -0.00000000000E+00  0.00000000000E+00  0.12840435520E+03  0.12840435520E+03  0.00000000000E+00 0.  1.
         21   -1    0    0  501  502  0.00000000000E+00 -0.00000000000E+00 -0.50009456432E+03  0.50009456432E+03  0.00000000000E+00 0. -1.
         23    2    1    2    0    0 -0.48703542033E+02 -0.17188711650E+02  0.65460379247E+02  0.12534109830E+03  0.93583347119E+02 0.  0.
         23    2    1    2    0    0  0.19037783157E+01  0.77984364958E+02 -0.40050545625E+03  0.41813314801E+03  0.91353836424E+02 0.  0.
        -11    1    4    4    0    0  0.21039337395E+02  0.60131058541E+02 -0.37883746650E+03  0.38415650969E+03  0.00000000000E+00 0. -1.
         11    1    4    4    0    0 -0.19135559080E+02  0.17853306416E+02 -0.21667989753E+02  0.33976638316E+02  0.00000000000E+00 0.  1.
        -13    1    3    3    0    0 -0.75554903746E+02 -0.86658271098E+01  0.34585295274E+02  0.83545093745E+02  0.00000000000E+00 0.  1.
         13    1    3    3    0    0  0.26851361713E+02 -0.85228845404E+01  0.30875083974E+02  0.41796004559E+02  0.00000000000E+00 0. -1.
         -1    1    1    2    0  502  0.46799763718E+02 -0.60795653307E+02 -0.36645132119E+02  0.85024673202E+02  0.00000000000E+00 0.  1.
<scales pt_clust_5="13000.00000" pt_clust_6="13000.00000" pt_clust_7="13000.00000" pt_clust_8="13000.00000" pt_clust_9="76.72246"></scales>
<clustering>
<clus scale="   76.722">  2  9  1 -1</clus>
<clus scale="   91.354">  5  6 -1 -1</clus>
<clus scale="   93.583">  7  8 -1 -1</clus>
<clus scale="  104.269">  2  5  1 -1</clus>
<clus scale="   76.722">  2  5  1 -1</clus>
</clustering>
</event>
<event>
 9    1  0.1321469E-005  0.1178533E+03  0.7546771E-02  0.1249749E+00
          2   -1    0    0  502    0 -0.00000000000E+00  0.00000000000E+00  0.33506830124E+03  0.33506830124E+03  0.00000000000E+00 0. -1.
         21   -1    0    0  501  502  0.00000000000E+00 -0.00000000000E+00 -0.10350134842E+03  0.10350134842E+03  0.00000000000E+00 0.  1.
         23    2    1    2    0    0 -0.71097599050E+01 -0.39981878488E+02  0.10331618470E+03  0.14976162891E+03  0.10052468443E+03 0.  0.
         23    2    1    2    0    0 -0.60729340450E+02  0.63082752813E+02 -0.30270125690E+01  0.13924315311E+03  0.10822202358E+03 0.  0.
        -13    1    3    3    0    0 -0.48739960090E+02 -0.27912454496E+02  0.86778845124E+02  0.10336951575E+03  0.00000000000E+00 0.  1.
         13    1    3    3    0    0  0.41630200185E+02 -0.12069423992E+02  0.16537339579E+02  0.46392113159E+02  0.00000000000E+00 0. -1.
        -13    1    4    4    0    0 -0.89720052099E+02  0.58159069055E+02 -0.14047288960E+02  0.10784011957E+03  0.00000000000E+00 0.  1.
         13    1    4    4    0    0  0.28990711648E+02  0.49236837575E+01  0.11020276390E+02  0.31403033537E+02  0.00000000000E+00 0. -1.
          2    1    1    2  501    0  0.67839100355E+02 -0.23100874325E+02  0.13127778069E+03  0.14956486765E+03  0.00000000000E+00 0. -1.
<scales pt_clust_5="13000.00000" pt_clust_6="13000.00000" pt_clust_7="13000.00000" pt_clust_8="13000.00000" pt_clust_9="71.66449"></scales>
<clustering>
<clus scale="   71.664">  2  9  1 -1</clus>
<clus scale="  100.525">  5  6 -1 -1</clus>
<clus scale="  108.222">  7  8 -1 -1</clus>
<clus scale="  110.827">  1  5  2 -1</clus>
<clus scale="   71.664">  2  5  1 -1</clus>
</clustering>
</event>
<event>
 9    1  0.1321469E-005  0.1152382E+03  0.7546771E-02  0.1256050E+00
         21   -1    0    0  501  502  0.00000000000E+00  0.00000000000E+00  0.37878264041E+03  0.37878264041E+03  0.00000000000E+00 0.  1.
         -3   -1    0    0    0  501 -0.00000000000E+00 -0.00000000000E+00 -0.96133899295E+02  0.96133899295E+02  0.00000000000E+00 0.  1.
         23    2    1    2    0    0  0.20876408858E+01  0.37974332593E+02 -0.36704993751E+01  0.10039221680E+03  0.92837042430E+02 0.  0.
         23    2    1    2    0    0 -0.14248832677E+02 -0.65889061357E+02  0.46714160967E+02  0.13299229439E+03  0.10469164194E+03 0.  0.
        -11    1    4    4    0    0 -0.36636298907E+02  0.39015116577E+01 -0.12354060434E+02  0.38859529077E+02  0.00000000000E+00 0. -1.
         11    1    4    4    0    0  0.22387466230E+02 -0.69790573015E+02  0.59068221401E+02  0.94132765313E+02  0.00000000000E+00 0.  1.
        -13    1    3    3    0    0 -0.43686649004E+02  0.12917192152E+02  0.95794308682E+01  0.46552579413E+02  0.00000000000E+00 0.  1.
         13    1    3    3    0    0  0.45774289890E+02  0.25057140441E+02 -0.13249930243E+02  0.53839637382E+02  0.00000000000E+00 0. -1.
         -3    1    1    2    0  502  0.12161191792E+02  0.27914728764E+02  0.23960507952E+03  0.24153202852E+03  0.00000000000E+00 0.  1.
<scales pt_clust_5="13000.00000" pt_clust_6="13000.00000" pt_clust_7="13000.00000" pt_clust_8="13000.00000" pt_clust_9="30.44875"></scales>
<clustering>
<clus scale="   30.449">  1  9  2 -1</clus>
<clus scale="   92.837">  7  8 -1 -1</clus>
<clus scale="  104.586">  2  7  1 -1</clus>
<clus scale="  104.692">  5  6 -1 -1</clus>
<clus scale="   30.449">  1  5  2 -1</clus>
</clustering>
</event>
<event>
 9    1  0.1321469E-005  0.1049806E+03  0.7546771E-02  0.1276340E+00
         21   -1    0    0  501  502  0.00000000000E+00  0.00000000000E+00  0.16884338626E+03  0.16884338626E+03  0.00000000000E+00 0. -1.
         -1   -1    0    0    0  501 -0.00000000000E+00 -0.00000000000E+00 -0.12297184610E+03  0.12297184610E+03  0.00000000000E+00 0.  1.
         23    2    1    2    0    0  0.29741225294E+00  0.17809574424E+02 -0.65269228519E+02  0.11299110401E+03  0.90496673964E+02 0.  0.
         23    2    1    2    0    0 -0.12840107475E+02 -0.42802984245E+02  0.84640309389E+02  0.14029798034E+03  0.10257961539E+03 0.  0.
        -11    1    4    4    0    0 -0.63062108773E+01  0.32972351789E+02  0.13586532862E+02  0.36215164688E+02  0.00000000000E+00 0.  1.
         11    1    4    4    0    0 -0.65338965975E+01 -0.75775336034E+02  0.71053776527E+02  0.10408281565E+03  0.00000000000E+00 0. -1.
        -11    1    3    3    0    0 -0.26106391431E+02 -0.28618908852E+02 -0.25063483999E+02  0.46138528885E+02  0.00000000000E+00 0. -1.
         11    1    3    3    0    0  0.26403803684E+02  0.46428483277E+02 -0.40205744520E+02  0.66852575124E+02  0.00000000000E+00 0.  1.
         -1    1    1    2    0  502  0.12542695222E+02  0.24993409820E+02  0.26500459294E+02  0.38526148012E+02  0.00000000000E+00 0.  1.
<scales pt_clust_5="13000.00000" pt_clust_6="13000.00000" pt_clust_7="13000.00000" pt_clust_8="13000.00000" pt_clust_9="27.96408"></scales>
<clustering>
<clus scale="   27.964">  1  9  2 -1</clus>
<clus scale="   90.497">  7  8 -1 -1</clus>
<clus scale="   93.209">  2  7  1 -1</clus>
<clus scale="  102.580">  5  6 -1 -1</clus>
<clus scale="   27.964">  1  5  2 -1</clus>
</clustering>
</event>
<event>
 9    1  0.1321469E-005  0.1921982E+03  0.7546771E-02  0.1156911E+00
         21   -1    0    0  501  502  0.00000000000E+00  0.00000000000E+00  0.23735701369E+03  0.23735701369E+03  0.00000000000E+00 0.  1.
          2   -1    0    0  502    0 -0.00000000000E+00 -0.00000000000E+00 -0.37366386113E+03  0.37366386113E+03  0.00000000000E+00 0. -1.
         23    2    1    2    0    0 -0.97330264463E+02  0.13074449109E+03 -0.16845073339E+03  0.25123450996E+03  0.90420280272E+02 0.  0.
         23    2    1    2    0    0  0.63979493041E+02 -0.17298435271E+03 -0.92752350336E+02  0.22378802038E+03  0.86377761946E+02 0.  0.
        -11    1    4    4    0    0  0.83453597350E+01 -0.11998745121E+03 -0.28452815011E+02  0.12359690999E+03  0.00000000000E+00 0.  1.
         11    1    4    4    0    0  0.55634133306E+02 -0.52996901499E+02 -0.64299535325E+02  0.10019111039E+03  0.00000000000E+00 0. -1.
        -13    1    3    3    0    0  0.83491336878E+01  0.56776588841E+02 -0.50441763521E+02  0.76404584816E+02  0.00000000000E+00 0.  1.
         13    1    3    3    0    0 -0.10567939815E+03  0.73967902254E+02 -0.11800896987E+03  0.17482992515E+03  0.00000000000E+00 0. -1.
          2    1    1    2  501    0  0.33350771422E+02  0.42239861618E+02  0.12489623629E+03  0.13599834448E+03  0.00000000000E+00 0. -1.
<scales pt_clust_5="13000.00000" pt_clust_6="13000.00000" pt_clust_7="13000.00000" pt_clust_8="13000.00000" pt_clust_9="53.81895"></scales>
<clustering>
<clus scale="   53.819">  1  9  2 -1</clus>
<clus scale="   86.378">  5  6 -1 -1</clus>
<clus scale="   90.420">  7  8 -1 -1</clus>
<clus scale="  190.330">  1  5  2 -1</clus>
<clus scale="   53.819">  1  5  2 -1</clus>
</clustering>
</event>
<event>
 9    1  0.1321469E-005  0.9419958E+02  0.7546771E-02  0.1293215E+00
         21   -1    0    0  501  502  0.00000000000E+00  0.00000000000E+00  0.31263760572E+02  0.31263760572E+02  0.00000000000E+00 0. -1.
         -2   -1    0    0    0  501 -0.00000000000E+00 -0.00000000000E+00 -0.35974545507E+03  0.35974545507E+03  0.00000000000E+00 0.  1.
         23    2    1    2    0    0  0.21369625464E+02  0.22266656225E+02 -0.17883737096E+03  0.20334276922E+03  0.91722470911E+02 0.  0.
         23    2    1    2    0    0 -0.62458776940E+01 -0.81606005591E+01 -0.12954837712E+03  0.15882974038E+03  0.91315376717E+02 0.  0.
        -13    1    3    3    0    0  0.12429033502E+02 -0.31419086371E+02 -0.11288744270E+03  0.11783554040E+03  0.00000000000E+00 0.  1.
         13    1    3    3    0    0  0.89405919620E+01  0.53685742596E+02 -0.65949928259E+02  0.85507228818E+02  0.00000000000E+00 0. -1.
        -13    1    4    4    0    0 -0.32201355150E+02 -0.86502400226E+01 -0.12860010916E+03  0.13285233156E+03  0.00000000000E+00 0.  1.
         13    1    4    4    0    0  0.25955477456E+02  0.48963946352E+00 -0.94826796319E+00  0.25977408819E+02  0.00000000000E+00 0. -1.
         -2    1    1    2    0  502 -0.15123747770E+02 -0.14106055666E+02 -0.20095946420E+02  0.28836706046E+02  0.00000000000E+00 0.  1.
<scales pt_clust_5="13000.00000" pt_clust_6="13000.00000" pt_clust_7="13000.00000" pt_clust_8="13000.00000" pt_clust_9="20.68112"></scales>
<clustering>
<clus scale="   20.681">  1  9  2 -1</clus>
<clus scale="   91.315">  7  8 -1 -1</clus>
<clus scale="   91.722">  5  6 -1 -1</clus>
<clus scale="   93.803">  1  7  2 -1</clus>
<clus scale="   20.681">  1  5  2 -1</clus>
</clustering>
</event>
<event>
 9    1  0.1321469E-005  0.9115086E+02  0.7546771E-02  0.1300091E+00
          1   -1    0    0  502    0 -0.00000000000E+00  0.00000000000E+00  0.44541607529E+03  0.44541607529E+03  0.00000000000E+00 0. -1.
         21   -1    0    0  501  502  0.00000000000E+00 -0.00000000000E+00 -0.35616145289E+02  0.35616145289E+02  0.00000000000E+00 0.  1.
         23    2    1    2    0    0 -0.14915177720E+02 -0.12434561753E+02  0.29021260604E+03  0.30434703312E+03  0.89591735180E+02 0.  0.
         23    2    1    2    0    0  0.18234196988E+02 -0.10754585708E+02  0.12232771427E+03  0.15309997624E+03  0.89595680655E+02 0.  0.
        -11    1    3    3    0    0  0.35183864065E+02 -0.42927835608E+01  0.71260602125E+02  0.79588979743E+02  0.00000000000E+00 0.  1.
         11    1    3    3    0    0 -0.50099041785E+02 -0.81417781919E+01  0.21895200392E+03  0.22475805338E+03  0.00000000000E+00 0. -1.
        -11    1    4    4    0    0 -0.63788171773E+01  0.37403124610E+02  0.48321773413E+02  0.61438398619E+02  0.00000000000E+00 0. -1.
         11    1    4    4    0    0  0.24613014165E+02 -0.48157710318E+02  0.74005940857E+02  0.91661577619E+02  0.00000000000E+00 0.  1.
          1    1    1    2  501    0 -0.33190192686E+01  0.23189147461E+02 -0.27403903160E+01  0.23585211213E+02  0.00000000000E+00 0. -1.
<scales pt_clust_5="13000.00000" pt_clust_6="13000.00000" pt_clust_7="13000.00000" pt_clust_8="13000.00000" pt_clust_9="23.42547"></scales>
<clustering>
<clus scale="   23.425">  2  9  1 -1</clus>
<clus scale="   89.592">  5  6 -1 -1</clus>
<clus scale="   89.596">  7  8 -1 -1</clus>
<clus scale="   91.147">  1  5  2 -1</clus>
<clus scale="   23.425">  2  5  1 -1</clus>
</clustering>
</event>
<event>
 9    1  0.1321469E-005  0.2286618E+03  0.7546771E-02  0.1155374E+00
          2   -1    0    0  502    0 -0.00000000000E+00  0.00000000000E+00  0.41786573072E+03  0.41786573072E+03  0.00000000000E+00 0. -1.
         21   -1    0    0  501  502  0.00000000000E+00 -0.00000000000E+00 -0.19330640060E+03  0.19330640060E+03  0.00000000000E+00 0.  1.
         23    2    1    2    0    0  0.30421958124E+02  0.67726812624E+02  0.43624969855E+02  0.12502809216E+03  0.90644741440E+02 0.  0.
         23    2    1    2    0    0 -0.21176181405E+03 -0.11840378269E+03  0.12636414778E+03  0.29010780085E+03  0.96602881041E+02 0.  0.
        -13    1    4    4    0    0 -0.13464017033E+03 -0.56840354435E+02  0.24323547959E+02  0.14815679649E+03  0.00000000000E+00 0.  1.
         13    1    4    4    0    0 -0.77121643714E+02 -0.61563428250E+02  0.10204059982E+03  0.14195100436E+03  0.00000000000E+00 0. -1.
        -13    1    3    3    0    0 -0.24701250735E+02  0.48201476731E+02  0.38387613611E+01  0.54297976350E+02  0.00000000000E+00 0.  1.
         13    1    3    3    0    0  0.55123208859E+02  0.19525335893E+02  0.39786208494E+02  0.70730115813E+02  0.00000000000E+00 0. -1.
          2    1    1    2  501    0  0.18133985592E+03  0.50676970062E+02  0.54570212475E+02  0.19603623831E+03  0.00000000000E+00 0. -1.
<scales pt_clust_5="13000.00000" pt_clust_6="13000.00000" pt_clust_7="13000.00000" pt_clust_8="13000.00000" pt_clust_9="207.25369"></scales>
<clustering>
<clus scale="   90.645">  7  8 -1 -1</clus>
<clus scale="   96.603">  5  6 -1 -1</clus>
<clus scale="  117.170">  1  7  2 -1</clus>
<clus scale="  207.254">  2  9  1 -1</clus>
<clus scale="  207.254">  2  5  1 -1</clus>
</clustering>
</event>
<event>
 9    1  0.1321469E-005  0.1604411E+03  0.7546771E-02  0.1188372E+00
         -4   -1    0    0    0  501 -0.00000000000E+00  0.00000000000E+00  0.67355628338E+02  0.67355628338E+02  0.00000000000E+00 0.  1.
         21   -1    0    0  501  502  0.00000000000E+00 -0.00000000000E+00 -0.75194631224E+03  0.75194631224E+03  0.00000000000E+00 0. -1.
         23    2    1    2    0    0  0.12944540533E+03 -0.60249868718E+01 -0.83243058671E+02  0.17903265416E+03  0.91273605240E+02 0.  0.
         23    2    1    2    0    0 -0.13727096953E+03 -0.42362796153E+02 -0.46215900355E+03  0.49270204951E+03  0.92338721328E+02 0.  0.
        -11    1    4    4    0    0 -0.23436456491E+02  0.26684846739E+02 -0.13238891309E+03  0.13706995604E+03  0.00000000000E+00 0.  1.
         11    1    4    4    0    0 -0.11383451304E+03 -0.69047642892E+02 -0.32977009045E+03  0.35563209347E+03  0.00000000000E+00 0. -1.
        -13    1    3    3    0    0  0.37326217639E+02  0.36352460037E+02 -0.78832807539E+01  0.52696242650E+02  0.00000000000E+00 0.  1.
         13    1    3    3    0    0  0.92119187687E+02 -0.42377446909E+02 -0.75359777917E+02  0.12633641151E+03  0.00000000000E+00 0. -1.
         -4    1    1    2    0  502  0.78255642066E+01  0.48387783025E+02 -0.13918862168E+03  0.14756723690E+03  0.00000000000E+00 0.  1.
<scales pt_clust_5="13000.00000" pt_clust_6="13000.00000" pt_clust_7="13000.00000" pt_clust_8="13000.00000" pt_clust_9="49.01650"></scales>
<clustering>
<clus scale="   49.016">  2  9  1 -1</clus>
<clus scale="   91.274">  7  8 -1 -1</clus>
<clus scale="   92.339">  5  6 -1 -1</clus>
<clus scale="  159.830">  1  7  2 -1</clus>
<clus scale="   49.016">  2  5  1 -1</clus>
</clustering>
</event>
<event>
 9    1  0.1321469E-005  0.1270939E+03  0.7546771E-02  0.1232832E+00
          3   -1    0    0  502    0 -0.00000000000E+00  0.00000000000E+00  0.30253794298E+03  0.30253794298E+03  0.00000000000E+00 0. -1.
         21   -1    0    0  501  502  0.00000000000E+00 -0.00000000000E+00 -0.82317440462E+02  0.82317440462E+02  0.00000000000E+00 0. -1.
         23    2    1    2    0    0 -0.43110830819E+02  0.76742874142E+02  0.19889453413E+03  0.23589074248E+03  0.91309332569E+02 0.  0.
         23    2    1    2    0    0  0.18154573504E+02 -0.75175677971E+02  0.19506373541E+02  0.12389310713E+03  0.94805233447E+02 0.  0.
        -11    1    3    3    0    0 -0.10880681148E+02 -0.21076831645E+02  0.33408764778E+02  0.40972766790E+02  0.00000000000E+00 0.  1.
         11    1    3    3    0    0 -0.32230149671E+02  0.97819705786E+02  0.16548576936E+03  0.19491797569E+03  0.00000000000E+00 0. -1.
        -13    1    4    4    0    0  0.27463057791E+02  0.15237245707E+02  0.65628940216E+01  0.32085273536E+02  0.00000000000E+00 0.  1.
         13    1    4    4    0    0 -0.93084842870E+01 -0.90412923678E+02  0.12943479519E+02  0.91807833597E+02  0.00000000000E+00 0. -1.
          3    1    1    2  501    0  0.24956257314E+02 -0.15671961708E+01  0.18195948411E+01  0.25071533826E+02  0.00000000000E+00 0. -1.
<scales pt_clust_5="13000.00000" pt_clust_6="13000.00000" pt_clust_7="13000.00000" pt_clust_8="13000.00000" pt_clust_9="25.00542"></scales>
<clustering>
<clus scale="   25.005">  2  9  1 -1</clus>
<clus scale="   91.309">  5  6 -1 -1</clus>
<clus scale="   94.805">  7  8 -1 -1</clus>
<clus scale="  124.508">  1  5  2 -1</clus>
<clus scale="   25.005">  2  5  1 -1</clus>
</clustering>
</event>
<event>
 9    1  0.1321469E-005  0.9494911E+02  0.7546771E-02  0.1299478E+00
         21   -1    0    0  501  502  0.00000000000E+00  0.00000000000E+00  0.21403840960E+03  0.21403840960E+03  0.00000000000E+00 0. -1.
          1   -1    0    0  502    0 -0.00000000000E+00 -0.00000000000E+00 -0.28267497034E+03  0.28267497034E+03  0.00000000000E+00 0. -1.
         23    2    1    2    0    0  0.22851185140E+01 -0.21161525568E+02 -0.23597270183E+03  0.24971157712E+03  0.78865225577E+02 0.  0.
         23    2    1    2    0    0 -0.29892905229E+02  0.11093556776E+02  0.24260207406E+02  0.10093922485E+03  0.92647270139E+02 0.  0.
        -11    1    3    3    0    0  0.14181033292E+02  0.23236144023E+02 -0.39751281015E+02  0.48178672009E+02  0.00000000000E+00 0.  1.
         11    1    3    3    0    0 -0.11895914778E+02 -0.44397669591E+02 -0.19622142082E+03  0.20153290511E+03  0.00000000000E+00 0. -1.
        -13    1    4    4    0    0 -0.34865718364E+02 -0.36135531919E+02  0.86768145176E+01  0.50957650008E+02  0.00000000000E+00 0. -1.
         13    1    4    4    0    0  0.49728131352E+01  0.47229088695E+02  0.15583392889E+02  0.49981574839E+02  0.00000000000E+00 0.  1.
          1    1    1    2  501    0  0.27607786715E+02  0.10067968792E+02  0.14307593369E+03  0.14606257797E+03  0.00000000000E+00 0. -1.
<scales pt_clust_5="13000.00000" pt_clust_6="13000.00000" pt_clust_7="13000.00000" pt_clust_8="13000.00000" pt_clust_9="29.38629"></scales>
<clustering>
<clus scale="   29.386">  1  9  2 -1</clus>
<clus scale="   78.865">  5  6 -1 -1</clus>
<clus scale="   81.557">  2  5  1 -1</clus>
<clus scale="   92.647">  7  8 -1 -1</clus>
<clus scale="   29.386">  1  5  2 -1</clus>
</clustering>
</event>
<event>
 9    1  0.1321469E-005  0.1366907E+03  0.7546771E-02  0.1218683E+00
         21   -1    0    0  501  502  0.00000000000E+00  0.00000000000E+00  0.55749513402E+02  0.55749513402E+02  0.00000000000E+00 0. -1.
          1   -1    0    0  502    0 -0.00000000000E+00 -0.00000000000E+00 -0.57451576395E+03  0.57451576395E+03  0.00000000000E+00 0. -1.
         23    2    1    2    0    0 -0.95662843391E+02 -0.18140854385E+01 -0.37813050939E+03  0.40132120321E+03  0.94452927438E+02 0.  0.
         23    2    1    2    0    0  0.10613720959E+03 -0.16185140978E+02 -0.15037155753E+03  0.20595558530E+03  0.90989184801E+02 0.  0.
        -11    1    3    3    0    0 -0.11220680074E+02 -0.35210678106E+02 -0.17435951151E+03  0.17823281059E+03  0.00000000000E+00 0.  1.
         11    1    3    3    0    0 -0.84442163317E+02  0.33396592668E+02 -0.20377099788E+03  0.22308839262E+03  0.00000000000E+00 0. -1.
        -13    1    4    4    0    0  0.59919768299E+02  0.33932544928E+02 -0.52089971882E+02  0.86343276571E+02  0.00000000000E+00 0.  1.
         13    1    4    4    0    0  0.46217441296E+02 -0.50117685906E+02 -0.98281585652E+02  0.11961230873E+03  0.00000000000E+00 0. -1.
          1    1    1    2  501    0 -0.10474366204E+02  0.17999226416E+02  0.97358163760E+01  0.22988488847E+02  0.00000000000E+00 0. -1.
<scales pt_clust_5="13000.00000" pt_clust_6="13000.00000" pt_clust_7="13000.00000" pt_clust_8="13000.00000" pt_clust_9="20.82509"></scales>
<clustering>
<clus scale="   20.825">  1  9  2 -1</clus>
<clus scale="   90.989">  7  8 -1 -1</clus>
<clus scale="   94.453">  5  6 -1 -1</clus>
<clus scale="  134.321">  1  7  2 -1</clus>
<clus scale="   20.825">  1  5  2 -1</clus>
</clustering>
</event>
<event>
 9    1  0.1321469E-005  0.9400854E+02  0.7546771E-02  0.1294723E+00
         21   -1    0    0  501  502  0.00000000000E+00  0.00000000000E+00  0.44598534132E+03  0.44598534132E+03  0.00000000000E+00 0. -1.
          3   -1    0    0  502    0 -0.00000000000E+00 -0.00000000000E+00 -0.57167195132E+02  0.57167195132E+02  0.00000000000E+00 0. -1.
         23    2    1    2    0    0 -0.13279902060E+02  0.76376416950E+01  0.28671984783E+02  0.96222430124E+02  0.90564805406E+02 0.  0.
         23    2    1    2    0    0  0.22459368824E+02  0.47923729140E+02  0.32106727799E+03  0.33838459102E+03  0.92837639912E+02 0.  0.
        -11    1    3    3    0    0 -0.36484990559E+01 -0.39216500222E+02  0.28104922762E+02  0.48385246909E+02  0.00000000000E+00 0.  1.
         11    1    3    3    0    0 -0.96314030041E+01  0.46854141916E+02  0.56706202027E+00  0.47837183214E+02  0.00000000000E+00 0. -1.
        -13    1    4    4    0    0  0.48732719488E+01 -0.28255683651E+02  0.84296528557E+02  0.89039525857E+02  0.00000000000E+00 0.  1.
         13    1    4    4    0    0  0.17586096875E+02  0.76179412791E+02  0.23677074943E+03  0.24934506517E+03  0.00000000000E+00 0. -1.
          3    1    1    2  501    0 -0.91794667640E+01 -0.55561370835E+02  0.39078883414E+02  0.68545515302E+02  0.00000000000E+00 0. -1.
<scales pt_clust_5="13000.00000" pt_clust_6="13000.00000" pt_clust_7="13000.00000" pt_clust_8="13000.00000" pt_clust_9="56.31458"></scales>
<clustering>
<clus scale="   56.315">  1  9  2 -1</clus>
<clus scale="   90.565">  5  6 -1 -1</clus>
<clus scale="   91.765">  2  5  1 -1</clus>
<clus scale="   92.838">  7  8 -1 -1</clus>
<clus scale="   56.315">  1  5  2 -1</clus>
</clustering>
</event>
<event>
 9    1  0.1321469E-005  0.9193178E+02  0.7546771E-02  0.1305082E+00
         21   -1    0    0  501  502  0.00000000000E+00  0.00000000000E+00  0.47838084507E+02  0.47838084507E+02  0.00000000000E+00 0.  1.
          1   -1    0    0  502    0 -0.00000000000E+00 -0.00000000000E+00 -0.21884903932E+03  0.21884903932E+03  0.00000000000E+00 0. -1.
         23    2    1    2    0    0 -0.69882725456E+01  0.23732853822E+02 -0.91309970080E+02  0.12334074892E+03  0.79141300244E+02 0.  0.
         23    2    1    2    0    0 -0.15229520274E+02 -0.78936716675E+01 -0.61973812005E+02  0.11080774153E+03  0.90240533403E+02 0.  0.
        -13    1    4    4    0    0 -0.99029794005E+01  0.27908072604E+02 -0.67949515501E+02  0.74121968230E+02  0.00000000000E+00 0. -1.
         13    1    4    4    0    0 -0.53265408737E+01 -0.35801744271E+02  0.59757034960E+01  0.36685773303E+02  0.00000000000E+00 0.  1.
        -13    1    3    3    0    0 -0.65281429493E+01  0.49012295894E+02 -0.32080448414E+02  0.58940452744E+02  0.00000000000E+00 0. -1.
         13    1    3    3    0    0 -0.46012959631E+00 -0.25279442073E+02 -0.59229521666E+02  0.64400296175E+02  0.00000000000E+00 0.  1.
          1    1    1    2  501    0  0.22217792820E+02 -0.15839182154E+02 -0.17727172731E+02  0.32538633379E+02  0.00000000000E+00 0. -1.
<scales pt_clust_5="13000.00000" pt_clust_6="13000.00000" pt_clust_7="13000.00000" pt_clust_8="13000.00000" pt_clust_9="27.28571"></scales>
<clustering>
<clus scale="   27.286">  1  9  2 -1</clus>
<clus scale="   79.141">  7  8 -1 -1</clus>
<clus scale="   81.064">  2  7  1 -1</clus>
<clus scale="   90.241">  5  6 -1 -1</clus>
<clus scale="   27.286">  1  5  2 -1</clus>
</clustering>
</event>
<event>
 9    1  0.1321469E-005  0.1290154E+03  0.7546771E-02  0.1251098E+00
         21   -1    0    0  501  502  0.00000000000E+00  0.00000000000E+00  0.15757992917E+03  0.15757992917E+03  0.00000000000E+00 0. -1.
          1   -1    0    0  502    0 -0.00000000000E+00 -0.00000000000E+00 -0.22284842041E+03  0.22284842041E+03  0.00000000000E+00 0. -1.
         23    2    1    2    0    0  0.27051656161E+02  0.34919013216E+02 -0.16750903262E+03  0.21207608760E+03  0.12233503725E+03 0.  0.
         23    2    1    2    0    0 -0.28394016841E+01 -0.38086077476E+02  0.21059290239E+02  0.83578096690E+02  0.71296514933E+02 0.  0.
        -13    1    4    4    0    0  0.94073123658E+01 -0.56267038993E+02  0.23131760497E+02  0.61559366035E+02  0.00000000000E+00 0. -1.
         13    1    4    4    0    0 -0.12246714050E+02  0.18180961516E+02 -0.20724702589E+01  0.22018730655E+02  0.00000000000E+00 0.  1.
        -13    1    3    3    0    0  0.58243754134E+02 -0.10264992495E+02 -0.13710114952E+03  0.14931319488E+03  0.00000000000E+00 0. -1.
         13    1    3    3    0    0 -0.31192097972E+02  0.45184005711E+02 -0.30407883097E+02  0.62762892719E+02  0.00000000000E+00 0.  1.
          1    1    1    2  501    0 -0.24212254477E+02  0.31670642606E+01  0.81181251137E+02  0.84774165281E+02  0.00000000000E+00 0. -1.
<scales pt_clust_5="13000.00000" pt_clust_6="13000.00000" pt_clust_7="13000.00000" pt_clust_8="13000.00000" pt_clust_9="24.41851"></scales>
<clustering>
<clus scale="   24.419">  1  9  2 -1</clus>
<clus scale="   71.297">  5  6 -1 -1</clus>
<clus scale="   82.233">  1  5  2 -1</clus>
<clus scale="  122.335">  7  8 -1 -1</clus>
<clus scale="   24.419">  1  5  2 -1</clus>
</clustering>
</event>
<event>
 9    1  0.1321469E-005  0.2402249E+03  0.7546771E-02  0.1119767E+00
         21   -1    0    0  501  502  0.00000000000E+00  0.00000000000E+00  0.40269468551E+03  0.40269468551E+03  0.00000000000E+00 0. -1.
         -1   -1    0    0    0  501 -0.00000000000E+00 -0.00000000000E+00 -0.35511252590E+03  0.35511252590E+03  0.00000000000E+00 0.  1.
         23    2    1    2    0    0 -0.18992988063E+03 -0.10606349000E+03 -0.21982830705E+03  0.32279948573E+03  0.92478105217E+02 0.  0.
         23    2    1    2    0    0  0.18497661390E+03  0.15667179839E+03  0.13225323574E+03  0.29060131031E+03  0.90530674839E+02 0.  0.
        -13    1    4    4    0    0  0.12686701472E+03  0.48868693857E+02  0.77025458187E+02  0.15625719143E+03  0.00000000000E+00 0.  1.
         13    1    4    4    0    0  0.58109599178E+02  0.10780310453E+03  0.55227777556E+02  0.13434411888E+03  0.00000000000E+00 0. -1.
        -13    1    3    3    0    0 -0.17887938293E+03 -0.60621880182E+02 -0.18598633401E+03  0.26507312658E+03  0.00000000000E+00 0.  1.
         13    1    3    3    0    0 -0.11050497697E+02 -0.45441609822E+02 -0.33841973031E+02  0.57726359155E+02  0.00000000000E+00 0. -1.
         -1    1    1    2    0  502  0.49532667260E+01 -0.50608308388E+02  0.13515723091E+03  0.14440641536E+03  0.00000000000E+00 0.  1.
<scales pt_clust_5="13000.00000" pt_clust_6="13000.00000" pt_clust_7="13000.00000" pt_clust_8="13000.00000" pt_clust_9="50.85013"></scales>
<clustering>
<clus scale="   50.850">  1  9  2 -1</clus>
<clus scale="   90.531">  5  6 -1 -1</clus>
<clus scale="   92.478">  7  8 -1 -1</clus>
<clus scale="  239.482">  1  5  2 -1</clus>
<clus scale="   50.850">  1  5  2 -1</clus>
</clustering>
</event>
<event>
 9    1  0.1321469E-005  0.9385439E+02  0.7546771E-02  0.1294487E+00
         21   -1    0    0  501  502  0.00000000000E+00  0.00000000000E+00  0.64874954472E+02  0.64874954472E+02  0.00000000000E+00 0. -1.
          2   -1    0    0  502    0 -0.00000000000E+00 -0.00000000000E+00 -0.43877663339E+03  0.43877663339E+03  0.00000000000E+00 0. -1.
         23    2    1    2    0    0 -0.16499460628E+01  0.34383723308E+02 -0.27975874726E+03  0.29559007855E+03  0.89014465793E+02 0.  0.
         23    2    1    2    0    0  0.49955259734E+02  0.16971444787E+02 -0.89081433633E+02  0.13737646577E+03  0.90295257992E+02 0.  0.
        -13    1    3    3    0    0  0.42466747494E+02  0.27977742612E+02 -0.15055749225E+03  0.15891424479E+03  0.00000000000E+00 0.  1.
         13    1    3    3    0    0 -0.44116693557E+02  0.64059806962E+01 -0.12920125500E+03  0.13667583376E+03  0.00000000000E+00 0. -1.
        -13    1    4    4    0    0 -0.92012648631E+01 -0.20027797058E+02 -0.55952129251E+02  0.60136650205E+02  0.00000000000E+00 0. -1.
         13    1    4    4    0    0  0.59156524597E+02  0.36999241846E+02 -0.33129304381E+02  0.77239815564E+02  0.00000000000E+00 0.  1.
          2    1    1    2  501    0 -0.48305313671E+02 -0.51355168095E+02 -0.50614980328E+01  0.70685043548E+02  0.00000000000E+00 0. -1.
<scales pt_clust_5="13000.00000" pt_clust_6="13000.00000" pt_clust_7="13000.00000" pt_clust_8="13000.00000" pt_clust_9="70.50359"></scales>
<clustering>
<clus scale="   70.504">  1  9  2 -1</clus>
<clus scale="   89.014">  5  6 -1 -1</clus>
<clus scale="   90.295">  7  8 -1 -1</clus>
<clus scale="   92.623">  2  5  1 -1</clus>
<clus scale="   70.504">  1  5  2 -1</clus>
</clustering>
</event>
<event>
 9    1  0.1321469E-005  0.9152427E+02  0.7546771E-02  0.1307130E+00
         21   -1    0    0  501  502  0.00000000000E+00  0.00000000000E+00  0.17378799811E+03  0.17378799811E+03  0.00000000000E+00 0. -1.
          1   -1    0    0  502    0 -0.00000000000E+00 -0.00000000000E+00 -0.60178894662E+02  0.60178894662E+02  0.00000000000E+00 0. -1.
         23    2    1    2    0    0  0.14035994378E+02 -0.11983198254E+02  0.21562542947E+02  0.83199666067E+02  0.78208918907E+02 0.  0.
         23    2    1    2    0    0 -0.81650988108E+01 -0.11970550481E+02  0.57724194845E+02  0.10850288857E+03  0.90723928714E+02 0.  0.
        -11    1    3    3    0    0  0.75134526962E+01  0.33129163035E+02  0.34270185231E+01  0.34142903666E+02  0.00000000000E+00 0.  1.
         11    1    3    3    0    0  0.65225416813E+01 -0.45112361289E+02  0.18135524424E+02  0.49056762400E+02  0.00000000000E+00 0. -1.
        -13    1    4    4    0    0 -0.21829462694E+02  0.11610658922E+02 -0.16304243841E+02  0.29616907491E+02  0.00000000000E+00 0.  1.
         13    1    4    4    0    0  0.13664363883E+02 -0.23581209403E+02  0.74028438686E+02  0.78885981084E+02  0.00000000000E+00 0. -1.
          1    1    1    2  501    0 -0.58708955667E+01  0.23953748736E+02  0.34322365654E+02  0.42264338127E+02  0.00000000000E+00 0. -1.
<scales pt_clust_5="13000.00000" pt_clust_6="13000.00000" pt_clust_7="13000.00000" pt_clust_8="13000.00000" pt_clust_9="24.66271"></scales>
<clustering>
<clus scale="   24.663">  1  9  2 -1</clus>
<clus scale="   78.209">  5  6 -1 -1</clus>
<clus scale="   79.136">  2  5  1 -1</clus>
<clus scale="   90.724">  7  8 -1 -1</clus>
<clus scale="   24.663">  1  5  2 -1</clus>
</clustering>
</event>
<event>
 9    1  0.1321469E-005  0.7998732E+02  0.7546771E-02  0.1331138E+00
          2   -1    0    0  502    0 -0.00000000000E+00  0.00000000000E+00  0.66101982426E+03  0.66101982426E+03  0.00000000000E+00 0. -1.
         21   -1    0    0  501  502  0.00000000000E+00 -0.00000000000E+00 -0.16622377220E+02  0.16622377220E+02  0.00000000000E+00 0.  1.
         23    2    1    2    0    0  0.19656096817E+02 -0.53031344217E+01  0.38791144855E+03  0.39584941373E+03  0.76203550145E+02 0.  0.
         23    2    1    2    0    0  0.20056618802E+01  0.29347943049E+01  0.24435086287E+03  0.25685080825E+03  0.79071852243E+02 0.  0.
        -11    1    3    3    0    0 -0.19682282857E+02 -0.27365904096E+02  0.17388067529E+03  0.17711796692E+03  0.00000000000E+00 0. -1.
         11    1    3    3    0    0  0.39338379675E+02  0.22062769675E+02  0.21403077326E+03  0.21873144681E+03  0.00000000000E+00 0.  1.
        -11    1    4    4    0    0  0.27370591100E+02 -0.18816753342E+02  0.19124114206E+03  0.19410408002E+03  0.00000000000E+00 0. -1.
         11    1    4    4    0    0 -0.25364929220E+02  0.21751547647E+02  0.53109720808E+02  0.62746728231E+02  0.00000000000E+00 0.  1.
          2    1    1    2  501    0 -0.21661758698E+02  0.23683401168E+01  0.12135135615E+02  0.24941979496E+02  0.00000000000E+00 0. -1.
<scales pt_clust_5="13000.00000" pt_clust_6="13000.00000" pt_clust_7="13000.00000" pt_clust_8="13000.00000" pt_clust_9="21.79084"></scales>
<clustering>
<clus scale="   21.791">  2  9  1 -1</clus>
<clus scale="   76.204">  5  6 -1 -1</clus>
<clus scale="   77.153">  1  5  2 -1</clus>
<clus scale="   79.072">  7  8 -1 -1</clus>
<clus scale="   21.791">  2  5  1 -1</clus>
</clustering>
</event>
<event>
 9    1  0.1321469E-005  0.1062640E+03  0.7546771E-02  0.1268327E+00
         21   -1    0    0  501  502  0.00000000000E+00  0.00000000000E+00  0.37240761633E+02  0.37240761633E+02  0.00000000000E+00 0. -1.
          2   -1    0    0  502    0 -0.00000000000E+00 -0.00000000000E+00 -0.97485791517E+03  0.97485791517E+03  0.00000000000E+00 0.  1.
         23    2    1    2    0    0 -0.64003892979E+02 -0.25279320046E+02 -0.47433006776E+03  0.48825361004E+03  0.93096896785E+02 0.  0.
         23    2    1    2    0    0 -0.26024451401E+02  0.25785241347E+02 -0.71306802162E+02  0.12165866535E+03  0.91509672040E+02 0.  0.
        -13    1    3    3    0    0 -0.31187384542E+02  0.32004991300E+02 -0.12518972447E+03  0.13292644408E+03  0.00000000000E+00 0. -1.
         13    1    3    3    0    0 -0.32816508436E+02 -0.57284311346E+02 -0.34914034329E+03  0.35532716595E+03  0.00000000000E+00 0.  1.
        -13    1    4    4    0    0  0.23828865924E+02  0.82939083178E+01 -0.63401847873E+02  0.68237805358E+02  0.00000000000E+00 0.  1.
         13    1    4    4    0    0 -0.49853317325E+02  0.17491333029E+02 -0.79049542888E+01  0.53420859987E+02  0.00000000000E+00 0. -1.
          2    1    1    2  501    0  0.90028344380E+02 -0.50592130109E+00 -0.39198028361E+03  0.40218640142E+03  0.00000000000E+00 0.  1.
<scales pt_clust_5="13000.00000" pt_clust_6="13000.00000" pt_clust_7="13000.00000" pt_clust_8="13000.00000" pt_clust_9="90.02981"></scales>
<clustering>
<clus scale="   90.030">  1  9  2 -1</clus>
<clus scale="   91.510">  7  8 -1 -1</clus>
<clus scale="   93.097">  5  6 -1 -1</clus>
<clus scale="  104.876">  1  7  2 -1</clus>
<clus scale="   90.030">  1  5  2 -1</clus>
</clustering>
</event>
<event>
 9    1  0.1321469E-005  0.1268305E+03  0.7546771E-02  0.1232800E+00
          2   -1    0    0  502    0 -0.00000000000E+00  0.00000000000E+00  0.44994788141E+03  0.44994788141E+03  0.00000000000E+00 0. -1.
         21   -1    0    0  501  502  0.00000000000E+00 -0.00000000000E+00 -0.61806527407E+02  0.61806527407E+02  0.00000000000E+00 0.  1.
         23    2    1    2    0    0 -0.74301755315E+02  0.21651924050E+02  0.23423206883E+03  0.26217524307E+03  0.88778597380E+02 0.  0.
         23    2    1    2    0    0  0.10805952831E+03 -0.22382647213E+02  0.16077629431E+03  0.21512227953E+03  0.90833549880E+02 0.  0.
        -13    1    4    4    0    0  0.48035441844E+02  0.22087163708E+02  0.21495202545E+02  0.57072674778E+02  0.00000000000E+00 0.  1.
         13    1    4    4    0    0  0.60024086462E+02 -0.44469810921E+02  0.13928109176E+03  0.15804960475E+03  0.00000000000E+00 0. -1.
        -13    1    3    3    0    0 -0.24193688363E+02 -0.34731596450E+02  0.86337890813E+02  0.96155341706E+02  0.00000000000E+00 0. -1.
         13    1    3    3    0    0 -0.50108066952E+02  0.56383520500E+02  0.14789417802E+03  0.16601990137E+03  0.00000000000E+00 0.  1.
          2    1    1    2  501    0 -0.33757772991E+02  0.73072316317E+00 -0.68670091326E+01  0.34456886222E+02  0.00000000000E+00 0. -1.
<scales pt_clust_5="13000.00000" pt_clust_6="13000.00000" pt_clust_7="13000.00000" pt_clust_8="13000.00000" pt_clust_9="33.76568"></scales>
<clustering>
<clus scale="   33.766">  2  9  1 -1</clus>
<clus scale="   88.779">  7  8 -1 -1</clus>
<clus scale="   90.834">  5  6 -1 -1</clus>
<clus scale="  125.367">  1  7  2 -1</clus>
<clus scale="   33.766">  2  5  1 -1</clus>
</clustering>
</event>
<event>
 9    1  0.1321469E-005  0.1007525E+03  0.7546771E-02  0.1280082E+00
         21   -1    0    0  501  502  0.00000000000E+00  0.00000000000E+00  0.86013567186E+03  0.86013567186E+03  0.00000000000E+00 0. -1.
         -2   -1    0    0    0  501 -0.00000000000E+00 -0.00000000000E+00 -0.33801908971E+02  0.33801908971E+02  0.00000000000E+00 0.  1.
         23    2    1    2    0    0 -0.55407369099E+02  0.29295361987E+02  0.14194998084E+03  0.18015974720E+03  0.91539841949E+02 0.  0.
         23    2    1    2    0    0 -0.41113730221E+02 -0.79999823059E+01  0.37913695440E+03  0.39292671302E+03  0.94298637778E+02 0.  0.
        -11    1    4    4    0    0  0.34111721132E+01 -0.38351003863E+02  0.77757385476E+02  0.86767773906E+02  0.00000000000E+00 0.  1.
         11    1    4    4    0    0 -0.44524902335E+02  0.30351021557E+02  0.30137956892E+03  0.30615893912E+03  0.00000000000E+00 0. -1.
        -13    1    3    3    0    0 -0.42390978203E+02 -0.15404431075E+02  0.19463080564E+02  0.49123345110E+02  0.00000000000E+00 0.  1.
         13    1    3    3    0    0 -0.13016390895E+02  0.44699793062E+02  0.12248690028E+03  0.13103640209E+03  0.00000000000E+00 0. -1.
         -2    1    1    2    0  502  0.96521099320E+02 -0.21295379681E+02  0.30524682765E+03  0.32085112061E+03  0.00000000000E+00 0.  1.
<scales pt_clust_5="13000.00000" pt_clust_6="13000.00000" pt_clust_7="13000.00000" pt_clust_8="13000.00000" pt_clust_9="98.84238"></scales>
<clustering>
<clus scale="   91.540">  7  8 -1 -1</clus>
<clus scale="   94.299">  5  6 -1 -1</clus>
<clus scale="   98.842">  1  9  2 -1</clus>
<clus scale="   98.175">  2  7  1 -1</clus>
<clus scale="   98.842">  1  5  2 -1</clus>
</clustering>
</event>
<event>
 9    1  0.1321469E-005  0.1796800E+03  0.7546771E-02  0.1168415E+00
         21   -1    0    0  501  502  0.00000000000E+00  0.00000000000E+00  0.58398484892E+02  0.58398484892E+02  0.00000000000E+00 0. -1.
          2   -1    0    0  502    0 -0.00000000000E+00 -0.00000000000E+00 -0.66239725605E+03  0.66239725605E+03  0.00000000000E+00 0. -1.
         23    2    1    2    0    0  0.17589846019E+02  0.14880661376E+03 -0.31111152991E+03  0.35663548260E+03  0.89138501371E+02 0.  0.
         23    2    1    2    0    0 -0.18879014179E+01 -0.16222362446E+03 -0.21941828204E+03  0.28784345018E+03  0.91593672347E+02 0.  0.
        -11    1    3    3    0    0  0.45537034961E+02  0.84737489738E+02 -0.12431184913E+03  0.15718619391E+03  0.00000000000E+00 0. -1.
         11    1    3    3    0    0 -0.27947188942E+02  0.64069124024E+02 -0.18679968078E+03  0.19944928870E+03  0.00000000000E+00 0.  1.
        -13    1    4    4    0    0 -0.36356586763E+02 -0.11155153430E+03 -0.18038500312E+03  0.21518432926E+03  0.00000000000E+00 0. -1.
         13    1    4    4    0    0  0.34468685346E+02 -0.50672090156E+02 -0.39033278916E+02  0.72659120922E+02  0.00000000000E+00 0.  1.
          2    1    1    2  501    0 -0.15701944601E+02  0.13417010696E+02 -0.73468959208E+02  0.76316808158E+02  0.00000000000E+00 0. -1.
<scales pt_clust_5="13000.00000" pt_clust_6="13000.00000" pt_clust_7="13000.00000" pt_clust_8="13000.00000" pt_clust_9="20.65351"></scales>
<clustering>
<clus scale="   20.654">  1  9  2 -1</clus>
<clus scale="   89.139">  5  6 -1 -1</clus>
<clus scale="   91.594">  7  8 -1 -1</clus>
<clus scale="  178.441">  2  5  1 -1</clus>
<clus scale="   20.654">  1  5  2 -1</clus>
</clustering>
</event>
<event>
 9    1  0.1321469E-005  0.1011951E+03  0.7546771E-02  0.1278058E+00
         21   -1    0    0  501  502  0.00000000000E+00  0.00000000000E+00  0.26952947481E+03  0.26952947481E+03  0.00000000000E+00 0.  1.
          3   -1    0    0  502    0 -0.00000000000E+00 -0.00000000000E+00 -0.84802934010E+02  0.84802934010E+02  0.00000000000E+00 0. -1.
         23    2    1    2    0    0 -0.43679527429E+02  0.74089740408E+01 -0.14376912929E+02  0.10236340842E+03  0.91152497195E+02 0.  0.
         23    2    1    2    0    0  0.30854494647E+02 -0.34758823530E+02  0.83372978938E+02  0.13236114728E+03  0.91696477793E+02 0.  0.
        -11    1    4    4    0    0  0.37691133254E+02 -0.58176321421E+02  0.82764311802E+02  0.10795849762E+03  0.00000000000E+00 0.  1.
         11    1    4    4    0    0 -0.68366386070E+01  0.23417497891E+02  0.60866713631E+00  0.24402649663E+02  0.00000000000E+00 0. -1.
        -11    1    3    3    0    0  0.25917329832E+02 -0.11727670275E+02 -0.96087154812E+01  0.30026216027E+02  0.00000000000E+00 0.  1.
         11    1    3    3    0    0 -0.69596857260E+02  0.19136644315E+02 -0.47681974473E+01  0.72337192391E+02  0.00000000000E+00 0. -1.
          3    1    1    2  501    0  0.12825032782E+02  0.27349849489E+02  0.11573047479E+03  0.11960785312E+03  0.00000000000E+00 0. -1.
<scales pt_clust_5="13000.00000" pt_clust_6="13000.00000" pt_clust_7="13000.00000" pt_clust_8="13000.00000" pt_clust_9="30.20754"></scales>
<clustering>
<clus scale="   30.208">  1  9  2 -1</clus>
<clus scale="   91.152">  7  8 -1 -1</clus>
<clus scale="   91.696">  5  6 -1 -1</clus>
<clus scale="  100.702">  2  7  1 -1</clus>
<clus scale="   30.208">  1  5  2 -1</clus>
</clustering>
</event>
<event>
 9    1  0.1321469E-005  0.9706817E+02  0.7546771E-02  0.1287676E+00
          1   -1    0    0  502    0 -0.00000000000E+00  0.00000000000E+00  0.16871874166E+03  0.16871874166E+03  0.00000000000E+00 0. -1.
         21   -1    0    0  501  502  0.00000000000E+00 -0.00000000000E+00 -0.86235696484E+02  0.86235696484E+02  0.00000000000E+00 0.  1.
         23    2    1    2    0    0 -0.59629976301E+01  0.40890880810E+02  0.65640768666E+02  0.12090592963E+03  0.92746492297E+02 0.  0.
         23    2    1    2    0    0  0.63672983519E+01 -0.13613901449E+02  0.38063300600E+02  0.99486550732E+02  0.90680086696E+02 0.  0.
        -13    1    4    4    0    0 -0.11078266624E+02 -0.47752898830E+02  0.36498618809E+02  0.61116417704E+02  0.00000000000E+00 0. -1.
         13    1    4    4    0    0  0.17445564976E+02  0.34138997381E+02  0.15646817912E+01  0.38370133028E+02  0.00000000000E+00 0.  1.
        -13    1    3    3    0    0  0.24177082641E+02  0.58811561441E+02  0.55506377044E+02  0.84405503237E+02  0.00000000000E+00 0.  1.
         13    1    3    3    0    0 -0.30140080271E+02 -0.17920680631E+02  0.10134391622E+02  0.36500426389E+02  0.00000000000E+00 0. -1.
          1    1    1    2  501    0 -0.40430072183E+00 -0.27276979361E+02 -0.21221024093E+02  0.34561957782E+02  0.00000000000E+00 0. -1.
<scales pt_clust_5="13000.00000" pt_clust_6="13000.00000" pt_clust_7="13000.00000" pt_clust_8="13000.00000" pt_clust_9="27.27998"></scales>
<clustering>
<clus scale="   27.280">  2  9  1 -1</clus>
<clus scale="   90.680">  5  6 -1 -1</clus>
<clus scale="   92.746">  7  8 -1 -1</clus>
<clus scale="   95.096">  2  5  1 -1</clus>
<clus scale="   27.280">  2  5  1 -1</clus>
</clustering>
</event>
<event>
 9    1  0.1321469E-005  0.9706255E+02  0.7546771E-02  0.1291889E+00
         21   -1    0    0  501  502  0.00000000000E+00  0.00000000000E+00  0.64326439617E+03  0.64326439617E+03  0.00000000000E+00 0.  1.
         -1   -1    0    0    0  501 -0.00000000000E+00 -0.00000000000E+00 -0.66963363424E+02  0.66963363424E+02  0.00000000000E+00 0.  1.
         23    2    1    2    0    0 -0.19410273083E+02 -0.17453703798E+02  0.44236285526E+01  0.85775068145E+02  0.81586784152E+02 0.  0.
         23    2    1    2    0    0  0.82443479357E+02 -0.34110600414E+02  0.16062708158E+03  0.20521661188E+03  0.91391127061E+02 0.  0.
        -11    1    3    3    0    0  0.29164880973E+02 -0.64298566585E+01 -0.13584173129E+02  0.32809497076E+02  0.00000000000E+00 0.  1.
         11    1    3    3    0    0 -0.48575154055E+02 -0.11023847140E+02  0.18007801681E+02  0.52965571069E+02  0.00000000000E+00 0. -1.
        -13    1    4    4    0    0  0.97330618958E+02 -0.84384904668E+01  0.12938873986E+03  0.16212928024E+03  0.00000000000E+00 0.  1.
         13    1    4    4    0    0 -0.14887139600E+02 -0.25672109947E+02  0.31238341720E+02  0.43087331642E+02  0.00000000000E+00 0. -1.
         -1    1    1    2    0  502 -0.63033206275E+02  0.51564304212E+02  0.41125032262E+03  0.41923607957E+03  0.00000000000E+00 0.  1.
<scales pt_clust_5="13000.00000" pt_clust_6="13000.00000" pt_clust_7="13000.00000" pt_clust_8="13000.00000" pt_clust_9="81.43748"></scales>
<clustering>
<clus scale="   81.437">  1  9  2 -1</clus>
<clus scale="   81.587">  5  6 -1 -1</clus>
<clus scale="   87.893">  2  5  1 -1</clus>
<clus scale="   91.391">  7  8 -1 -1</clus>
<clus scale="   81.437">  1  5  2 -1</clus>
</clustering>
</event>
<event>
 9    1  0.1321469E-005  0.1513904E+03  0.7546771E-02  0.1204263E+00
          1   -1    0    0  502    0 -0.00000000000E+00  0.00000000000E+00  0.11087909265E+04  0.11087909265E+04  0.00000000000E+00 0. -1.
         21   -1    0    0  501  502  0.00000000000E+00 -0.00000000000E+00 -0.74261057419E+02  0.74261057419E+02  0.00000000000E+00 0. -1.
         23    2    1    2    0    0  0.11513724990E+03  0.38685686993E+02  0.70377158973E+03  0.71997996437E+03  0.91233381509E+02 0.  0.
         23    2    1    2    0    0 -0.68178650511E+02 -0.97509059590E+00  0.36854046959E+03  0.39197565509E+03  0.11477611803E+03 0.  0.
        -11    1    4    4    0    0 -0.63612678107E+01 -0.47063446933E+02  0.77497084007E+02  0.90891318590E+02  0.00000000000E+00 0.  1.
         11    1    4    4    0    0 -0.61817382700E+02  0.46088356337E+02  0.29104338558E+03  0.30108433650E+03  0.00000000000E+00 0. -1.
        -13    1    3    3    0    0  0.19603360184E+02  0.49170593998E+02  0.18701291928E+03  0.19436015801E+03  0.00000000000E+00 0.  1.
         13    1    3    3    0    0  0.95533889720E+02 -0.10484907005E+02  0.51675867045E+03  0.52561980637E+03  0.00000000000E+00 0. -1.
          1    1    1    2  501    0 -0.46958599394E+02 -0.37710596397E+02 -0.37782190245E+02  0.71096364445E+02  0.00000000000E+00 0. -1.
<scales pt_clust_5="13000.00000" pt_clust_6="13000.00000" pt_clust_7="13000.00000" pt_clust_8="13000.00000" pt_clust_9="60.22623"></scales>
<clustering>
<clus scale="   60.226">  2  9  1 -1</clus>
<clus scale="   91.233">  7  8 -1 -1</clus>
<clus scale="  114.776">  5  6 -1 -1</clus>
<clus scale="  134.421">  1  7  2 -1</clus>
<clus scale="   60.226">  2  5  1 -1</clus>
</clustering>
</event>
<event>
 9    1  0.2863862E-005  0.9822534E+02  0.7546771E-02  0.1284467E+00
         21   -1    0    0  501  502  0.00000000000E+00  0.00000000000E+00  0.13320229282E+03  0.13320229282E+03  0.00000000000E+00 0.  1.
         -1   -1    0    0    0  501 -0.00000000000E+00 -0.00000000000E+00 -0.47649795161E+03  0.47649795161E+03  0.00000000000E+00 0.  1.
         23    2    1    2    0    0  0.24480286532E+02 -0.28591457645E+02 -0.42813224306E+03  0.43924496768E+03  0.90676172196E+02 0.  0.
         23    2    1    2    0    0  0.18830736624E+02  0.17874390304E+02  0.82331814411E+02  0.12576776024E+03  0.91459889467E+02 0.  0.
        -11    1    4    4    0    0  0.51114542943E+02  0.90167723387E+01  0.75469138488E+02  0.91594702619E+02  0.00000000000E+00 0.  1.
         11    1    4    4    0    0 -0.32283806319E+02  0.88576179654E+01  0.68626759226E+01  0.34173057622E+02  0.00000000000E+00 0. -1.
        -13    1    3    3    0    0 -0.69505680586E+01  0.29706662177E+02 -0.10243553539E+03  0.10688234225E+03  0.00000000000E+00 0. -1.
         13    1    3    3    0    0  0.31430854590E+02 -0.58298119822E+02 -0.32569670767E+03  0.33236262543E+03  0.00000000000E+00 0.  1.
         -1    1    1    2    0  502 -0.43311023156E+02  0.10717067341E+02  0.25047698577E+01  0.44687516503E+02  0.00000000000E+00 0.  1.
<scales pt_clust_5="13000.00000" pt_clust_6="13000.00000" pt_clust_7="13000.00000" pt_clust_8="13000.00000" pt_clust_9="44.61726"></scales>
<clustering>
<clus scale="   44.617">  1  9  2 -1</clus>
<clus scale="   90.676">  7  8 -1 -1</clus>
<clus scale="   91.460">  5  6 -1 -1</clus>
<clus scale="   97.496">  2  7  1 -1</clus>
<clus scale="   44.617">  1  5  2 -1</clus>
</clustering>
</event>
<event>
 9    1  0.1321469E-005  0.1376411E+03  0.7546771E-02  0.1223203E+00
         21   -1    0    0  501  502  0.00000000000E+00  0.00000000000E+00  0.38221410239E+03  0.38221410239E+03  0.00000000000E+00 0. -1.
         -1   -1    0    0    0  501 -0.00000000000E+00 -0.00000000000E+00 -0.10959723339E+03  0.10959723339E+03  0.00000000000E+00 0.  1.
         23    2    1    2    0    0  0.75832965121E+02  0.33630507600E+02  0.12634467702E+02  0.12032844862E+03  0.86241846756E+02 0.  0.
         23    2    1    2    0    0  0.58375549623E+02 -0.62083585548E+02  0.14889006834E+03  0.19495240957E+03  0.92607306192E+02 0.  0.
        -11    1    3    3    0    0  0.13620133312E+02  0.44248471083E+02 -0.18619687884E+02  0.49901182366E+02  0.00000000000E+00 0.  1.
         11    1    3    3    0    0  0.62212831809E+02 -0.10617963483E+02  0.31254155586E+02  0.70427266251E+02  0.00000000000E+00 0. -1.
        -13    1    4    4    0    0  0.50975951016E+02  0.82687380603E+01  0.85918909326E+02  0.10024459382E+03  0.00000000000E+00 0. -1.
         13    1    4    4    0    0  0.73995986069E+01 -0.70352323608E+02  0.62971159015E+02  0.94707815751E+02  0.00000000000E+00 0.  1.
         -1    1    1    2    0  502 -0.13420851474E+03  0.28453077948E+02  0.11109233296E+03  0.17653047758E+03  0.00000000000E+00 0.  1.
<scales pt_clust_5="13000.00000" pt_clust_6="13000.00000" pt_clust_7="13000.00000" pt_clust_8="13000.00000" pt_clust_9="101.82819"></scales>
<clustering>
<clus scale="   86.242">  5  6 -1 -1</clus>
<clus scale="   92.607">  7  8 -1 -1</clus>
<clus scale="  119.663">  2  5  1 -1</clus>
<clus scale="  101.828">  1  9  2 -1</clus>
<clus scale="  101.828">  1  5  2 -1</clus>
</clustering>
</event>
<event>
 9    1  0.1321469E-005  0.1231750E+03  0.7546771E-02  0.1244445E+00
         21   -1    0    0  501  502  0.00000000000E+00  0.00000000000E+00  0.12578383555E+03  0.12578383555E+03  0.00000000000E+00 0.  1.
          1   -1    0    0  502    0 -0.00000000000E+00 -0.00000000000E+00 -0.15151849227E+03  0.15151849227E+03  0.00000000000E+00 0. -1.
         23    2    1    2    0    0  0.22372097862E+02  0.61230831637E+02 -0.45938449659E+02  0.13812990372E+03  0.11278210691E+03 0.  0.
         23    2    1    2    0    0 -0.20120603636E+01 -0.30308516841E+02  0.15998806023E+02  0.10191114938E+03  0.95954499598E+02 0.  0.
        -11    1    3    3    0    0  0.29631490434E+02  0.18748369101E+00 -0.66909780441E+02  0.73177722663E+02  0.00000000000E+00 0. -1.
         11    1    3    3    0    0 -0.72593925722E+01  0.61043347946E+02  0.20971330783E+02  0.64952181055E+02  0.00000000000E+00 0.  1.
        -13    1    4    4    0    0 -0.15399340287E+02 -0.63241168634E+02  0.97034011659E+01  0.65808366380E+02  0.00000000000E+00 0.  1.
         13    1    4    4    0    0  0.13387279923E+02  0.32932651792E+02  0.62954048570E+01  0.36102782997E+02  0.00000000000E+00 0. -1.
          1    1    1    2  501    0 -0.20360037498E+02 -0.30922314796E+02  0.42049869148E+01  0.37261274726E+02  0.00000000000E+00 0. -1.
<scales pt_clust_5="13000.00000" pt_clust_6="13000.00000" pt_clust_7="13000.00000" pt_clust_8="13000.00000" pt_clust_9="37.02325"></scales>
<clustering>
<clus scale="   37.023">  1  9  2 -1</clus>
<clus scale="   95.954">  7  8 -1 -1</clus>
<clus scale="  107.979">  1  7  2 -1</clus>
<clus scale="  112.782">  5  6 -1 -1</clus>
<clus scale="   37.023">  1  5  2 -1</clus>
</clustering>
</event>
<event>
 9    1  0.1321469E-005  0.9626356E+02  0.7546771E-02  0.1290577E+00
          3   -1    0    0  502    0 -0.00000000000E+00  0.00000000000E+00  0.40688510265E+03  0.40688510265E+03  0.00000000000E+00 0. -1.
         21   -1    0    0  501  502  0.00000000000E+00 -0.00000000000E+00 -0.21176057189E+03  0.21176057189E+03  0.00000000000E+00 0.  1.
         23    2    1    2    0    0 -0.30709891497E+02 -0.17018352732E+02  0.36678777190E+03  0.37915405602E+03  0.89396906069E+02 0.  0.
         23    2    1    2    0    0  0.22334006509E+02  0.64843265223E+02 -0.15169660225E+03  0.18699357691E+03  0.85154458371E+02 0.  0.
        -11    1    3    3    0    0  0.24985244779E+02  0.10698243904E+02  0.56576766656E+02  0.62766594655E+02  0.00000000000E+00 0.  1.
         11    1    3    3    0    0 -0.55695136276E+02 -0.27716596636E+02  0.31021100525E+03  0.31638746137E+03  0.00000000000E+00 0. -1.
        -13    1    4    4    0    0 -0.19205348600E+02  0.21719260330E+02 -0.11068326544E+03  0.11441746777E+03  0.00000000000E+00 0. -1.
         13    1    4    4    0    0  0.41539355110E+02  0.43124004893E+02 -0.41013336813E+02  0.72576109137E+02  0.00000000000E+00 0.  1.
          3    1    1    2  501    0  0.83758849876E+01 -0.47824912491E+02 -0.19966638891E+02  0.52498041609E+02  0.00000000000E+00 0. -1.
<scales pt_clust_5="13000.00000" pt_clust_6="13000.00000" pt_clust_7="13000.00000" pt_clust_8="13000.00000" pt_clust_9="48.55283"></scales>
<clustering>
<clus scale="   48.553">  2  9  1 -1</clus>
<clus scale="   85.154">  7  8 -1 -1</clus>
<clus scale="   89.397">  5  6 -1 -1</clus>
<clus scale="   92.337">  2  7  1 -1</clus>
<clus scale="   48.553">  2  5  1 -1</clus>
</clustering>
</event>
<event>
 9    1  0.1321469E-005  0.3214819E+03  0.7546771E-02  0.1075539E+00
          1   -1    0    0  502    0 -0.00000000000E+00  0.00000000000E+00  0.18974369174E+04  0.18974369174E+04  0.00000000000E+00 0. -1.
         21   -1    0    0  501  502  0.00000000000E+00 -0.00000000000E+00 -0.91795492094E+02  0.91795492094E+02  0.00000000000E+00 0. -1.
         23    2    1    2    0    0  0.34280956935E+02 -0.32120127118E+03  0.13221401959E+04  0.13640376897E+04  0.90546566351E+02 0.  0.
         23    2    1    2    0    0 -0.52756062397E+02  0.26170666181E+03  0.48396873536E+03  0.56289579018E+03  0.10654743002E+03 0.  0.
        -11    1    4    4    0    0  0.29236252167E+02  0.44525161983E+02  0.11865459944E+03  0.13006214845E+03  0.00000000000E+00 0. -1.
         11    1    4    4    0    0 -0.81992314564E+02  0.21718149983E+03  0.36531413592E+03  0.43283364173E+03  0.00000000000E+00 0.  1.
        -13    1    3    3    0    0 -0.21919525205E+02 -0.78063340273E+02  0.43376739512E+03  0.44128052727E+03  0.00000000000E+00 0.  1.
         13    1    3    3    0    0  0.56200482140E+02 -0.24313793091E+03  0.88837280081E+03  0.92275716245E+03  0.00000000000E+00 0. -1.
          1    1    1    2  501    0  0.18475105462E+02  0.59494609369E+02 -0.46750598386E+00  0.62298929586E+02  0.00000000000E+00 0. -1.
<scales pt_clust_5="13000.00000" pt_clust_6="13000.00000" pt_clust_7="13000.00000" pt_clust_8="13000.00000" pt_clust_9="62.29718"></scales>
<clustering>
<clus scale="   62.297">  2  9  1 -1</clus>
<clus scale="   90.547">  7  8 -1 -1</clus>
<clus scale="  106.547">  5  6 -1 -1</clus>
<clus scale="  316.539">  1  7  2 -1</clus>
<clus scale="   62.297">  2  5  1 -1</clus>
</clustering>
</event>
<event>
 9    1  0.1321469E-005  0.1734878E+03  0.7546771E-02  0.1175255E+00
          2   -1    0    0  502    0 -0.00000000000E+00  0.00000000000E+00  0.99677245633E+03  0.99677245633E+03  0.00000000000E+00 0. -1.
         21   -1    0    0  501  502  0.00000000000E+00 -0.00000000000E+00 -0.78634582877E+02  0.78634582877E+02  0.00000000000E+00 0.  1.
         23    2    1    2    0    0 -0.61339635591E+02 -0.12952582765E+03  0.65844209591E+03  0.68090411013E+03  0.97698119732E+02 0.  0.
         23    2    1    2    0    0  0.34607686488E+02  0.14125795608E+03  0.29954822990E+03  0.34510193822E+03  0.90635002113E+02 0.  0.
        -13    1    3    3    0    0 -0.43959266158E+02 -0.18127883215E+01  0.19248097653E+03  0.19744525725E+03  0.00000000000E+00 0.  1.
         13    1    3    3    0    0 -0.17380369433E+02 -0.12771303933E+03  0.46596111937E+03  0.48345885288E+03  0.00000000000E+00 0. -1.
        -13    1    4    4    0    0  0.56275694980E+02  0.46189367782E+02  0.14723603364E+03  0.16425243116E+03  0.00000000000E+00 0.  1.
         13    1    4    4    0    0 -0.21668008491E+02  0.95068588301E+02  0.15231219626E+03  0.18084950706E+03  0.00000000000E+00 0. -1.
          2    1    1    2  501    0  0.26731949103E+02 -0.11732128429E+02 -0.39852452348E+02  0.49400990865E+02  0.00000000000E+00 0. -1.
<scales pt_clust_5="13000.00000" pt_clust_6="13000.00000" pt_clust_7="13000.00000" pt_clust_8="13000.00000" pt_clust_9="29.19315"></scales>
<clustering>
<clus scale="   29.193">  2  9  1 -1</clus>
<clus scale="   90.635">  7  8 -1 -1</clus>
<clus scale="   97.698">  5  6 -1 -1</clus>
<clus scale="  169.611">  2  7  1 -1</clus>
<clus scale="   29.193">  2  5  1 -1</clus>
</clustering>
</event>
<event>
 9    1  0.1321469E-005  0.1933131E+03  0.7546771E-02  0.1155573E+00
          1   -1    0    0  502    0 -0.00000000000E+00  0.00000000000E+00  0.11643022254E+04  0.11643022254E+04  0.00000000000E+00 0. -1.
         21   -1    0    0  501  502  0.00000000000E+00 -0.00000000000E+00 -0.14205297754E+03  0.14205297754E+03  0.00000000000E+00 0.  1.
         23    2    1    2    0    0 -0.13928484859E+03 -0.71429375253E+02  0.76107911179E+03  0.78232493389E+03  0.91040996740E+02 0.  0.
         23    2    1    2    0    0  0.17295018502E+03  0.21092157117E+03  0.24809180182E+03  0.37993838712E+03  0.91673115984E+02 0.  0.
        -13    1    3    3    0    0 -0.12042703078E+03 -0.86463007639E+02  0.71613282272E+03  0.73131712766E+03  0.00000000000E+00 0. -1.
         13    1    3    3    0    0 -0.18857817806E+02  0.15033632386E+02  0.44946289069E+02  0.51007806228E+02  0.00000000000E+00 0.  1.
        -13    1    4    4    0    0  0.75345454591E+02  0.64743433338E+02  0.38849671288E+02  0.10666745824E+03  0.00000000000E+00 0. -1.
         13    1    4    4    0    0  0.97604730431E+02  0.14617813783E+03  0.20924213054E+03  0.27327092889E+03  0.00000000000E+00 0.  1.
          1    1    1    2  501    0 -0.33665336435E+02 -0.13949219592E+03  0.13078334206E+02  0.14409188188E+03  0.00000000000E+00 0. -1.
<scales pt_clust_5="13000.00000" pt_clust_6="13000.00000" pt_clust_7="13000.00000" pt_clust_8="13000.00000" pt_clust_9="143.49713"></scales>
<clustering>
<clus scale="   91.041">  5  6 -1 -1</clus>
<clus scale="   91.673">  7  8 -1 -1</clus>
<clus scale="  143.497">  2  9  1 -1</clus>
<clus scale="  193.014">  1  5  2 -1</clus>
<clus scale="  143.497">  2  5  1 -1</clus>
</clustering>
</event>
<event>
 9    1  0.1321469E-005  0.9391488E+02  0.7546771E-02  0.1293759E+00
          3   -1    0    0  502    0 -0.00000000000E+00  0.00000000000E+00  0.25060331955E+03  0.25060331955E+03  0.00000000000E+00 0. -1.
         21   -1    0    0  501  502  0.00000000000E+00 -0.00000000000E+00 -0.16240962464E+03  0.16240962464E+03  0.00000000000E+00 0. -1.
         23    2    1    2    0    0  0.16257866742E+02 -0.19708525001E+02  0.20554381718E+03  0.22621457806E+03  0.90950702891E+02 0.  0.
         23    2    1    2    0    0 -0.74460378791E+01 -0.63404655105E+00 -0.29375812837E+02  0.96073795770E+02  0.91166827074E+02 0.  0.
        -13    1    4    4    0    0 -0.47016950538E+02 -0.38034754589E+01 -0.30825756513E+02  0.56349687915E+02  0.00000000000E+00 0.  1.
         13    1    4    4    0    0  0.39570912659E+02  0.31694289078E+01  0.14499436766E+01  0.39724107856E+02  0.00000000000E+00 0. -1.
        -13    1    3    3    0    0 -0.11344231239E+02 -0.33272713202E+02  0.25164397638E+02  0.43232070673E+02  0.00000000000E+00 0. -1.
         13    1    3    3    0    0  0.27602097982E+02  0.13564188201E+02  0.18037941955E+03  0.18298250739E+03  0.00000000000E+00 0.  1.
          3    1    1    2  501    0 -0.88118288630E+01  0.20342571552E+02 -0.87974309438E+02  0.90724570357E+02  0.00000000000E+00 0. -1.
<scales pt_clust_5="13000.00000" pt_clust_6="13000.00000" pt_clust_7="13000.00000" pt_clust_8="13000.00000" pt_clust_9="22.16909"></scales>
<clustering>
<clus scale="   22.169">  2  9  1 -1</clus>
<clus scale="   90.951">  7  8 -1 -1</clus>
<clus scale="   91.167">  5  6 -1 -1</clus>
<clus scale="   93.705">  1  7  2 -1</clus>
<clus scale="   22.169">  2  5  1 -1</clus>
</clustering>
</event>
<event>
 9    1  0.1321469E-005  0.1049812E+03  0.7546771E-02  0.1274813E+00
         -3   -1    0    0    0  501 -0.00000000000E+00  0.00000000000E+00  0.17126007840E+03  0.17126007840E+03  0.00000000000E+00 0.  1.
         21   -1    0    0  501  502  0.00000000000E+00 -0.00000000000E+00 -0.21087656728E+03  0.21087656728E+03  0.00000000000E+00 0.  1.
         23    2    1    2    0    0 -0.11439071643E+02 -0.75156719010E+01  0.49259151542E+02  0.11239875070E+03  0.10009833897E+03 0.  0.
         23    2    1    2    0    0  0.51497496238E+02 -0.17700100467E+02  0.54369356457E+02  0.11887490519E+03  0.90608666738E+02 0.  0.
        -11    1    3    3    0    0  0.41182007801E+02  0.11550185427E+02  0.33281174400E+02  0.54194105946E+02  0.00000000000E+00 0.  1.
         11    1    3    3    0    0 -0.52621079444E+02 -0.19065857328E+02  0.15977977142E+02  0.58204644755E+02  0.00000000000E+00 0. -1.
        -11    1    4    4    0    0  0.55441022492E+02 -0.49051926432E+02  0.35860350172E+02  0.82254259319E+02  0.00000000000E+00 0.  1.
         11    1    4    4    0    0 -0.39435262542E+01  0.31351825965E+02  0.18509006284E+02  0.36620645875E+02  0.00000000000E+00 0. -1.
         -3    1    1    2    0  502 -0.40058424595E+02  0.25215772368E+02 -0.14324499688E+03  0.15086298979E+03  0.00000000000E+00 0.  1.
<scales pt_clust_5="13000.00000" pt_clust_6="13000.00000" pt_clust_7="13000.00000" pt_clust_8="13000.00000" pt_clust_9="47.33405"></scales>
<clustering>
<clus scale="   47.334">  2  9  1 -1</clus>
<clus scale="   90.609">  7  8 -1 -1</clus>
<clus scale="   95.976">  2  7  1 -1</clus>
<clus scale="  100.098">  5  6 -1 -1</clus>
<clus scale="   47.334">  2  5  1 -1</clus>
</clustering>
</event>
<event>
 9    1  0.1321469E-005  0.9428874E+02  0.7546771E-02  0.1295678E+00
          2   -1    0    0  502    0 -0.00000000000E+00  0.00000000000E+00  0.34472757674E+03  0.34472757674E+03  0.00000000000E+00 0. -1.
         21   -1    0    0  501  502  0.00000000000E+00 -0.00000000000E+00 -0.54056186075E+02  0.54056186075E+02  0.00000000000E+00 0. -1.
         23    2    1    2    0    0  0.26529946661E+02  0.40716520923E+01  0.25129824086E+03  0.26879984333E+03  0.91553992232E+02 0.  0.
         23    2    1    2    0    0 -0.11402434987E+02  0.11408860971E+02  0.54599205527E+02  0.10352034702E+03  0.86459304712E+02 0.  0.
        -11    1    4    4    0    0 -0.46266710434E+02  0.21844934096E+02  0.36687390488E+02  0.62958512219E+02  0.00000000000E+00 0.  1.
         11    1    4    4    0    0  0.34864275447E+02 -0.10436073125E+02  0.17911815039E+02  0.40561834804E+02  0.00000000000E+00 0. -1.
        -13    1    3    3    0    0 -0.23004929327E+02 -0.44657096320E+01  0.16447571186E+02  0.28630262551E+02  0.00000000000E+00 0.  1.
         13    1    3    3    0    0  0.49534875988E+02  0.85373617243E+01  0.23485066968E+03  0.24016958078E+03  0.00000000000E+00 0. -1.
          2    1    1    2  501    0 -0.15127511673E+02 -0.15480513063E+02 -0.15226055729E+02  0.26463572457E+02  0.00000000000E+00 0. -1.
<scales pt_clust_5="13000.00000" pt_clust_6="13000.00000" pt_clust_7="13000.00000" pt_clust_8="13000.00000" pt_clust_9="21.64458"></scales>
<clustering>
<clus scale="   21.645">  2  9  1 -1</clus>
<clus scale="   86.459">  5  6 -1 -1</clus>
<clus scale="   89.350">  2  5  1 -1</clus>
<clus scale="   91.554">  7  8 -1 -1</clus>
<clus scale="   21.645">  2  5  1 -1</clus>
</clustering>
</event>
<event>
 9    1  0.1321469E-005  0.1690763E+03  0.7546771E-02  0.1179796E+00
          1   -1    0    0  502    0 -0.00000000000E+00  0.00000000000E+00  0.35600309767E+03  0.35600309767E+03  0.00000000000E+00 0. -1.
         21   -1    0    0  501  502  0.00000000000E+00 -0.00000000000E+00 -0.11066848837E+03  0.11066848837E+03  0.00000000000E+00 0.  1.
         23    2    1    2    0    0  0.10935940705E+03  0.74552404200E+02  0.18655253972E+03  0.24884646318E+03  0.98005975730E+02 0.  0.
         23    2    1    2    0    0 -0.12985293860E+03 -0.71158064363E+02  0.76878132443E+02  0.19027564248E+03  0.91483971747E+02 0.  0.
        -13    1    4    4    0    0 -0.11023196103E+03 -0.93209863357E+02  0.67011259944E+02  0.15915298558E+03  0.00000000000E+00 0.  1.
         13    1    4    4    0    0 -0.19620977578E+02  0.22051798995E+02  0.98668724986E+01  0.31122656906E+02  0.00000000000E+00 0. -1.
        -13    1    3    3    0    0  0.98696997518E+02  0.10229720138E+02  0.10563142854E+03  0.14492668211E+03  0.00000000000E+00 0.  1.
         13    1    3    3    0    0  0.10662409530E+02  0.64322684062E+02  0.80921111178E+02  0.10391978106E+03  0.00000000000E+00 0. -1.
          1    1    1    2  501    0  0.20493531556E+02 -0.33943398370E+01 -0.18096062851E+02  0.27549480381E+02  0.00000000000E+00 0. -1.
<scales pt_clust_5="13000.00000" pt_clust_6="13000.00000" pt_clust_7="13000.00000" pt_clust_8="13000.00000" pt_clust_9="20.77273"></scales>
<clustering>
<clus scale="   20.773">  2  9  1 -1</clus>
<clus scale="   91.484">  5  6 -1 -1</clus>
<clus scale="   98.006">  7  8 -1 -1</clus>
<clus scale="  165.381">  2  5  1 -1</clus>
<clus scale="   20.773">  2  5  1 -1</clus>
</clustering>
</event>
<event>
 9    1  0.1321469E-005  0.9448496E+02  0.7546771E-02  0.1293966E+00
         -2   -1    0    0    0  501 -0.00000000000E+00  0.00000000000E+00  0.60279880940E+03  0.60279880940E+03  0.00000000000E+00 0.  1.
         21   -1    0    0  501  502  0.00000000000E+00 -0.00000000000E+00 -0.26825383756E+02  0.26825383756E+02  0.00000000000E+00 0. -1.
         23    2    1    2    0    0  0.75917776668E+01 -0.20442881522E+02  0.28678420765E+03  0.30082381841E+03  0.88171659128E+02 0.  0.
         23    2    1    2    0    0 -0.48410606824E+02 -0.80962549719E+01  0.22412826397E+03  0.24686389408E+03  0.91099765592E+02 0.  0.
        -11    1    4    4    0    0 -0.53032482852E+02  0.21317839126E+02  0.72403301594E+02  0.92244959668E+02  0.00000000000E+00 0. -1.
         11    1    4    4    0    0  0.46218760287E+01 -0.29414094098E+02  0.15172496238E+03  0.15461893441E+03  0.00000000000E+00 0.  1.
        -11    1    3    3    0    0  0.40864398170E+02  0.72088664189E+00  0.75128376618E+02  0.85525970843E+02  0.00000000000E+00 0.  1.
         11    1    3    3    0    0 -0.33272620503E+02 -0.21163768164E+02  0.21165583103E+03  0.21529784757E+03  0.00000000000E+00 0. -1.
         -2    1    1    2    0  502  0.40818829157E+02  0.28539136494E+02  0.65060954020E+02  0.81936480664E+02  0.00000000000E+00 0.  1.
<scales pt_clust_5="13000.00000" pt_clust_6="13000.00000" pt_clust_7="13000.00000" pt_clust_8="13000.00000" pt_clust_9="49.80622"></scales>
<clustering>
<clus scale="   49.806">  2  9  1 -1</clus>
<clus scale="   88.172">  7  8 -1 -1</clus>
<clus scale="   91.100">  5  6 -1 -1</clus>
<clus scale="   91.665">  1  7  2 -1</clus>
<clus scale="   49.806">  2  5  1 -1</clus>
</clustering>
</event>
<event>
 9    1  0.1321469E-005  0.2426170E+03  0.7546771E-02  0.1129014E+00
          2   -1    0    0  502    0 -0.00000000000E+00  0.00000000000E+00  0.13143277080E+04  0.13143277080E+04  0.00000000000E+00 0. -1.
         21   -1    0    0  501  502  0.00000000000E+00 -0.00000000000E+00 -0.11540293206E+03  0.11540293206E+03  0.00000000000E+00 0. -1.
         23    2    1    2    0    0  0.66005476746E+01  0.16111071749E+03  0.24432303875E+03  0.30634712470E+03  0.90302729933E+02 0.  0.
         23    2    1    2    0    0 -0.21706131486E+03 -0.12767193084E+03  0.83246853927E+03  0.87776510196E+03  0.11854100135E+03 0.  0.
        -11    1    4    4    0    0 -0.17863942318E+02 -0.60273357189E+02  0.12841419759E+03  0.14297623637E+03  0.00000000000E+00 0.  1.
         11    1    4    4    0    0 -0.19919737254E+03 -0.67398573650E+02  0.70405434168E+03  0.73478886559E+03  0.00000000000E+00 0. -1.
        -11    1    3    3    0    0  0.28042676056E+02  0.74380902048E+01  0.29780356200E+02  0.41576273061E+02  0.00000000000E+00 0.  1.
         11    1    3    3    0    0 -0.21442128382E+02  0.15367262728E+03  0.21454268255E+03  0.26477085164E+03  0.00000000000E+00 0. -1.
          2    1    1    2  501    0  0.21046076719E+03 -0.33438786646E+02  0.12213319796E+03  0.24561841344E+03  0.00000000000E+00 0. -1.
<scales pt_clust_5="13000.00000" pt_clust_6="13000.00000" pt_clust_7="13000.00000" pt_clust_8="13000.00000" pt_clust_9="211.68623"></scales>
<clustering>
<clus scale="   90.303">  7  8 -1 -1</clus>
<clus scale="  118.541">  5  6 -1 -1</clus>
<clus scale="  184.810">  1  7  2 -1</clus>
<clus scale="  211.686">  2  9  1 -1</clus>
<clus scale="  211.686">  2  5  1 -1</clus>
</clustering>
</event>
<event>
 9    1  0.1321469E-005  0.1279066E+03  0.7546771E-02  0.1231255E+00
          1   -1    0    0  502    0 -0.00000000000E+00  0.00000000000E+00  0.21392167532E+03  0.21392167532E+03  0.00000000000E+00 0. -1.
         21   -1    0    0  501  502  0.00000000000E+00 -0.00000000000E+00 -0.16256848415E+03  0.16256848415E+03  0.00000000000E+00 0. -1.
         23    2    1    2    0    0  0.38213938094E+02 -0.66074324855E+02  0.97024435972E+02  0.15495645667E+03  0.93657038281E+02 0.  0.
         23    2    1    2    0    0 -0.73731121099E+02  0.84301366775E+02  0.18801937204E+02  0.14570174025E+03  0.91282449634E+02 0.  0.
        -11    1    3    3    0    0  0.55115587424E+01 -0.82578960845E+02  0.77790331622E+02  0.11358255917E+03  0.00000000000E+00 0.  1.
         11    1    3    3    0    0  0.32702379352E+02  0.16504635990E+02  0.19234104350E+02  0.41373897503E+02  0.00000000000E+00 0. -1.
        -11    1    4    4    0    0 -0.57071791623E+02  0.28605263463E+02  0.48733609686E+02  0.80314476963E+02  0.00000000000E+00 0. -1.
         11    1    4    4    0    0 -0.16659329476E+02  0.55696103312E+02 -0.29931672483E+02  0.65387263288E+02  0.00000000000E+00 0.  1.
          1    1    1    2  501    0  0.35517183004E+02 -0.18227041920E+02 -0.64473182009E+02  0.75831962549E+02  0.00000000000E+00 0. -1.
<scales pt_clust_5="13000.00000" pt_clust_6="13000.00000" pt_clust_7="13000.00000" pt_clust_8="13000.00000" pt_clust_9="39.92111"></scales>
<clustering>
<clus scale="   39.921">  2  9  1 -1</clus>
<clus scale="   91.282">  7  8 -1 -1</clus>
<clus scale="   93.657">  5  6 -1 -1</clus>
<clus scale="  126.178">  2  7  1 -1</clus>
<clus scale="   39.921">  2  5  1 -1</clus>
</clustering>
</event>
<event>
 9    1  0.1321469E-005  0.1091191E+03  0.7546771E-02  0.1262821E+00
          1   -1    0    0  502    0 -0.00000000000E+00  0.00000000000E+00  0.90207588390E+02  0.90207588390E+02  0.00000000000E+00 0. -1.
         21   -1    0    0  501  502  0.00000000000E+00 -0.00000000000E+00 -0.30475164966E+03  0.30475164966E+03  0.00000000000E+00 0. -1.
         23    2    1    2    0    0  0.26651612225E+02  0.69565870149E+02  0.13425796772E+02  0.11709485226E+03  0.89337750601E+02 0.  0.
         23    2    1    2    0    0 -0.17572993123E+02 -0.26475189056E+02 -0.85603480630E+02  0.12884286540E+03  0.90899847890E+02 0.  0.
        -11    1    4    4    0    0 -0.14334415885E+01 -0.53687863425E+02 -0.80535276532E+02  0.96800682849E+02  0.00000000000E+00 0.  1.
         11    1    4    4    0    0 -0.16139551535E+02  0.27212674369E+02 -0.50682040975E+01  0.32042182554E+02  0.00000000000E+00 0. -1.
        -11    1    3    3    0    0  0.20257044873E+02  0.26038198060E+02 -0.37401305281E+02  0.49871768185E+02  0.00000000000E+00 0.  1.
         11    1    3    3    0    0  0.63945673520E+01  0.43527672089E+02  0.50827102053E+02  0.67223084072E+02  0.00000000000E+00 0. -1.
          1    1    1    2  501    0 -0.90786191015E+01 -0.43090681093E+02 -0.14236637741E+03  0.14902152039E+03  0.00000000000E+00 0. -1.
<scales pt_clust_5="13000.00000" pt_clust_6="13000.00000" pt_clust_7="13000.00000" pt_clust_8="13000.00000" pt_clust_9="44.03667"></scales>
<clustering>
<clus scale="   44.037">  2  9  1 -1</clus>
<clus scale="   89.338">  7  8 -1 -1</clus>
<clus scale="   90.900">  5  6 -1 -1</clus>
<clus scale="  107.821">  1  7  2 -1</clus>
<clus scale="   44.037">  2  5  1 -1</clus>
</clustering>
</event>
<event>
 9    1  0.1321469E-005  0.1161969E+03  0.7546771E-02  0.1249569E+00
         21   -1    0    0  501  502  0.00000000000E+00  0.00000000000E+00  0.53017370564E+02  0.53017370564E+02  0.00000000000E+00 0.  1.
          1   -1    0    0  502    0 -0.00000000000E+00 -0.00000000000E+00 -0.34670175929E+03  0.34670175929E+03  0.00000000000E+00 0. -1.
         23    2    1    2    0    0  0.11675841199E+01 -0.67992828272E+02 -0.17559391036E+03  0.20912534890E+03  0.90971436443E+02 0.  0.
         23    2    1    2    0    0 -0.26378207287E+02  0.77593854606E+02 -0.10138792013E+03  0.15886476144E+03  0.90784833474E+02 0.  0.
        -11    1    3    3    0    0 -0.31821289297E+02 -0.32443437947E+02 -0.27096822704E+02  0.52909440736E+02  0.00000000000E+00 0.  1.
         11    1    3    3    0    0  0.32988873416E+02 -0.35549390325E+02 -0.14849708766E+03  0.15621590817E+03  0.00000000000E+00 0. -1.
        -11    1    4    4    0    0  0.18522959956E+02  0.73859854255E+02 -0.73752867146E+02  0.10600878986E+03  0.00000000000E+00 0. -1.
         11    1    4    4    0    0 -0.44901167244E+02  0.37340003505E+01 -0.27635052979E+02  0.52855971579E+02  0.00000000000E+00 0.  1.
          1    1    1    2  501    0  0.25210623167E+02 -0.96010263336E+01 -0.16702558236E+02  0.31729019505E+02  0.00000000000E+00 0. -1.
<scales pt_clust_5="13000.00000" pt_clust_6="13000.00000" pt_clust_7="13000.00000" pt_clust_8="13000.00000" pt_clust_9="26.97694"></scales>
<clustering>
<clus scale="   26.977">  1  9  2 -1</clus>
<clus scale="   90.785">  7  8 -1 -1</clus>
<clus scale="   90.971">  5  6 -1 -1</clus>
<clus scale="  116.051">  1  7  2 -1</clus>
<clus scale="   26.977">  1  5  2 -1</clus>
</clustering>
</event>
<event>
 9    1  0.1321469E-005  0.1706538E+03  0.7546771E-02  0.1198584E+00
         21   -1    0    0  501  502  0.00000000000E+00  0.00000000000E+00  0.21004207963E+03  0.21004207963E+03  0.00000000000E+00 0. -1.
          2   -1    0    0  502    0 -0.00000000000E+00 -0.00000000000E+00 -0.31465119768E+03  0.31465119768E+03  0.00000000000E+00 0. -1.
         23    2    1    2    0    0 -0.11330914090E+02  0.49010131954E+02 -0.11066553173E+03  0.15333235105E+03  0.93453557008E+02 0.  0.
         23    2    1    2    0    0 -0.10685825263E+03  0.50207781106E+02 -0.10501726811E+03  0.18122877173E+03  0.88745330385E+02 0.  0.
        -13    1    3    3    0    0 -0.45196796351E+02  0.83250764866E+01 -0.24173526692E+02  0.51927032378E+02  0.00000000000E+00 0. -1.
         13    1    3    3    0    0  0.33865882261E+02  0.40685055467E+02 -0.86492005034E+02  0.10140531867E+03  0.00000000000E+00 0.  1.
        -13    1    4    4    0    0 -0.46838069159E+02  0.34408244516E-01 -0.90161407230E+02  0.10160160068E+03  0.00000000000E+00 0.  1.
         13    1    4    4    0    0 -0.60020183472E+02  0.50173372861E+02 -0.14855860876E+02  0.79627171058E+02  0.00000000000E+00 0. -1.
          2    1    1    2  501    0  0.11818916672E+03 -0.99217913060E+02  0.11107368178E+03  0.19013215453E+03  0.00000000000E+00 0. -1.
<scales pt_clust_5="13000.00000" pt_clust_6="13000.00000" pt_clust_7="13000.00000" pt_clust_8="13000.00000" pt_clust_9="145.76349"></scales>
<clustering>
<clus scale="   88.745">  7  8 -1 -1</clus>
<clus scale="   93.454">  5  6 -1 -1</clus>
<clus scale="  106.132">  2  5  1 -1</clus>
<clus scale="  145.763">  1  9  2 -1</clus>
<clus scale="  145.763">  1  5  2 -1</clus>
</clustering>
</event>
<event>
 9    1  0.1321469E-005  0.9398609E+02  0.7546771E-02  0.1294443E+00
         -1   -1    0    0    0  501 -0.00000000000E+00  0.00000000000E+00  0.19253547193E+02  0.19253547193E+02  0.00000000000E+00 0.  1.
         21   -1    0    0  501  502  0.00000000000E+00 -0.00000000000E+00 -0.67096982876E+03  0.67096982876E+03  0.00000000000E+00 0. -1.
         23    2    1    2    0    0  0.37261965015E+01  0.19940720279E+02 -0.26938613287E+03  0.28453925547E+03  0.89343060485E+02 0.  0.
         23    2    1    2    0    0  0.31842497676E+02 -0.18557803438E+02 -0.30759805256E+03  0.32290773099E+03  0.91074167939E+02 0.  0.
        -11    1    3    3    0    0 -0.41917134448E+02  0.12190994232E+02 -0.10387677737E+03  0.11267675615E+03  0.00000000000E+00 0. -1.
         11    1    3    3    0    0  0.45643330949E+02  0.77497260467E+01 -0.16550935550E+03  0.17186249932E+03  0.00000000000E+00 0.  1.
        -13    1    4    4    0    0  0.79621365529E+01 -0.49089132670E+02 -0.99558666970E+02  0.11128821471E+03  0.00000000000E+00 0.  1.
         13    1    4    4    0    0  0.23880361123E+02  0.30531329232E+02 -0.20803938559E+03  0.21161951628E+03  0.00000000000E+00 0. -1.
         -1    1    1    2    0  502 -0.35568694177E+02 -0.13829168410E+01 -0.74732096134E+02  0.82776389490E+02  0.00000000000E+00 0.  1.
<scales pt_clust_5="13000.00000" pt_clust_6="13000.00000" pt_clust_7="13000.00000" pt_clust_8="13000.00000" pt_clust_9="35.59559"></scales>
<clustering>
<clus scale="   35.596">  2  9  1 -1</clus>
<clus scale="   89.343">  5  6 -1 -1</clus>
<clus scale="   91.074">  7  8 -1 -1</clus>
<clus scale="   92.310">  1  5  2 -1</clus>
<clus scale="   35.596">  2  5  1 -1</clus>
</clustering>
</event>
<event>
 9    1  0.1321469E-005  0.2407876E+03  0.7546771E-02  0.1135119E+00
         21   -1    0    0  501  502  0.00000000000E+00  0.00000000000E+00  0.61385818364E+03  0.61385818364E+03  0.00000000000E+00 0. -1.
          1   -1    0    0  502    0 -0.00000000000E+00 -0.00000000000E+00 -0.32192046728E+03  0.32192046728E+03  0.00000000000E+00 0. -1.
         23    2    1    2    0    0 -0.68719639105E+02 -0.11633657660E+03  0.70205904170E+02  0.17731290849E+03  0.90853787395E+02 0.  0.
         23    2    1    2    0    0  0.41046186628E+02  0.31621877002E+03 -0.12228034006E+03  0.35963862184E+03  0.11273134791E+03 0.  0.
        -11    1    4    4    0    0  0.64523098525E+02  0.11025432143E+03 -0.23031424529E+02  0.12980636407E+03  0.00000000000E+00 0.  1.
         11    1    4    4    0    0 -0.23476911897E+02  0.20596444859E+03 -0.99248915531E+02  0.22983225776E+03  0.00000000000E+00 0. -1.
        -11    1    3    3    0    0 -0.90083833570E+02 -0.80996445968E+02  0.57576411880E+02  0.13412891014E+03  0.00000000000E+00 0.  1.
         11    1    3    3    0    0  0.21364194465E+02 -0.35340130634E+02  0.12629492289E+02  0.43183998354E+02  0.00000000000E+00 0. -1.
          1    1    1    2  501    0  0.27673452477E+02 -0.19988219342E+03  0.34401215226E+03  0.39882712059E+03  0.00000000000E+00 0. -1.
<scales pt_clust_5="13000.00000" pt_clust_6="13000.00000" pt_clust_7="13000.00000" pt_clust_8="13000.00000" pt_clust_9="212.76826"></scales>
<clustering>
<clus scale="   90.854">  7  8 -1 -1</clus>
<clus scale="  112.731">  5  6 -1 -1</clus>
<clus scale="  162.822">  2  7  1 -1</clus>
<clus scale="  212.768">  1  9  2 -1</clus>
<clus scale="  212.768">  1  5  2 -1</clus>
</clustering>
</event>
<event>
 9    1  0.1321469E-005  0.2742056E+03  0.7546771E-02  0.1099533E+00
         21   -1    0    0  501  502  0.00000000000E+00  0.00000000000E+00  0.35657987523E+03  0.35657987523E+03  0.00000000000E+00 0. -1.
          1   -1    0    0  502    0 -0.00000000000E+00 -0.00000000000E+00 -0.36226401697E+03  0.36226401697E+03  0.00000000000E+00 0. -1.
         23    2    1    2    0    0  0.14565227433E+03 -0.25245094147E+03 -0.80847286862E+02  0.31949080598E+03  0.10291758083E+03 0.  0.
         23    2    1    2    0    0 -0.64285240923E+01  0.21665486465E+03  0.96841475518E+02  0.25397577796E+03  0.90248369028E+02 0.  0.
        -11    1    3    3    0    0  0.41294170445E+02 -0.12123653234E+03 -0.81550527130E+02  0.15183541669E+03  0.00000000000E+00 0.  1.
         11    1    3    3    0    0  0.10435810389E+03 -0.13121440914E+03  0.70324026747E+00  0.16765538930E+03  0.00000000000E+00 0. -1.
        -13    1    4    4    0    0 -0.25179560227E+02  0.97138878234E+01  0.11918192633E+02  0.29502765726E+02  0.00000000000E+00 0.  1.
         13    1    4    4    0    0  0.18751036134E+02  0.20694097683E+03  0.84923282885E+02  0.22447301223E+03  0.00000000000E+00 0. -1.
          1    1    1    2  501    0 -0.13922375024E+03  0.35796076826E+02 -0.21678330397E+02  0.14537730826E+03  0.00000000000E+00 0. -1.
<scales pt_clust_5="13000.00000" pt_clust_6="13000.00000" pt_clust_7="13000.00000" pt_clust_8="13000.00000" pt_clust_9="143.75198"></scales>
<clustering>
<clus scale="   90.248">  7  8 -1 -1</clus>
<clus scale="  102.918">  5  6 -1 -1</clus>
<clus scale="  143.752">  1  9  2 -1</clus>
<clus scale="  269.706">  1  7  2 -1</clus>
<clus scale="  143.752">  1  5  2 -1</clus>
</clustering>
</event>
<event>
 9    1  0.1321469E-005  0.1026484E+03  0.7546771E-02  0.1275388E+00
         21   -1    0    0  501  502  0.00000000000E+00  0.00000000000E+00  0.50501434163E+02  0.50501434163E+02  0.00000000000E+00 0.  1.
         -1   -1    0    0    0  501 -0.00000000000E+00 -0.00000000000E+00 -0.39295996734E+03  0.39295996734E+03  0.00000000000E+00 0.  1.
         23    2    1    2    0    0  0.24088255940E+02 -0.53390540734E+02 -0.25901892971E+03  0.28064919193E+03  0.90787494013E+02 0.  0.
         23    2    1    2    0    0 -0.99671216138E+01  0.16382687215E+02 -0.79310432864E+02  0.12298712066E+03  0.92021471051E+02 0.  0.
        -11    1    4    4    0    0 -0.53797364201E+01 -0.38117081061E+02 -0.40820632380E+02  0.56108621980E+02  0.00000000000E+00 0. -1.
         11    1    4    4    0    0 -0.45873851937E+01  0.54499768275E+02 -0.38489800483E+02  0.66878498684E+02  0.00000000000E+00 0.  1.
        -13    1    3    3    0    0  0.45268155799E+02 -0.98820898250E+01 -0.59867749692E+02  0.75703428468E+02  0.00000000000E+00 0. -1.
         13    1    3    3    0    0 -0.21179899859E+02 -0.43508450909E+02 -0.19915118001E+03  0.20494576346E+03  0.00000000000E+00 0.  1.
         -1    1    1    2    0  502 -0.14121134326E+02  0.37007853519E+02 -0.41291706049E+01  0.39825088909E+02  0.00000000000E+00 0.  1.
<scales pt_clust_5="13000.00000" pt_clust_6="13000.00000" pt_clust_7="13000.00000" pt_clust_8="13000.00000" pt_clust_9="39.61045"></scales>
<clustering>
<clus scale="   39.610">  1  9  2 -1</clus>
<clus scale="   90.787">  7  8 -1 -1</clus>
<clus scale="   92.021">  5  6 -1 -1</clus>
<clus scale="  101.544">  2  7  1 -1</clus>
<clus scale="   39.610">  1  5  2 -1</clus>
</clustering>
</event>
<event>
 9    1  0.1321469E-005  0.9999066E+02  0.7546771E-02  0.1283505E+00
          2   -1    0    0  502    0 -0.00000000000E+00  0.00000000000E+00  0.21305144131E+03  0.21305144131E+03  0.00000000000E+00 0. -1.
         21   -1    0    0  501  502  0.00000000000E+00 -0.00000000000E+00 -0.23769189586E+03  0.23769189586E+03  0.00000000000E+00 0. -1.
         23    2    1    2    0    0  0.47875572309E+01  0.43723970268E+02  0.14596393449E+03  0.17823179900E+03  0.92338495361E+02 0.  0.
         23    2    1    2    0    0 -0.17827070011E+02 -0.21456506079E+02  0.92348919010E+01  0.90830400384E+02  0.85945868587E+02 0.  0.
        -11    1    4    4    0    0  0.31679427757E+02 -0.50374695124E+01  0.19684625377E+02  0.37635710679E+02  0.00000000000E+00 0.  1.
         11    1    4    4    0    0 -0.49506497768E+02 -0.16419036567E+02 -0.10449733476E+02  0.53194689705E+02  0.00000000000E+00 0. -1.
        -11    1    3    3    0    0  0.42694564090E+02  0.33375169699E+02  0.46932614289E+02  0.71689595056E+02  0.00000000000E+00 0.  1.
         11    1    3    3    0    0 -0.37907006859E+02  0.10348800569E+02  0.99031320197E+02  0.10654220395E+03  0.00000000000E+00 0. -1.
          2    1    1    2  501    0  0.13039512780E+02 -0.22267464189E+02 -0.17983928094E+03  0.18168113778E+03  0.00000000000E+00 0. -1.
<scales pt_clust_5="13000.00000" pt_clust_6="13000.00000" pt_clust_7="13000.00000" pt_clust_8="13000.00000" pt_clust_9="25.80443"></scales>
<clustering>
<clus scale="   25.804">  2  9  1 -1</clus>
<clus scale="   85.946">  5  6 -1 -1</clus>
<clus scale="   92.338">  7  8 -1 -1</clus>
<clus scale="   94.119">  2  5  1 -1</clus>
<clus scale="   25.804">  2  5  1 -1</clus>
</clustering>
</event>
<event>
 9    1  0.1321469E-005  0.3192143E+03  0.7546771E-02  0.1076130E+00
         21   -1    0    0  501  502  0.00000000000E+00  0.00000000000E+00  0.12346900879E+03  0.12346900879E+03  0.00000000000E+00 0. -1.
          2   -1    0    0  502    0 -0.00000000000E+00 -0.00000000000E+00 -0.21321543363E+04  0.21321543363E+04  0.00000000000E+00 0. -1.
         23    2    1    2    0    0  0.29605230856E+03  0.18134680808E+03 -0.14106427985E+04  0.14559314578E+04  0.96382937570E+02 0.  0.
         23    2    1    2    0    0 -0.22667266288E+03  0.55987408902E+02 -0.16375946400E+03  0.29994910711E+03  0.92936638400E+02 0.  0.
        -13    1    3    3    0    0  0.27301733347E+03  0.13036076159E+03 -0.11323429086E+04  0.11720635031E+04  0.00000000000E+00 0. -1.
         13    1    3    3    0    0  0.23034975085E+02  0.50986046482E+02 -0.27829988989E+03  0.28386795473E+03  0.00000000000E+00 0.  1.
        -13    1    4    4    0    0 -0.39042552622E+02  0.75676394044E+01 -0.79000556482E+02  0.88445904404E+02  0.00000000000E+00 0.  1.
         13    1    4    4    0    0 -0.18763011025E+03  0.48419769497E+02 -0.84758907517E+02  0.21150320271E+03  0.00000000000E+00 0. -1.
          2    1    1    2  501    0 -0.69379645681E+02 -0.23733421698E+03 -0.43428306502E+03  0.49974278019E+03  0.00000000000E+00 0. -1.
<scales pt_clust_5="13000.00000" pt_clust_6="13000.00000" pt_clust_7="13000.00000" pt_clust_8="13000.00000" pt_clust_9="247.26720"></scales>
<clustering>
<clus scale="   92.937">  7  8 -1 -1</clus>
<clus scale="   96.383">  5  6 -1 -1</clus>
<clus scale="  247.267">  1  9  2 -1</clus>
<clus scale="  318.191">  1  7  2 -1</clus>
<clus scale="  247.267">  1  5  2 -1</clus>
</clustering>
</event>
<event>
 9    1  0.1321469E-005  0.9095836E+02  0.7546771E-02  0.1300729E+00
         21   -1    0    0  501  502  0.00000000000E+00  0.00000000000E+00  0.18391997346E+03  0.18391997346E+03  0.00000000000E+00 0.  1.
          2   -1    0    0  502    0 -0.00000000000E+00 -0.00000000000E+00 -0.28854312789E+03  0.28854312789E+03  0.00000000000E+00 0. -1.
         23    2    1    2    0    0  0.56620733058E+01 -0.57391267362E+01 -0.22025571832E+03  0.23817623609E+03  0.90279240878E+02 0.  0.
         23    2    1    2    0    0 -0.14291254799E+02  0.67448594103E+02  0.12777254750E+03  0.17080536924E+03  0.89972759528E+02 0.  0.
        -13    1    4    4    0    0  0.37667155666E+02  0.21382991516E+02  0.40700867033E+02  0.59435742776E+02  0.00000000000E+00 0. -1.
         13    1    4    4    0    0 -0.51958410465E+02  0.46065602586E+02  0.87071680466E+02  0.11136962646E+03  0.00000000000E+00 0.  1.
        -13    1    3    3    0    0  0.70935995261E+01 -0.46749561475E+02 -0.14422549844E+03  0.15177890187E+03  0.00000000000E+00 0.  1.
         13    1    3    3    0    0 -0.14315262203E+01  0.41010434739E+02 -0.76030219884E+02  0.86397334220E+02  0.00000000000E+00 0. -1.
          2    1    1    2  501    0  0.86291814937E+01 -0.61709467366E+02 -0.12139983605E+02  0.63481496027E+02  0.00000000000E+00 0. -1.
<scales pt_clust_5="13000.00000" pt_clust_6="13000.00000" pt_clust_7="13000.00000" pt_clust_8="13000.00000" pt_clust_9="62.30988"></scales>
<clustering>
<clus scale="   62.310">  1  9  2 -1</clus>
<clus scale="   89.973">  5  6 -1 -1</clus>
<clus scale="   90.279">  7  8 -1 -1</clus>
<clus scale="   90.654">  1  5  2 -1</clus>
<clus scale="   62.310">  1  5  2 -1</clus>
</clustering>
</event>
<event>
 9    1  0.1321469E-005  0.9178367E+02  0.7546771E-02  0.1299838E+00
          2   -1    0    0  502    0 -0.00000000000E+00  0.00000000000E+00  0.10295272804E+03  0.10295272804E+03  0.00000000000E+00 0. -1.
         21   -1    0    0  501  502  0.00000000000E+00 -0.00000000000E+00 -0.22341002757E+03  0.22341002757E+03  0.00000000000E+00 0.  1.
         23    2    1    2    0    0  0.20885669186E+02  0.11001099597E+02  0.80604993769E+01  0.92805251617E+02  0.89390199171E+02 0.  0.
         23    2    1    2    0    0  0.60850676388E+02  0.28815968181E+01 -0.90368639474E+02  0.14229459909E+03  0.91488543063E+02 0.  0.
        -13    1    4    4    0    0  0.81591195363E+02  0.25529635748E+01 -0.46935978361E+02  0.94162767847E+02  0.00000000000E+00 0.  1.
         13    1    4    4    0    0 -0.20740518975E+02  0.32863324333E+00 -0.43432661113E+02  0.48131831240E+02  0.00000000000E+00 0. -1.
        -13    1    3    3    0    0  0.49068784485E+02 -0.78377013964E+01  0.24187632885E+02  0.55264968639E+02  0.00000000000E+00 0.  1.
         13    1    3    3    0    0 -0.28183115300E+02  0.18838800993E+02 -0.16127133508E+02  0.37540282978E+02  0.00000000000E+00 0. -1.
          2    1    1    2  501    0 -0.81736345573E+02 -0.13882696415E+02 -0.38149159428E+02  0.91262904909E+02  0.00000000000E+00 0. -1.
<scales pt_clust_5="13000.00000" pt_clust_6="13000.00000" pt_clust_7="13000.00000" pt_clust_8="13000.00000" pt_clust_9="82.90693"></scales>
<clustering>
<clus scale="   82.907">  2  9  1 -1</clus>
<clus scale="   89.390">  7  8 -1 -1</clus>
<clus scale="   89.692">  1  7  2 -1</clus>
<clus scale="   91.489">  5  6 -1 -1</clus>
<clus scale="   82.907">  2  5  1 -1</clus>
</clustering>
</event>
<event>
 9    1  0.1321469E-005  0.1885262E+03  0.7546771E-02  0.1160045E+00
         21   -1    0    0  501  502  0.00000000000E+00  0.00000000000E+00  0.11909878676E+03  0.11909878676E+03  0.00000000000E+00 0.  1.
          3   -1    0    0  502    0 -0.00000000000E+00 -0.00000000000E+00 -0.53979723823E+03  0.53979723823E+03  0.00000000000E+00 0. -1.
         23    2    1    2    0    0 -0.24936573844E+02  0.15778808701E+03 -0.30834387709E+03  0.35910013723E+03  0.91422365454E+02 0.  0.
         23    2    1    2    0    0  0.53522664762E+02 -0.16381790275E+03 -0.15369434716E+03  0.24917474510E+03  0.93622221412E+02 0.  0.
        -11    1    3    3    0    0  0.29699898416E+02  0.52444572540E+02 -0.66743524386E+02  0.89928945297E+02  0.00000000000E+00 0.  1.
         11    1    3    3    0    0 -0.54636472260E+02  0.10534351447E+03 -0.24160035270E+03  0.26917119193E+03  0.00000000000E+00 0. -1.
        -13    1    4    4    0    0  0.17172779298E+02 -0.64684778138E+02 -0.12162887772E+03  0.13882582168E+03  0.00000000000E+00 0. -1.
         13    1    4    4    0    0  0.36349885464E+02 -0.99133124614E+02 -0.32065469445E+02  0.11034892342E+03  0.00000000000E+00 0.  1.
          3    1    1    2  501    0 -0.28586090918E+02  0.60298157443E+01  0.41339772771E+02  0.50621142665E+02  0.00000000000E+00 0. -1.
<scales pt_clust_5="13000.00000" pt_clust_6="13000.00000" pt_clust_7="13000.00000" pt_clust_8="13000.00000" pt_clust_9="29.21512"></scales>
<clustering>
<clus scale="   29.215">  1  9  2 -1</clus>
<clus scale="   91.422">  5  6 -1 -1</clus>
<clus scale="   93.622">  7  8 -1 -1</clus>
<clus scale="  187.443">  2  5  1 -1</clus>
<clus scale="   29.215">  1  5  2 -1</clus>
</clustering>
</event>
<event>
 9    1  0.1321469E-005  0.1651421E+03  0.7546771E-02  0.1185945E+00
         21   -1    0    0  501  502  0.00000000000E+00  0.00000000000E+00  0.21747560077E+03  0.21747560077E+03  0.00000000000E+00 0.  1.
          1   -1    0    0  502    0 -0.00000000000E+00 -0.00000000000E+00 -0.20273790583E+03  0.20273790583E+03  0.00000000000E+00 0. -1.
         23    2    1    2    0    0 -0.79883222220E+02 -0.66528323524E+02  0.12385795275E+02  0.13881355930E+03  0.91150695549E+02 0.  0.
         23    2    1    2    0    0  0.15811236294E+03  0.71995247862E+02 -0.40848936714E+02  0.19186784142E+03  0.70440030595E+02 0.  0.
        -11    1    3    3    0    0  0.38950462128E+01 -0.52738802245E+02 -0.81043974367E+00  0.52888651522E+02  0.00000000000E+00 0. -1.
         11    1    3    3    0    0 -0.83778268433E+02 -0.13789521278E+02  0.13196235019E+02  0.85924907782E+02  0.00000000000E+00 0.  1.
        -11    1    4    4    0    0  0.35022326524E+02  0.17240370331E+02  0.20210396560E+02  0.43957409539E+02  0.00000000000E+00 0.  1.
         11    1    4    4    0    0  0.12309003641E+03  0.54754877531E+02 -0.61059333274E+02  0.14791043188E+03  0.00000000000E+00 0. -1.
          1    1    1    2  501    0 -0.78229140718E+02 -0.54669243384E+01  0.43200836374E+02  0.89532105876E+02  0.00000000000E+00 0. -1.
<scales pt_clust_5="13000.00000" pt_clust_6="13000.00000" pt_clust_7="13000.00000" pt_clust_8="13000.00000" pt_clust_9="78.41993"></scales>
<clustering>
<clus scale="   70.440">  7  8 -1 -1</clus>
<clus scale="   78.420">  1  9  2 -1</clus>
<clus scale="   91.151">  5  6 -1 -1</clus>
<clus scale="  154.678">  1  7  2 -1</clus>
<clus scale="   78.420">  1  5  2 -1</clus>
</clustering>
</event>
<event>
 9    1  0.1321469E-005  0.1670670E+03  0.7546771E-02  0.1201868E+00
         -3   -1    0    0    0  501 -0.00000000000E+00  0.00000000000E+00  0.35838971012E+03  0.35838971012E+03  0.00000000000E+00 0.  1.
         21   -1    0    0  501  502  0.00000000000E+00 -0.00000000000E+00 -0.16184927932E+03  0.16184927932E+03  0.00000000000E+00 0.  1.
         23    2    1    2    0    0  0.48408637786E+02  0.18008213334E+02  0.17538502372E+03  0.20458441914E+03  0.91799706143E+02 0.  0.
         23    2    1    2    0    0 -0.54524188853E+02 -0.14504589062E+03 -0.22913076529E+02  0.18105144010E+03  0.90793266997E+02 0.  0.
        -13    1    4    4    0    0 -0.65276952990E+02 -0.46447940971E+02 -0.15422596437E+02  0.81586446748E+02  0.00000000000E+00 0. -1.
         13    1    4    4    0    0  0.10752764137E+02 -0.98597949645E+02 -0.74904800920E+01  0.99464993353E+02  0.00000000000E+00 0.  1.
        -13    1    3    3    0    0  0.71409153563E+02  0.18977612728E+02  0.16175357325E+03  0.17783035583E+03  0.00000000000E+00 0. -1.
         13    1    3    3    0    0 -0.23000515777E+02 -0.96939939396E+00  0.13631450472E+02  0.26754063302E+02  0.00000000000E+00 0.  1.
         -3    1    1    2    0  502  0.61155510673E+01  0.12703767728E+03  0.44068483610E+02  0.13460313021E+03  0.00000000000E+00 0.  1.
<scales pt_clust_5="13000.00000" pt_clust_6="13000.00000" pt_clust_7="13000.00000" pt_clust_8="13000.00000" pt_clust_9="140.24262"></scales>
<clustering>
<clus scale="   90.793">  5  6 -1 -1</clus>
<clus scale="   91.800">  7  8 -1 -1</clus>
<clus scale="  105.332">  1  7  2 -1</clus>
<clus scale="  140.243">  2  9  1 -1</clus>
<clus scale="  140.243">  2  5  1 -1</clus>
</clustering>
</event>
<event>
 9    1  0.1528727E-005  0.9616330E+02  0.7546771E-02  0.1305641E+00
         21   -1    0    0  501  502  0.00000000000E+00  0.00000000000E+00  0.41529644621E+03  0.41529644621E+03  0.00000000000E+00 0.  1.
         -1   -1    0    0    0  501 -0.00000000000E+00 -0.00000000000E+00 -0.28630067437E+03  0.28630067437E+03  0.00000000000E+00 0.  1.
         23    2    1    2    0    0 -0.16681498713E+02 -0.18714949522E+02 -0.24296577309E+03  0.25267076921E+03  0.64665516176E+02 0.  0.
         23    2    1    2    0    0  0.28450870766E+02  0.57711805489E+02  0.47815853035E+02  0.12223122978E+03  0.92271410474E+02 0.  0.
        -11    1    3    3    0    0 -0.35350264011E+02 -0.27046766449E+02 -0.11942664942E+03  0.12745153327E+03  0.00000000000E+00 0.  1.
         11    1    3    3    0    0  0.18668765298E+02  0.83318169274E+01 -0.12353912367E+03  0.12521923594E+03  0.00000000000E+00 0. -1.
        -11    1    4    4    0    0 -0.22529590118E+02  0.32883877438E+01  0.41572178992E+02  0.47398755163E+02  0.00000000000E+00 0. -1.
         11    1    4    4    0    0  0.50980460884E+02  0.54423417745E+02  0.62436740425E+01  0.74832474612E+02  0.00000000000E+00 0.  1.
         -1    1    1    2    0  502 -0.11769372053E+02 -0.38996855967E+02  0.32414569190E+03  0.32669512159E+03  0.00000000000E+00 0.  1.
<scales pt_clust_5="13000.00000" pt_clust_6="13000.00000" pt_clust_7="13000.00000" pt_clust_8="13000.00000" pt_clust_9="40.73417"></scales>
<clustering>
<clus scale="   40.734">  1  9  2 -1</clus>
<clus scale="   64.666">  5  6 -1 -1</clus>
<clus scale="   70.107">  2  5  1 -1</clus>
<clus scale="   92.271">  7  8 -1 -1</clus>
<clus scale="   40.734">  1  5  2 -1</clus>
</clustering>
</event>
<event>
 9    1  0.1321469E-005  0.1070313E+03  0.7546771E-02  0.1267065E+00
         -1   -1    0    0    0  501 -0.00000000000E+00  0.00000000000E+00  0.19522591122E+03  0.19522591122E+03  0.00000000000E+00 0.  1.
         21   -1    0    0  501  502  0.00000000000E+00 -0.00000000000E+00 -0.11775450428E+03  0.11775450428E+03  0.00000000000E+00 0. -1.
         23    2    1    2    0    0 -0.95872160524E+01 -0.49614930933E+02  0.12405339906E+03  0.16253724141E+03  0.92062766336E+02 0.  0.
         23    2    1    2    0    0  0.29157264336E+02  0.67408325701E+02 -0.42775784231E+02  0.12372091921E+03  0.89905893550E+02 0.  0.
        -13    1    4    4    0    0  0.45510952931E+02  0.31999334987E+02 -0.59344233602E+02  0.81344590097E+02  0.00000000000E+00 0. -1.
         13    1    4    4    0    0 -0.16353688595E+02  0.35408990715E+02  0.16568449371E+02  0.42376329108E+02  0.00000000000E+00 0.  1.
        -13    1    3    3    0    0 -0.35972337630E+02 -0.23225482781E+02  0.11696040883E+03  0.12455187417E+03  0.00000000000E+00 0.  1.
         13    1    3    3    0    0  0.26385121577E+02 -0.26389448152E+02  0.70929902270E+01  0.37985367246E+02  0.00000000000E+00 0. -1.
         -1    1    1    2    0  502 -0.19570048283E+02 -0.17793394769E+02 -0.38062078908E+01  0.26722254877E+02  0.00000000000E+00 0.  1.
<scales pt_clust_5="13000.00000" pt_clust_6="13000.00000" pt_clust_7="13000.00000" pt_clust_8="13000.00000" pt_clust_9="26.44980"></scales>
<clustering>
<clus scale="   26.450">  2  9  1 -1</clus>
<clus scale="   89.906">  5  6 -1 -1</clus>
<clus scale="   92.063">  7  8 -1 -1</clus>
<clus scale="  105.182">  2  5  1 -1</clus>
<clus scale="   26.450">  2  5  1 -1</clus>
</clustering>
</event>
<event>
 9    1  0.1321469E-005  0.1376341E+03  0.7546771E-02  0.1216721E+00
         -1   -1    0    0    0  501 -0.00000000000E+00  0.00000000000E+00  0.68447215703E+02  0.68447215703E+02  0.00000000000E+00 0.  1.
         21   -1    0    0  501  502  0.00000000000E+00 -0.00000000000E+00 -0.50597369772E+03  0.50597369772E+03  0.00000000000E+00 0. -1.
         23    2    1    2    0    0  0.81330293402E+02  0.79340163723E+02 -0.64866388507E+02  0.15900554556E+03  0.90363914020E+02 0.  0.
         23    2    1    2    0    0 -0.40526547304E+02 -0.76749545467E+02 -0.18763192248E+03  0.22592372933E+03  0.91120246792E+02 0.  0.
        -11    1    4    4    0    0  0.74522788496E+01 -0.75537890482E+02 -0.13357713443E+03  0.15363710555E+03  0.00000000000E+00 0.  1.
         11    1    4    4    0    0 -0.47978826154E+02 -0.12116549846E+01 -0.54054788055E+02  0.72286623787E+02  0.00000000000E+00 0. -1.
        -11    1    3    3    0    0  0.20732630703E+02  0.28168444047E+02  0.22045485083E+02  0.41343761663E+02  0.00000000000E+00 0.  1.
         11    1    3    3    0    0  0.60597662699E+02  0.51171719676E+02 -0.86911873590E+02  0.11766178390E+03  0.00000000000E+00 0. -1.
         -1    1    1    2    0  502 -0.40803746098E+02 -0.25906182563E+01 -0.18502817103E+03  0.18949163853E+03  0.00000000000E+00 0.  1.
<scales pt_clust_5="13000.00000" pt_clust_6="13000.00000" pt_clust_7="13000.00000" pt_clust_8="13000.00000" pt_clust_9="40.88590"></scales>
<clustering>
<clus scale="   40.886">  2  9  1 -1</clus>
<clus scale="   90.364">  7  8 -1 -1</clus>
<clus scale="   91.120">  5  6 -1 -1</clus>
<clus scale="  137.135">  1  7  2 -1</clus>
<clus scale="   40.886">  2  5  1 -1</clus>
</clustering>
</event>
<event>
 9    1  0.1321469E-005  0.1504293E+03  0.7546771E-02  0.1200486E+00
          1   -1    0    0  502    0 -0.00000000000E+00  0.00000000000E+00  0.10263479154E+04  0.10263479154E+04  0.00000000000E+00 0. -1.
         21   -1    0    0  501  502  0.00000000000E+00 -0.00000000000E+00 -0.36575349550E+02  0.36575349550E+02  0.00000000000E+00 0. -1.
         23    2    1    2    0    0  0.26314584850E+02  0.93947757819E+02  0.36773560614E+03  0.39064111620E+03  0.88613582889E+02 0.  0.
         23    2    1    2    0    0 -0.25375796611E+02 -0.13971575487E+03  0.59629201302E+03  0.61976174171E+03  0.91520645122E+02 0.  0.
        -13    1    4    4    0    0  0.34236854306E+02 -0.60253641397E+02  0.22704730331E+03  0.23738816616E+03  0.00000000000E+00 0.  1.
         13    1    4    4    0    0 -0.59612650917E+02 -0.79462113470E+02  0.36924470971E+03  0.38237357555E+03  0.00000000000E+00 0. -1.
        -13    1    3    3    0    0  0.46113388806E+02  0.17978083718E+02  0.18996774080E+03  0.19630944620E+03  0.00000000000E+00 0. -1.
         13    1    3    3    0    0 -0.19798803956E+02  0.75969674100E+02  0.17776786534E+03  0.19433167001E+03  0.00000000000E+00 0.  1.
          1    1    1    2  501    0 -0.93878823911E+00  0.45767997048E+02  0.25744946729E+02  0.52520407074E+02  0.00000000000E+00 0. -1.
<scales pt_clust_5="13000.00000" pt_clust_6="13000.00000" pt_clust_7="13000.00000" pt_clust_8="13000.00000" pt_clust_9="45.77762"></scales>
<clustering>
<clus scale="   45.778">  2  9  1 -1</clus>
<clus scale="   88.614">  7  8 -1 -1</clus>
<clus scale="   91.521">  5  6 -1 -1</clus>
<clus scale="  148.679">  1  7  2 -1</clus>
<clus scale="   45.778">  2  5  1 -1</clus>
</clustering>
</event>
<event>
 9    1  0.1321469E-005  0.9974646E+02  0.7546771E-02  0.1281792E+00
         -2   -1    0    0    0  501 -0.00000000000E+00  0.00000000000E+00  0.21712155612E+03  0.21712155612E+03  0.00000000000E+00 0.  1.
         21   -1    0    0  501  502  0.00000000000E+00 -0.00000000000E+00 -0.24118797574E+03  0.24118797574E+03  0.00000000000E+00 0.  1.
         23    2    1    2    0    0 -0.15995864541E+02 -0.73219969601E+02  0.10327789944E+03  0.15353863174E+03  0.85385919762E+02 0.  0.
         23    2    1    2    0    0  0.41246893431E+02 -0.12476478841E+00  0.51700308307E+02  0.10964518907E+03  0.87451837159E+02 0.  0.
        -11    1    4    4    0    0  0.25254563854E+02 -0.41508063660E+02  0.11853577490E+02  0.50012194948E+02  0.00000000000E+00 0.  1.
         11    1    4    4    0    0  0.15992329577E+02  0.41383298871E+02  0.39846730817E+02  0.59632994119E+02  0.00000000000E+00 0. -1.
        -13    1    3    3    0    0  0.18949961399E+02 -0.99304148914E+01 -0.62618231736E+01  0.22291805813E+02  0.00000000000E+00 0. -1.
         13    1    3    3    0    0 -0.34945825941E+02 -0.63289554710E+02  0.10953972262E+03  0.13124682593E+03  0.00000000000E+00 0.  1.
         -2    1    1    2    0  502 -0.25251028890E+02  0.73344734390E+02 -0.17904462737E+03  0.19512571105E+03  0.00000000000E+00 0.  1.
<scales pt_clust_5="13000.00000" pt_clust_6="13000.00000" pt_clust_7="13000.00000" pt_clust_8="13000.00000" pt_clust_9="77.56974"></scales>
<clustering>
<clus scale="   77.570">  2  9  1 -1</clus>
<clus scale="   85.386">  7  8 -1 -1</clus>
<clus scale="   87.452">  5  6 -1 -1</clus>
<clus scale="   97.940">  1  7  2 -1</clus>
<clus scale="   77.570">  2  5  1 -1</clus>
</clustering>
</event>
<event>
 9    1  0.1321469E-005  0.9183857E+02  0.7546771E-02  0.1298844E+00
         21   -1    0    0  501  502  0.00000000000E+00  0.00000000000E+00  0.12346293457E+03  0.12346293457E+03  0.00000000000E+00 0.  1.
          2   -1    0    0  502    0 -0.00000000000E+00 -0.00000000000E+00 -0.33749214811E+03  0.33749214811E+03  0.00000000000E+00 0. -1.
         23    2    1    2    0    0  0.24015058561E+01 -0.26428830163E+02 -0.21692703730E+03  0.23642363143E+03  0.90191705230E+02 0.  0.
         23    2    1    2    0    0  0.11580134178E+02 -0.14071404057E+02 -0.85638481795E+02  0.12617275752E+03  0.90848837395E+02 0.  0.
        -11    1    4    4    0    0  0.39036196443E+02 -0.42067684494E+01 -0.88539615806E+02  0.96854453179E+02  0.00000000000E+00 0.  1.
         11    1    4    4    0    0 -0.27456062266E+02 -0.98646356075E+01  0.29011340110E+01  0.29318304340E+02  0.00000000000E+00 0. -1.
        -13    1    3    3    0    0 -0.28857267155E+02  0.21203696359E+02 -0.65784420884E+02  0.74899456860E+02  0.00000000000E+00 0. -1.
         13    1    3    3    0    0  0.31258773011E+02 -0.47632526522E+02 -0.15114261642E+03  0.16152417457E+03  0.00000000000E+00 0.  1.
          2    1    1    2  501    0 -0.13981640034E+02  0.40500234220E+02  0.88536305563E+02  0.98358693731E+02  0.00000000000E+00 0. -1.
<scales pt_clust_5="13000.00000" pt_clust_6="13000.00000" pt_clust_7="13000.00000" pt_clust_8="13000.00000" pt_clust_9="42.84571"></scales>
<clustering>
<clus scale="   42.846">  1  9  2 -1</clus>
<clus scale="   90.192">  7  8 -1 -1</clus>
<clus scale="   90.849">  5  6 -1 -1</clus>
<clus scale="   91.189">  2  7  1 -1</clus>
<clus scale="   42.846">  1  5  2 -1</clus>
</clustering>
</event>
<event>
 9    1  0.1321469E-005  0.1554158E+03  0.7546771E-02  0.1216233E+00
         -1   -1    0    0    0  501 -0.00000000000E+00  0.00000000000E+00  0.88981749352E+03  0.88981749352E+03  0.00000000000E+00 0.  1.
         21   -1    0    0  501  502  0.00000000000E+00 -0.00000000000E+00 -0.43961335225E+02  0.43961335225E+02  0.00000000000E+00 0.  1.
         23    2    1    2    0    0 -0.37044213749E+02  0.26803066582E+01  0.24771471853E+03  0.26574972873E+03  0.88774313446E+02 0.  0.
         23    2    1    2    0    0  0.15160290001E+03  0.69597380482E+01  0.42341423005E+03  0.45887312742E+03  0.90846351674E+02 0.  0.
        -11    1    3    3    0    0 -0.21904781990E+02  0.41049251345E+02  0.18443695592E+03  0.19021527598E+03  0.00000000000E+00 0. -1.
         11    1    3    3    0    0 -0.15139431759E+02 -0.38368944687E+02  0.63277762616E+02  0.75534452748E+02  0.00000000000E+00 0.  1.
        -13    1    4    4    0    0  0.11192169257E+03  0.16591357372E+02  0.39009070592E+03  0.40616806528E+03  0.00000000000E+00 0.  1.
         13    1    4    4    0    0  0.39681207440E+02 -0.96316193243E+01  0.33323524133E+02  0.52705062142E+02  0.00000000000E+00 0. -1.
         -1    1    1    2    0  502 -0.11455868626E+03 -0.96400447064E+01  0.17472720971E+03  0.20915597260E+03  0.00000000000E+00 0.  1.
<scales pt_clust_5="13000.00000" pt_clust_6="13000.00000" pt_clust_7="13000.00000" pt_clust_8="13000.00000" pt_clust_9="126.09927"></scales>
<clustering>
<clus scale="   88.774">  5  6 -1 -1</clus>
<clus scale="   90.846">  7  8 -1 -1</clus>
<clus scale="   96.231">  1  5  2 -1</clus>
<clus scale="  126.099">  2  9  1 -1</clus>
<clus scale="  126.099">  2  5  1 -1</clus>
</clustering>
</event>
<event>
 9    1  0.1321469E-005  0.9955266E+02  0.7546771E-02  0.1281699E+00
         21   -1    0    0  501  502  0.00000000000E+00  0.00000000000E+00  0.37806996860E+02  0.37806996860E+02  0.00000000000E+00 0.  1.
         -3   -1    0    0    0  501 -0.00000000000E+00 -0.00000000000E+00 -0.53691977084E+03  0.53691977084E+03  0.00000000000E+00 0.  1.
         23    2    1    2    0    0 -0.11243478013E+02  0.32182043537E+02 -0.20461353721E+03  0.22656100090E+03  0.91110305659E+02 0.  0.
         23    2    1    2    0    0  0.71944596481E+02  0.29019674509E+01 -0.19124025932E+03  0.22335418867E+03  0.90165461422E+02 0.  0.
        -13    1    3    3    0    0  0.18852920382E+02  0.42159110794E+02 -0.18160561621E+03  0.18738576005E+03  0.00000000000E+00 0.  1.
         13    1    3    3    0    0 -0.30096398394E+02 -0.99770672567E+01 -0.23007920998E+02  0.39175240854E+02  0.00000000000E+00 0. -1.
        -13    1    4    4    0    0  0.31201892600E+02 -0.43468764100E+02 -0.83090411104E+02  0.98828679904E+02  0.00000000000E+00 0. -1.
         13    1    4    4    0    0  0.40742703881E+02  0.46370731551E+02 -0.10814984822E+03  0.12452550877E+03  0.00000000000E+00 0.  1.
         -3    1    1    2    0  502 -0.60701118468E+02 -0.35084010988E+02 -0.10325897746E+03  0.12481157813E+03  0.00000000000E+00 0.  1.
<scales pt_clust_5="13000.00000" pt_clust_6="13000.00000" pt_clust_7="13000.00000" pt_clust_8="13000.00000" pt_clust_9="70.11072"></scales>
<clustering>
<clus scale="   70.111">  1  9  2 -1</clus>
<clus scale="   90.165">  7  8 -1 -1</clus>
<clus scale="   91.110">  5  6 -1 -1</clus>
<clus scale="   98.689">  1  7  2 -1</clus>
<clus scale="   70.111">  1  5  2 -1</clus>
</clustering>
</event>
<event>
 9    1  0.1321469E-005  0.2397512E+03  0.7546771E-02  0.1154535E+00
          1   -1    0    0  502    0 -0.00000000000E+00  0.00000000000E+00  0.88952782040E+03  0.88952782040E+03  0.00000000000E+00 0. -1.
         21   -1    0    0  501  502  0.00000000000E+00 -0.00000000000E+00 -0.11928925771E+03  0.11928925771E+03  0.00000000000E+00 0. -1.
         23    2    1    2    0    0  0.24882092568E+02  0.47210073065E+02  0.19181115128E+03  0.21803684820E+03  0.88885543751E+02 0.  0.
         23    2    1    2    0    0 -0.22901641233E+03 -0.28858583976E+02  0.92985303768E+02  0.26384414505E+03  0.87670583293E+02 0.  0.
        -11    1    3    3    0    0  0.35790266665E+02  0.64618481960E+02  0.17945564251E+03  0.19406395602E+03  0.00000000000E+00 0. -1.
         11    1    3    3    0    0 -0.10908174096E+02 -0.17408408895E+02  0.12355508772E+02  0.23972892178E+02  0.00000000000E+00 0.  1.
        -13    1    4    4    0    0 -0.35107019120E+02 -0.26795415121E+02  0.47103922404E+02  0.64569935488E+02  0.00000000000E+00 0.  1.
         13    1    4    4    0    0 -0.19390939321E+03 -0.20631688545E+01  0.45881381364E+02  0.19927420956E+03  0.00000000000E+00 0. -1.
          1    1    1    2  501    0  0.20413431976E+03 -0.18351489089E+02  0.48544210764E+03  0.52693608486E+03  0.00000000000E+00 0. -1.
<scales pt_clust_5="13000.00000" pt_clust_6="13000.00000" pt_clust_7="13000.00000" pt_clust_8="13000.00000" pt_clust_9="223.14695"></scales>
<clustering>
<clus scale="   87.671">  7  8 -1 -1</clus>
<clus scale="   88.886">  5  6 -1 -1</clus>
<clus scale="  103.675">  1  5  2 -1</clus>
<clus scale="  223.147">  2  9  1 -1</clus>
<clus scale="  223.147">  2  5  1 -1</clus>
</clustering>
</event>
<event>
 9    1  0.1321469E-005  0.1208303E+03  0.7546771E-02  0.1243060E+00
         -1   -1    0    0    0  501 -0.00000000000E+00  0.00000000000E+00  0.66579916920E+03  0.66579916920E+03  0.00000000000E+00 0.  1.
         21   -1    0    0  501  502  0.00000000000E+00 -0.00000000000E+00 -0.55116274712E+02  0.55116274712E+02  0.00000000000E+00 0. -1.
         23    2    1    2    0    0 -0.16021873023E+02  0.68304241001E+02  0.42576828569E+03  0.44115259086E+03  0.91732249348E+02 0.  0.
         23    2    1    2    0    0  0.22124331604E+02 -0.98048273428E+02  0.20417371815E+03  0.24380648005E+03  0.87474239421E+02 0.  0.
        -13    1    4    4    0    0  0.33668631855E+02 -0.16463757835E+01  0.33962330214E+02  0.47851094008E+02  0.00000000000E+00 0.  1.
         13    1    4    4    0    0 -0.11544300250E+02 -0.96401897645E+02  0.17021138793E+03  0.19595538604E+03  0.00000000000E+00 0. -1.
        -13    1    3    3    0    0 -0.44845238391E+02  0.11001533768E+02  0.11679552579E+03  0.12559189463E+03  0.00000000000E+00 0. -1.
         13    1    3    3    0    0  0.28823365368E+02  0.57302707234E+02  0.30897275990E+03  0.31556069624E+03  0.00000000000E+00 0.  1.
         -1    1    1    2    0  502 -0.61024585814E+01  0.29744032427E+02 -0.19259109353E+02  0.35956372993E+02  0.00000000000E+00 0.  1.
<scales pt_clust_5="13000.00000" pt_clust_6="13000.00000" pt_clust_7="13000.00000" pt_clust_8="13000.00000" pt_clust_9="30.36359"></scales>
<clustering>
<clus scale="   30.364">  2  9  1 -1</clus>
<clus scale="   87.474">  5  6 -1 -1</clus>
<clus scale="   91.732">  7  8 -1 -1</clus>
<clus scale="  117.630">  2  5  1 -1</clus>
<clus scale="   30.364">  2  5  1 -1</clus>
</clustering>
</event>
<event>
 9    1  0.1321469E-005  0.1135737E+03  0.7546771E-02  0.1255661E+00
          3   -1    0    0  502    0 -0.00000000000E+00  0.00000000000E+00  0.42151018504E+03  0.42151018504E+03  0.00000000000E+00 0. -1.
         21   -1    0    0  501  502  0.00000000000E+00 -0.00000000000E+00 -0.13209356567E+03  0.13209356567E+03  0.00000000000E+00 0.  1.
         23    2    1    2    0    0  0.40857969779E+02  0.49998790102E+02  0.36589189221E+03  0.38319090286E+03  0.93750405554E+02 0.  0.
         23    2    1    2    0    0 -0.63223026982E+02 -0.24666423145E+02 -0.36581037090E+02  0.11813020593E+03  0.89504132352E+02 0.  0.
        -11    1    4    4    0    0 -0.83474609958E+02 -0.19865164406E+02 -0.13179087950E+02  0.86812001611E+02  0.00000000000E+00 0.  1.
         11    1    4    4    0    0  0.20251582976E+02 -0.48012587391E+01 -0.23401949140E+02  0.31318204324E+02  0.00000000000E+00 0. -1.
        -11    1    3    3    0    0 -0.27625306841E+00  0.60673273924E+02  0.12949329239E+03  0.14300292046E+03  0.00000000000E+00 0.  1.
         11    1    3    3    0    0  0.41134222848E+02 -0.10674483822E+02  0.23639859982E+03  0.24018798240E+03  0.00000000000E+00 0. -1.
          3    1    1    2  501    0  0.22365057203E+02 -0.25332366957E+02 -0.39894235748E+02  0.52282641911E+02  0.00000000000E+00 0. -1.
<scales pt_clust_5="13000.00000" pt_clust_6="13000.00000" pt_clust_7="13000.00000" pt_clust_8="13000.00000" pt_clust_9="33.79237"></scales>
<clustering>
<clus scale="   33.792">  2  9  1 -1</clus>
<clus scale="   89.504">  5  6 -1 -1</clus>
<clus scale="   93.750">  7  8 -1 -1</clus>
<clus scale="  110.095">  2  5  1 -1</clus>
<clus scale="   33.792">  2  5  1 -1</clus>
</clustering>
</event>
<event>
 9    1  0.1321469E-005  0.1165007E+03  0.7546771E-02  0.1250315E+00
         21   -1    0    0  501  502  0.00000000000E+00  0.00000000000E+00  0.13972578484E+03  0.13972578484E+03  0.00000000000E+00 0. -1.
         -2   -1    0    0    0  501 -0.00000000000E+00 -0.00000000000E+00 -0.24291918815E+03  0.24291918815E+03  0.00000000000E+00 0.  1.
         23    2    1    2    0    0 -0.49280764599E+02  0.20970152262E+02 -0.18975277951E+02  0.10876410474E+03  0.92742807056E+02 0.  0.
         23    2    1    2    0    0  0.38130522533E+02 -0.11040176008E+03  0.52890594478E+01  0.14686167086E+03  0.88870078426E+02 0.  0.
        -11    1    4    4    0    0  0.22725078245E+02 -0.10033069125E+02  0.33281319818E+02  0.41529963956E+02  0.00000000000E+00 0. -1.
         11    1    4    4    0    0  0.15405444288E+02 -0.10036869096E+03 -0.27992260370E+02  0.10533170690E+03  0.00000000000E+00 0.  1.
        -11    1    3    3    0    0  0.10516535891E+02 -0.23469550911E+02  0.11623670343E+02  0.28222810976E+02  0.00000000000E+00 0. -1.
         11    1    3    3    0    0 -0.59797300490E+02  0.44439703173E+02 -0.30598948294E+02  0.80541293761E+02  0.00000000000E+00 0.  1.
         -2    1    1    2    0  502  0.11150242066E+02  0.89431607822E+02 -0.89507184802E+02  0.12701919740E+03  0.00000000000E+00 0.  1.
<scales pt_clust_5="13000.00000" pt_clust_6="13000.00000" pt_clust_7="13000.00000" pt_clust_8="13000.00000" pt_clust_9="90.12407"></scales>
<clustering>
<clus scale="   88.870">  5  6 -1 -1</clus>
<clus scale="   90.124">  1  9  2 -1</clus>
<clus scale="   92.743">  7  8 -1 -1</clus>
<clus scale="  113.442">  1  5  2 -1</clus>
<clus scale="   90.124">  1  5  2 -1</clus>
</clustering>
</event>
<event>
 9    1  0.1321469E-005  0.1049925E+03  0.7546771E-02  0.1270564E+00
         21   -1    0    0  501  502  0.00000000000E+00  0.00000000000E+00  0.18150083397E+03  0.18150083397E+03  0.00000000000E+00 0.  1.
         -2   -1    0    0    0  501 -0.00000000000E+00 -0.00000000000E+00 -0.79250922353E+02  0.79250922353E+02  0.00000000000E+00 0.  1.
         23    2    1    2    0    0  0.52459565529E+02 -0.21548693125E+02  0.33891777986E+02  0.11293514286E+03  0.91593349580E+02 0.  0.
         23    2    1    2    0    0 -0.48305123962E+02 -0.23574891083E+01  0.39301255368E+02  0.10996074063E+03  0.90597091839E+02 0.  0.
        -11    1    4    4    0    0 -0.64484011972E+02  0.14093549162E+02  0.51629702603E+02  0.83800012642E+02  0.00000000000E+00 0. -1.
         11    1    4    4    0    0  0.16178888010E+02 -0.16451038271E+02 -0.12328447235E+02  0.26160727984E+02  0.00000000000E+00 0.  1.
        -11    1    3    3    0    0  0.75537726937E+02  0.74298357785E+00  0.26025097524E+02  0.79898722872E+02  0.00000000000E+00 0.  1.
         11    1    3    3    0    0 -0.23078161408E+02 -0.22291676703E+02  0.78666804619E+01  0.33036419990E+02  0.00000000000E+00 0. -1.
         -2    1    1    2    0  502 -0.41544415669E+01  0.23906182234E+02  0.29056878262E+02  0.37855872835E+02  0.00000000000E+00 0.  1.
<scales pt_clust_5="13000.00000" pt_clust_6="13000.00000" pt_clust_7="13000.00000" pt_clust_8="13000.00000" pt_clust_9="24.26448"></scales>
<clustering>
<clus scale="   24.264">  1  9  2 -1</clus>
<clus scale="   90.597">  5  6 -1 -1</clus>
<clus scale="   91.593">  7  8 -1 -1</clus>
<clus scale="  104.124">  1  5  2 -1</clus>
<clus scale="   24.264">  1  5  2 -1</clus>
</clustering>
</event>
<event>
 9    1  0.1321469E-005  0.1388766E+03  0.7546771E-02  0.1215950E+00
         21   -1    0    0  501  502  0.00000000000E+00  0.00000000000E+00  0.15839465605E+03  0.15839465605E+03  0.00000000000E+00 0.  1.
          3   -1    0    0  502    0 -0.00000000000E+00 -0.00000000000E+00 -0.21870358293E+03  0.21870358293E+03  0.00000000000E+00 0. -1.
         23    2    1    2    0    0 -0.74279267168E+02  0.34483749179E+02 -0.41477471222E+02  0.12938833298E+03  0.91183450278E+02 0.  0.
         23    2    1    2    0    0  0.13193387052E+03 -0.24852571729E+02 -0.65925881975E+02  0.17264528146E+03  0.86232098347E+02 0.  0.
        -11    1    3    3    0    0 -0.42470617543E+02  0.11030256507E+02 -0.68616279745E+02  0.81446999694E+02  0.00000000000E+00 0. -1.
         11    1    3    3    0    0 -0.31808649625E+02  0.23453492672E+02  0.27138808523E+02  0.47941333289E+02  0.00000000000E+00 0.  1.
        -13    1    4    4    0    0  0.30935716044E+02 -0.42230037994E+02 -0.42722119458E+02  0.67569032309E+02  0.00000000000E+00 0.  1.
         13    1    4    4    0    0  0.10099815448E+03  0.17377466265E+02 -0.23203762517E+02  0.10507624915E+03  0.00000000000E+00 0. -1.
          3    1    1    2  501    0 -0.57654603352E+02 -0.96311774506E+01  0.47094426321E+02  0.75064624540E+02  0.00000000000E+00 0. -1.
<scales pt_clust_5="13000.00000" pt_clust_6="13000.00000" pt_clust_7="13000.00000" pt_clust_8="13000.00000" pt_clust_9="58.45351"></scales>
<clustering>
<clus scale="   58.454">  1  9  2 -1</clus>
<clus scale="   86.232">  7  8 -1 -1</clus>
<clus scale="   91.183">  5  6 -1 -1</clus>
<clus scale="  135.677">  1  7  2 -1</clus>
<clus scale="   58.454">  1  5  2 -1</clus>
</clustering>
</event>
<event>
 9    1  0.1321469E-005  0.9905374E+02  0.7546771E-02  0.1285442E+00
         21   -1    0    0  501  502  0.00000000000E+00  0.00000000000E+00  0.62597080629E+02  0.62597080629E+02  0.00000000000E+00 0. -1.
         -4   -1    0    0    0  501 -0.00000000000E+00 -0.00000000000E+00 -0.27368322179E+03  0.27368322179E+03  0.00000000000E+00 0.  1.
         23    2    1    2    0    0 -0.51214977285E+01 -0.28118013340E+02 -0.17017277268E+03  0.19785362496E+03  0.96800991402E+02 0.  0.
         23    2    1    2    0    0 -0.22431546135E+01  0.79855036438E+01 -0.60374947338E+02  0.10947310941E+03  0.90941890277E+02 0.  0.
        -11    1    4    4    0    0 -0.90097649535E+01  0.47736967829E+02 -0.45301652828E+02  0.66424646864E+02  0.00000000000E+00 0. -1.
         11    1    4    4    0    0  0.67666103399E+01 -0.39751464185E+02 -0.15073294510E+02  0.43048462548E+02  0.00000000000E+00 0.  1.
        -13    1    3    3    0    0 -0.21604445536E+02 -0.60693097504E+02 -0.10829442696E+03  0.12600828172E+03  0.00000000000E+00 0.  1.
         13    1    3    3    0    0  0.16482947807E+02  0.32575084164E+02 -0.61878345711E+02  0.71845343236E+02  0.00000000000E+00 0. -1.
         -4    1    1    2    0  502  0.73646523421E+01  0.20132509696E+02  0.19461578857E+02  0.28953568043E+02  0.00000000000E+00 0.  1.
<scales pt_clust_5="13000.00000" pt_clust_6="13000.00000" pt_clust_7="13000.00000" pt_clust_8="13000.00000" pt_clust_9="21.43726"></scales>
<clustering>
<clus scale="   21.437">  1  9  2 -1</clus>
<clus scale="   90.942">  5  6 -1 -1</clus>
<clus scale="   93.336">  1  5  2 -1</clus>
<clus scale="   96.801">  7  8 -1 -1</clus>
<clus scale="   21.437">  1  5  2 -1</clus>
</clustering>
</event>
<event>
 9    1  0.1321469E-005  0.2278845E+03  0.7546771E-02  0.1136463E+00
         -1   -1    0    0    0  501 -0.00000000000E+00  0.00000000000E+00  0.90081507447E+03  0.90081507447E+03  0.00000000000E+00 0.  1.
         21   -1    0    0  501  502  0.00000000000E+00 -0.00000000000E+00 -0.16977527019E+03  0.16977527019E+03  0.00000000000E+00 0.  1.
         23    2    1    2    0    0 -0.11110445387E+03 -0.11801121431E+03  0.50589625844E+03  0.53897232670E+03  0.91045583460E+02 0.  0.
         23    2    1    2    0    0 -0.61696468192E+02  0.23606661914E+03  0.18095447318E+03  0.31772572867E+03  0.93119355869E+02 0.  0.
        -11    1    4    4    0    0 -0.18282604965E+02  0.19419247013E+03  0.10761638399E+03  0.22276951138E+03  0.00000000000E+00 0.  1.
         11    1    4    4    0    0 -0.43413863227E+02  0.41874149009E+02  0.73338089190E+02  0.94956217287E+02  0.00000000000E+00 0. -1.
        -11    1    3    3    0    0 -0.87624939281E+02 -0.43427474996E+02  0.19184927398E+03  0.21533745493E+03  0.00000000000E+00 0.  1.
         11    1    3    3    0    0 -0.23479514590E+02 -0.74583739313E+02  0.31404698446E+03  0.32363487177E+03  0.00000000000E+00 0. -1.
         -1    1    1    2    0  502  0.17280092206E+03 -0.11805540483E+03  0.44189072661E+02  0.21389228929E+03  0.00000000000E+00 0.  1.
<scales pt_clust_5="13000.00000" pt_clust_6="13000.00000" pt_clust_7="13000.00000" pt_clust_8="13000.00000" pt_clust_9="207.99070"></scales>
<clustering>
<clus scale="   91.046">  7  8 -1 -1</clus>
<clus scale="   93.119">  5  6 -1 -1</clus>
<clus scale="  185.904">  1  7  2 -1</clus>
<clus scale="  207.991">  2  9  1 -1</clus>
<clus scale="  207.991">  2  5  1 -1</clus>
</clustering>
</event>
<event>
 9    1  0.1321469E-005  0.1529739E+03  0.7546771E-02  0.1197952E+00
          2   -1    0    0  502    0 -0.00000000000E+00  0.00000000000E+00  0.43710928942E+03  0.43710928942E+03  0.00000000000E+00 0. -1.
         21   -1    0    0  501  502  0.00000000000E+00 -0.00000000000E+00 -0.13228405488E+03  0.13228405488E+03  0.00000000000E+00 0. -1.
         23    2    1    2    0    0 -0.59781401512E+02  0.97718344280E+02  0.29651448449E+03  0.33175778641E+03  0.94972093559E+02 0.  0.
         23    2    1    2    0    0  0.89701261248E+02 -0.10555655172E+03  0.61749692593E+02  0.17589127814E+03  0.89085438258E+02 0.  0.
        -11    1    4    4    0    0  0.32414558551E+02  0.56860236269E+01  0.34797736923E+02  0.47894853228E+02  0.00000000000E+00 0.  1.
         11    1    4    4    0    0  0.57286702696E+02 -0.11124257535E+03  0.26951955670E+02  0.12799642491E+03  0.00000000000E+00 0. -1.
        -11    1    3    3    0    0 -0.69804507404E+02  0.27350697139E+02  0.12031099561E+03  0.14175847612E+03  0.00000000000E+00 0.  1.
         11    1    3    3    0    0  0.10023105892E+02  0.70367647141E+02  0.17620348888E+03  0.18999931028E+03  0.00000000000E+00 0. -1.
          2    1    1    2  501    0 -0.29919859736E+02  0.78382074389E+01 -0.53438942536E+02  0.61744279750E+02  0.00000000000E+00 0. -1.
<scales pt_clust_5="13000.00000" pt_clust_6="13000.00000" pt_clust_7="13000.00000" pt_clust_8="13000.00000" pt_clust_9="30.92952"></scales>
<clustering>
<clus scale="   30.930">  2  9  1 -1</clus>
<clus scale="   89.085">  5  6 -1 -1</clus>
<clus scale="   94.972">  7  8 -1 -1</clus>
<clus scale="  149.391">  2  5  1 -1</clus>
<clus scale="   30.930">  2  5  1 -1</clus>
</clustering>
</event>
<event>
 9    1  0.1321469E-005  0.1041552E+03  0.7546771E-02  0.1273433E+00
         21   -1    0    0  501  502  0.00000000000E+00  0.00000000000E+00  0.15914861964E+03  0.15914861964E+03  0.00000000000E+00 0.  1.
          1   -1    0    0  502    0 -0.00000000000E+00 -0.00000000000E+00 -0.12013087483E+03  0.12013087483E+03  0.00000000000E+00 0. -1.
         23    2    1    2    0    0  0.36713809798E+02  0.68271722002E+01 -0.43874266746E+02  0.10734953903E+03  0.90578463987E+02 0.  0.
         23    2    1    2    0    0 -0.60550813764E+02 -0.11501688101E+02  0.34389810498E+02  0.11768497996E+03  0.94172212278E+02 0.  0.
        -11    1    4    4    0    0  0.16016272017E+02 -0.29284207261E+02  0.49260760518E+01  0.33739472276E+02  0.00000000000E+00 0.  1.
         11    1    4    4    0    0 -0.76567085781E+02  0.17782519160E+02  0.29463734447E+02  0.83945507684E+02  0.00000000000E+00 0. -1.
        -13    1    3    3    0    0  0.18952561419E+01 -0.35542680631E+02  0.22874807092E+01  0.35666604973E+02  0.00000000000E+00 0.  1.
         13    1    3    3    0    0  0.34818553656E+02  0.42369852831E+02 -0.46161747455E+02  0.71682934062E+02  0.00000000000E+00 0. -1.
          1    1    1    2  501    0  0.23837003966E+02  0.46745159005E+01  0.48502201059E+02  0.54244975478E+02  0.00000000000E+00 0. -1.
<scales pt_clust_5="13000.00000" pt_clust_6="13000.00000" pt_clust_7="13000.00000" pt_clust_8="13000.00000" pt_clust_9="24.29102"></scales>
<clustering>
<clus scale="   24.291">  1  9  2 -1</clus>
<clus scale="   90.578">  7  8 -1 -1</clus>
<clus scale="   94.172">  5  6 -1 -1</clus>
<clus scale="  100.918">  2  7  1 -1</clus>
<clus scale="   24.291">  1  5  2 -1</clus>
</clustering>
</event>
<event>
 9    1  0.1321469E-005  0.1147854E+03  0.7546771E-02  0.1252114E+00
         -4   -1    0    0    0  501 -0.00000000000E+00  0.00000000000E+00  0.40383032454E+02  0.40383032454E+02  0.00000000000E+00 0.  1.
         21   -1    0    0  501  502  0.00000000000E+00 -0.00000000000E+00 -0.73039819916E+03  0.73039819916E+03  0.00000000000E+00 0.  1.
         23    2    1    2    0    0  0.91969365637E+02 -0.34863613878E+02 -0.16100250192E+03  0.20916534919E+03  0.90302280645E+02 0.  0.
         23    2    1    2    0    0 -0.22444045217E+02  0.41634888745E+02 -0.19338870193E+03  0.21879951060E+03  0.90757020003E+02 0.  0.
        -11    1    3    3    0    0  0.10429567317E+03 -0.15446753328E+02 -0.15080661926E+03  0.18400767930E+03  0.00000000000E+00 0.  1.
         11    1    3    3    0    0 -0.12326307531E+02 -0.19416860551E+02 -0.10195882659E+02  0.25157669888E+02  0.00000000000E+00 0. -1.
        -13    1    4    4    0    0 -0.44487683291E+02  0.45734122889E+02 -0.18353424739E+03  0.19430796156E+03  0.00000000000E+00 0.  1.
         13    1    4    4    0    0  0.22043638074E+02 -0.40992341436E+01 -0.98544545354E+01  0.24491549039E+02  0.00000000000E+00 0. -1.
         -4    1    1    2    0  502 -0.69525320420E+02 -0.67712748667E+01 -0.33562396286E+03  0.34281637182E+03  0.00000000000E+00 0.  1.
<scales pt_clust_5="13000.00000" pt_clust_6="13000.00000" pt_clust_7="13000.00000" pt_clust_8="13000.00000" pt_clust_9="69.85428"></scales>
<clustering>
<clus scale="   69.854">  2  9  1 -1</clus>
<clus scale="   90.302">  5  6 -1 -1</clus>
<clus scale="   90.757">  7  8 -1 -1</clus>
<clus scale="  114.426">  1  5  2 -1</clus>
<clus scale="   69.854">  2  5  1 -1</clus>
</clustering>
</event>
<event>
 9    1  0.1321469E-005  0.1189026E+03  0.7546771E-02  0.1245519E+00
         21   -1    0    0  501  502  0.00000000000E+00  0.00000000000E+00  0.13811336627E+03  0.13811336627E+03  0.00000000000E+00 0.  1.
          2   -1    0    0  502    0 -0.00000000000E+00 -0.00000000000E+00 -0.18111300737E+03  0.18111300737E+03  0.00000000000E+00 0. -1.
         23    2    1    2    0    0 -0.93103476905E+02  0.43139507614E+01 -0.64120513163E+02  0.14614000255E+03  0.92512661582E+02 0.  0.
         23    2    1    2    0    0  0.43592163235E+02 -0.40844941666E+02  0.18001007814E+01  0.10859469969E+03  0.90669633741E+02 0.  0.
        -11    1    4    4    0    0 -0.17829462070E+02 -0.42876805524E+02  0.68224598037E+01  0.46934594143E+02  0.00000000000E+00 0.  1.
         11    1    4    4    0    0  0.61421625305E+02  0.20318638575E+01 -0.50223590223E+01  0.61660105546E+02  0.00000000000E+00 0. -1.
        -13    1    3    3    0    0 -0.70805261110E+02 -0.48706065348E+01 -0.87423234856E+02  0.11260519438E+03  0.00000000000E+00 0. -1.
         13    1    3    3    0    0 -0.22298215795E+02  0.91845572962E+01  0.23302721693E+02  0.33534808165E+02  0.00000000000E+00 0.  1.
          2    1    1    2  501    0  0.49511313670E+02  0.36530990905E+02  0.19320771287E+02  0.64491671408E+02  0.00000000000E+00 0. -1.
<scales pt_clust_5="13000.00000" pt_clust_6="13000.00000" pt_clust_7="13000.00000" pt_clust_8="13000.00000" pt_clust_9="61.52953"></scales>
<clustering>
<clus scale="   61.530">  1  9  2 -1</clus>
<clus scale="   90.670">  5  6 -1 -1</clus>
<clus scale="   92.513">  7  8 -1 -1</clus>
<clus scale="  117.474">  1  5  2 -1</clus>
<clus scale="   61.530">  1  5  2 -1</clus>
</clustering>
</event>
<event>
 9    1  0.1321469E-005  0.1007720E+03  0.7546771E-02  0.1280050E+00
          2   -1    0    0  502    0 -0.00000000000E+00  0.00000000000E+00  0.78421866550E+03  0.78421866550E+03  0.00000000000E+00 0. -1.
         21   -1    0    0  501  502  0.00000000000E+00 -0.00000000000E+00 -0.29408328802E+02  0.29408328802E+02  0.00000000000E+00 0.  1.
         23    2    1    2    0    0  0.20216838382E+02 -0.41447807928E+02  0.58139001014E+03  0.59077499948E+03  0.94202520065E+02 0.  0.
         23    2    1    2    0    0 -0.76766304437E+01 -0.48932379845E+01  0.11036089918E+03  0.14359771587E+03  0.91421559278E+02 0.  0.
        -11    1    3    3    0    0  0.57912153385E+02 -0.21259016648E+02  0.36929734713E+03  0.37441460161E+03  0.00000000000E+00 0. -1.
         11    1    3    3    0    0 -0.37695315003E+02 -0.20188791280E+02  0.21209266300E+03  0.21636039787E+03  0.00000000000E+00 0.  1.
        -13    1    4    4    0    0 -0.29112868943E+02 -0.24745741854E+02  0.10607869509E+02  0.39653975507E+02  0.00000000000E+00 0.  1.
         13    1    4    4    0    0  0.21436238499E+02  0.19852503869E+02  0.99753029676E+02  0.10394374036E+03  0.00000000000E+00 0. -1.
          2    1    1    2  501    0 -0.12540207938E+02  0.46341045913E+02  0.63059427371E+02  0.79254278949E+02  0.00000000000E+00 0. -1.
<scales pt_clust_5="13000.00000" pt_clust_6="13000.00000" pt_clust_7="13000.00000" pt_clust_8="13000.00000" pt_clust_9="48.00781"></scales>
<clustering>
<clus scale="   48.008">  2  9  1 -1</clus>
<clus scale="   91.422">  7  8 -1 -1</clus>
<clus scale="   94.203">  5  6 -1 -1</clus>
<clus scale="   98.177">  2  7  1 -1</clus>
<clus scale="   48.008">  2  5  1 -1</clus>
</clustering>
</event>
<event>
 9    1  0.1321469E-005  0.1155264E+03  0.7546771E-02  0.1251895E+00
         21   -1    0    0  501  502  0.00000000000E+00  0.00000000000E+00  0.10995552203E+03  0.10995552203E+03  0.00000000000E+00 0.  1.
          3   -1    0    0  502    0 -0.00000000000E+00 -0.00000000000E+00 -0.28083466942E+03  0.28083466942E+03  0.00000000000E+00 0. -1.
         23    2    1    2    0    0  0.24607307111E+02 -0.65241137383E+02 -0.19970743621E+03  0.23165334419E+03  0.94436678384E+02 0.  0.
         23    2    1    2    0    0 -0.30079760101E-01  0.59964085855E+02 -0.13601997572E+02  0.10981933940E+03  0.90992200062E+02 0.  0.
        -11    1    3    3    0    0  0.12105002068E+02 -0.85702074122E+02 -0.11696562781E+03  0.14550716364E+03  0.00000000000E+00 0.  1.
         11    1    3    3    0    0  0.12502305043E+02  0.20460936739E+02 -0.82741808407E+02  0.86146180543E+02  0.00000000000E+00 0. -1.
        -13    1    4    4    0    0  0.23260130294E+02 -0.16781374519E+02 -0.16193816856E+01  0.28727523198E+02  0.00000000000E+00 0.  1.
         13    1    4    4    0    0 -0.23290210054E+02  0.76745460374E+02 -0.11982615887E+02  0.81091816207E+02  0.00000000000E+00 0. -1.
          3    1    1    2  501    0 -0.24577227351E+02  0.52770515278E+01  0.42430286399E+02  0.49317507854E+02  0.00000000000E+00 0. -1.
<scales pt_clust_5="13000.00000" pt_clust_6="13000.00000" pt_clust_7="13000.00000" pt_clust_8="13000.00000" pt_clust_9="25.13737"></scales>
<clustering>
<clus scale="   25.137">  1  9  2 -1</clus>
<clus scale="   90.992">  7  8 -1 -1</clus>
<clus scale="   94.437">  5  6 -1 -1</clus>
<clus scale="  112.728">  1  7  2 -1</clus>
<clus scale="   25.137">  1  5  2 -1</clus>
</clustering>
</event>
<event>
 9    1  0.1321469E-005  0.9991474E+02  0.7546771E-02  0.1281269E+00
         21   -1    0    0  501  502  0.00000000000E+00  0.00000000000E+00  0.11513062868E+03  0.11513062868E+03  0.00000000000E+00 0. -1.
         -3   -1    0    0    0  501 -0.00000000000E+00 -0.00000000000E+00 -0.50477159265E+03  0.50477159265E+03  0.00000000000E+00 0.  1.
         23    2    1    2    0    0  0.34496050327E+02 -0.16025533899E+02 -0.46082941478E+03  0.47118877114E+03  0.90599742222E+02 0.  0.
         23    2    1    2    0    0 -0.50298986891E+02 -0.24789730483E+01  0.49647756278E+02  0.11621497173E+03  0.92221941867E+02 0.  0.
        -11    1    4    4    0    0 -0.62253081323E+02  0.15227483913E+02  0.21394367742E+01  0.64124095239E+02  0.00000000000E+00 0. -1.
         11    1    4    4    0    0  0.11954094432E+02 -0.17706456961E+02  0.47508319503E+02  0.52090876493E+02  0.00000000000E+00 0.  1.
        -13    1    3    3    0    0  0.56642915929E+01 -0.50431075216E+02 -0.29776689363E+03  0.30206042523E+03  0.00000000000E+00 0.  1.
         13    1    3    3    0    0  0.28831758734E+02  0.34405541316E+02 -0.16306252115E+03  0.16912834590E+03  0.00000000000E+00 0. -1.
         -3    1    1    2    0  502  0.15802936564E+02  0.18504506947E+02  0.21540694532E+02  0.32498478462E+02  0.00000000000E+00 0.  1.
<scales pt_clust_5="13000.00000" pt_clust_6="13000.00000" pt_clust_7="13000.00000" pt_clust_8="13000.00000" pt_clust_9="24.33412"></scales>
<clustering>
<clus scale="   24.334">  1  9  2 -1</clus>
<clus scale="   90.600">  7  8 -1 -1</clus>
<clus scale="   92.222">  5  6 -1 -1</clus>
<clus scale="   98.419">  2  7  1 -1</clus>
<clus scale="   24.334">  1  5  2 -1</clus>
</clustering>
</event>
<event>
 9    1  0.1321469E-005  0.1152656E+03  0.7546771E-02  0.1252310E+00
         21   -1    0    0  501  502  0.00000000000E+00  0.00000000000E+00  0.14839007466E+03  0.14839007466E+03  0.00000000000E+00 0. -1.
          3   -1    0    0  502    0 -0.00000000000E+00 -0.00000000000E+00 -0.18367990794E+03  0.18367990794E+03  0.00000000000E+00 0. -1.
         23    2    1    2    0    0 -0.13431859266E+02  0.81186949135E+02 -0.62981301069E+02  0.14032694363E+03  0.94621727274E+02 0.  0.
         23    2    1    2    0    0  0.42339609321E+02 -0.37572786046E+02 -0.32257896802E+02  0.11217055911E+03  0.91308847631E+02 0.  0.
        -11    1    3    3    0    0  0.64519434858E+01  0.77390607986E+02 -0.81725423714E+02  0.11273854115E+03  0.00000000000E+00 0. -1.
         11    1    3    3    0    0 -0.19883802751E+02  0.37963411495E+01  0.18744122645E+02  0.27588402486E+02  0.00000000000E+00 0.  1.
        -11    1    4    4    0    0 -0.22337826141E+02 -0.67831471938E+01  0.13695144712E+02  0.27065597190E+02  0.00000000000E+00 0.  1.
         11    1    4    4    0    0  0.64677435462E+02 -0.30789638852E+02 -0.45953041514E+02  0.85104961918E+02  0.00000000000E+00 0. -1.
          3    1    1    2  501    0 -0.28907750056E+02 -0.43614163089E+02  0.59949364594E+02  0.79572479856E+02  0.00000000000E+00 0. -1.
<scales pt_clust_5="13000.00000" pt_clust_6="13000.00000" pt_clust_7="13000.00000" pt_clust_8="13000.00000" pt_clust_9="52.32450"></scales>
<clustering>
<clus scale="   52.324">  1  9  2 -1</clus>
<clus scale="   91.309">  7  8 -1 -1</clus>
<clus scale="   94.622">  5  6 -1 -1</clus>
<clus scale="  112.562">  1  7  2 -1</clus>
<clus scale="   52.324">  1  5  2 -1</clus>
</clustering>
</event>
<event>
 9    1  0.1321469E-005  0.1400369E+03  0.7546771E-02  0.1213887E+00
         -1   -1    0    0    0  501 -0.00000000000E+00  0.00000000000E+00  0.15867596029E+03  0.15867596029E+03  0.00000000000E+00 0.  1.
         21   -1    0    0  501  502  0.00000000000E+00 -0.00000000000E+00 -0.22712372929E+03  0.22712372929E+03  0.00000000000E+00 0. -1.
         23    2    1    2    0    0 -0.10658859262E+03  0.52811592350E+02  0.29522901140E+02  0.15297120950E+03  0.91533583350E+02 0.  0.
         23    2    1    2    0    0  0.86639377819E+02 -0.19201670579E+02 -0.22670900333E+01  0.12945162938E+03  0.94220479254E+02 0.  0.
        -13    1    4    4    0    0  0.25380511797E+01 -0.40719857433E+02 -0.10852534570E+02  0.42217602961E+02  0.00000000000E+00 0.  1.
         13    1    4    4    0    0  0.84101326639E+02  0.21518186854E+02  0.85854445369E+01  0.87234026422E+02  0.00000000000E+00 0. -1.
        -13    1    3    3    0    0 -0.43255895563E+02  0.69053695734E+02  0.61987008563E+00  0.81485395221E+02  0.00000000000E+00 0. -1.
         13    1    3    3    0    0 -0.63332697061E+02 -0.16242103384E+02  0.28903031054E+02  0.71485814281E+02  0.00000000000E+00 0.  1.
         -1    1    1    2    0  502  0.19949214805E+02 -0.33609921771E+02 -0.95703580115E+02  0.10337685069E+03  0.00000000000E+00 0.  1.
<scales pt_clust_5="13000.00000" pt_clust_6="13000.00000" pt_clust_7="13000.00000" pt_clust_8="13000.00000" pt_clust_9="39.08450"></scales>
<clustering>
<clus scale="   39.084">  2  9  1 -1</clus>
<clus scale="   91.534">  7  8 -1 -1</clus>
<clus scale="   94.220">  5  6 -1 -1</clus>
<clus scale="  138.243">  1  7  2 -1</clus>
<clus scale="   39.084">  2  5  1 -1</clus>
</clustering>
</event>
<event>
 9    1  0.1321469E-005  0.1632000E+03  0.7546771E-02  0.1192073E+00
         21   -1    0    0  501  502  0.00000000000E+00  0.00000000000E+00  0.38616152010E+02  0.38616152010E+02  0.00000000000E+00 0. -1.
          2   -1    0    0  502    0 -0.00000000000E+00 -0.00000000000E+00 -0.15801505510E+04  0.15801505510E+04  0.00000000000E+00 0. -1.
         23    2    1    2    0    0 -0.73203535465E+02  0.31940561464E+02 -0.81305108698E+03  0.82631731719E+03  0.12397290668E+03 0.  0.
         23    2    1    2    0    0  0.17145323799E+03 -0.16613727403E+02 -0.59423515460E+03  0.62538507588E+03  0.91207704759E+02 0.  0.
        -11    1    3    3    0    0  0.30581890600E+02  0.31042345753E+02 -0.22627105805E+03  0.23042888485E+03  0.00000000000E+00 0.  1.
         11    1    3    3    0    0 -0.10378542606E+03  0.89821571104E+00 -0.58678002893E+03  0.59588843235E+03  0.00000000000E+00 0. -1.
        -13    1    4    4    0    0  0.72748331561E+02 -0.25259170075E+02 -0.13352241968E+03  0.15413819116E+03  0.00000000000E+00 0.  1.
         13    1    4    4    0    0  0.98704906432E+02  0.86454426715E+01 -0.46071273492E+03  0.47124688471E+03  0.00000000000E+00 0. -1.
          2    1    1    2  501    0 -0.98249702528E+02 -0.15326834061E+02 -0.13424815745E+03  0.16706430998E+03  0.00000000000E+00 0. -1.
<scales pt_clust_5="13000.00000" pt_clust_6="13000.00000" pt_clust_7="13000.00000" pt_clust_8="13000.00000" pt_clust_9="99.43800"></scales>
<clustering>
<clus scale="   91.208">  7  8 -1 -1</clus>
<clus scale="   99.438">  1  9  2 -1</clus>
<clus scale="  123.973">  5  6 -1 -1</clus>
<clus scale="  139.942">  1  7  2 -1</clus>
<clus scale="   99.438">  1  5  2 -1</clus>
</clustering>
</event>
<event>
 9    1  0.1321469E-005  0.1513565E+03  0.7546771E-02  0.1199493E+00
         21   -1    0    0  501  502  0.00000000000E+00  0.00000000000E+00  0.42448161200E+02  0.42448161200E+02  0.00000000000E+00 0. -1.
          2   -1    0    0  502    0 -0.00000000000E+00 -0.00000000000E+00 -0.14423551925E+04  0.14423551925E+04  0.00000000000E+00 0. -1.
         23    2    1    2    0    0  0.92559326443E+02  0.41286448787E+02 -0.70755135211E+03  0.72059687165E+03  0.91428309587E+02 0.  0.
         23    2    1    2    0    0 -0.14986107037E+03 -0.41252266322E+02 -0.68326195602E+03  0.70618763313E+03  0.87715350699E+02 0.  0.
        -11    1    3    3    0    0  0.88776541223E+02  0.62929005900E+02 -0.64899193048E+03  0.65805156324E+03  0.00000000000E+00 0.  1.
         11    1    3    3    0    0  0.37827852205E+01 -0.21642557113E+02 -0.58559421628E+02  0.62545308408E+02  0.00000000000E+00 0. -1.
        -13    1    4    4    0    0 -0.87729818888E+02 -0.66172696242E+02 -0.46952169632E+03  0.48220946711E+03  0.00000000000E+00 0. -1.
         13    1    4    4    0    0 -0.62131251484E+02  0.24920429920E+02 -0.21374025970E+03  0.22397816602E+03  0.00000000000E+00 0.  1.
          2    1    1    2  501    0  0.57301743928E+02 -0.34182465315E-01 -0.90937231336E+01  0.58018848886E+02  0.00000000000E+00 0. -1.
<scales pt_clust_5="13000.00000" pt_clust_6="13000.00000" pt_clust_7="13000.00000" pt_clust_8="13000.00000" pt_clust_9="57.30175"></scales>
<clustering>
<clus scale="   57.302">  1  9  2 -1</clus>
<clus scale="   87.715">  7  8 -1 -1</clus>
<clus scale="   91.428">  5  6 -1 -1</clus>
<clus scale="  149.143">  1  7  2 -1</clus>
<clus scale="   57.302">  1  5  2 -1</clus>
</clustering>
</event>
<event>
 9    1  0.1321469E-005  0.1077782E+03  0.7546771E-02  0.1266130E+00
         21   -1    0    0  501  502  0.00000000000E+00  0.00000000000E+00  0.25250835689E+03  0.25250835689E+03  0.00000000000E+00 0.  1.
          1   -1    0    0  502    0 -0.00000000000E+00 -0.00000000000E+00 -0.15378815806E+03  0.15378815806E+03  0.00000000000E+00 0. -1.
         23    2    1    2    0    0  0.21302452670E+01 -0.60839504582E+02 -0.11368247600E+03  0.15591298477E+03  0.87630874737E+02 0.  0.
         23    2    1    2    0    0 -0.55492665319E+00  0.28019845579E+02  0.18289185584E+03  0.20621906388E+03  0.91057408731E+02 0.  0.
        -11    1    4    4    0    0  0.24738884691E+02  0.53172540473E+02  0.99139286169E+02  0.11518649894E+03  0.00000000000E+00 0.  1.
         11    1    4    4    0    0 -0.25293811344E+02 -0.25152694894E+02  0.83752569673E+02  0.91032564941E+02  0.00000000000E+00 0. -1.
        -13    1    3    3    0    0  0.21506804656E+02  0.10933841501E+02 -0.56617711449E+01  0.24781993240E+02  0.00000000000E+00 0.  1.
         13    1    3    3    0    0 -0.19376559389E+02 -0.71773346083E+02 -0.10802070485E+03  0.13113099153E+03  0.00000000000E+00 0. -1.
          1    1    1    2  501    0 -0.15753186138E+01  0.32819659004E+02  0.29510818996E+02  0.44164466301E+02  0.00000000000E+00 0. -1.
<scales pt_clust_5="13000.00000" pt_clust_6="13000.00000" pt_clust_7="13000.00000" pt_clust_8="13000.00000" pt_clust_9="32.85744"></scales>
<clustering>
<clus scale="   32.857">  1  9  2 -1</clus>
<clus scale="   87.631">  7  8 -1 -1</clus>
<clus scale="   91.057">  5  6 -1 -1</clus>
<clus scale="  104.899">  2  7  1 -1</clus>
<clus scale="   32.857">  1  5  2 -1</clus>
</clustering>
</event>
<event>
 9    1  0.1321469E-005  0.1974523E+03  0.7546771E-02  0.1152141E+00
         -1   -1    0    0    0  501 -0.00000000000E+00  0.00000000000E+00  0.30531415725E+03  0.30531415725E+03  0.00000000000E+00 0.  1.
         21   -1    0    0  501  502  0.00000000000E+00 -0.00000000000E+00 -0.19529009533E+03  0.19529009533E+03  0.00000000000E+00 0. -1.
         23    2    1    2    0    0 -0.12757534407E+03 -0.12148176397E+03  0.15041827895E+03  0.24900863395E+03  0.91358380834E+02 0.  0.
         23    2    1    2    0    0  0.15670914175E+03  0.82665732740E+02 -0.21164370288E+02  0.19939169680E+03  0.88981681867E+02 0.  0.
        -11    1    4    4    0    0  0.11870525444E+03  0.18499123563E+02 -0.31251177468E+02  0.12413617964E+03  0.00000000000E+00 0. -1.
         11    1    4    4    0    0  0.38003887312E+02  0.64166609177E+02  0.10086807180E+02  0.75255517161E+02  0.00000000000E+00 0.  1.
        -13    1    3    3    0    0 -0.83421257524E+02 -0.11696364859E+03  0.76434616102E+02  0.16273245478E+03  0.00000000000E+00 0. -1.
         13    1    3    3    0    0 -0.44154086543E+02 -0.45181153826E+01  0.73983662846E+02  0.86276179176E+02  0.00000000000E+00 0.  1.
         -1    1    1    2    0  502 -0.29133797680E+02  0.38816031233E+02 -0.19229846745E+02  0.52203921824E+02  0.00000000000E+00 0.  1.
<scales pt_clust_5="13000.00000" pt_clust_6="13000.00000" pt_clust_7="13000.00000" pt_clust_8="13000.00000" pt_clust_9="48.53311"></scales>
<clustering>
<clus scale="   48.533">  2  9  1 -1</clus>
<clus scale="   88.982">  5  6 -1 -1</clus>
<clus scale="   91.358">  7  8 -1 -1</clus>
<clus scale="  196.364">  2  5  1 -1</clus>
<clus scale="   48.533">  2  5  1 -1</clus>
</clustering>
</event>
<event>
 9    1  0.1321469E-005  0.1167085E+03  0.7546771E-02  0.1248709E+00
          1   -1    0    0  502    0 -0.00000000000E+00  0.00000000000E+00  0.28626894248E+03  0.28626894248E+03  0.00000000000E+00 0. -1.
         21   -1    0    0  501  502  0.00000000000E+00 -0.00000000000E+00 -0.17291092962E+03  0.17291092962E+03  0.00000000000E+00 0.  1.
         23    2    1    2    0    0 -0.65224868855E+02 -0.28619610149E+02  0.22814914527E+03  0.25635215309E+03  0.92687800187E+02 0.  0.
         23    2    1    2    0    0  0.50964422354E+02  0.49146535894E+02 -0.39222665038E+02  0.12323306923E+03  0.92925871327E+02 0.  0.
        -11    1    4    4    0    0  0.72924630704E+02  0.14260912789E+02 -0.16323892752E+02  0.76077886876E+02  0.00000000000E+00 0.  1.
         11    1    4    4    0    0 -0.21960208350E+02  0.34885623105E+02 -0.22898772287E+02  0.47155182350E+02  0.00000000000E+00 0. -1.
        -13    1    3    3    0    0  0.23001725668E+02 -0.15137466805E+02  0.58586706483E+02  0.64735032721E+02  0.00000000000E+00 0.  1.
         13    1    3    3    0    0 -0.88226594523E+02 -0.13482143344E+02  0.16956243878E+03  0.19161712036E+03  0.00000000000E+00 0. -1.
          1    1    1    2  501    0  0.14260446501E+02 -0.20526925745E+02 -0.75568467365E+02  0.79594649788E+02  0.00000000000E+00 0. -1.
<scales pt_clust_5="13000.00000" pt_clust_6="13000.00000" pt_clust_7="13000.00000" pt_clust_8="13000.00000" pt_clust_9="24.99430"></scales>
<clustering>
<clus scale="   24.994">  2  9  1 -1</clus>
<clus scale="   92.688">  7  8 -1 -1</clus>
<clus scale="   92.926">  5  6 -1 -1</clus>
<clus scale="  116.519">  1  7  2 -1</clus>
<clus scale="   24.994">  2  5  1 -1</clus>
</clustering>
</event>
<event>
 9    1  0.1321469E-005  0.1347535E+03  0.7546771E-02  0.1221434E+00
         21   -1    0    0  501  502  0.00000000000E+00  0.00000000000E+00  0.38868828900E+03  0.38868828900E+03  0.00000000000E+00 0. -1.
         -1   -1    0    0    0  501 -0.00000000000E+00 -0.00000000000E+00 -0.79096966869E+02  0.79096966869E+02  0.00000000000E+00 0.  1.
         23    2    1    2    0    0  0.10677488409E+03  0.13971937640E+02  0.43705992967E+02  0.14846714192E+03  0.92391490384E+02 0.  0.
         23    2    1    2    0    0 -0.70347047892E+02 -0.10766701907E+02  0.25788747060E+03  0.28188515350E+03  0.88818147100E+02 0.  0.
        -11    1    3    3    0    0  0.63822454316E+02  0.23946703500E+01  0.71610950823E+02  0.95953991052E+02  0.00000000000E+00 0. -1.
         11    1    3    3    0    0  0.42952429775E+02  0.11577267290E+02 -0.27904957855E+02  0.52513150871E+02  0.00000000000E+00 0.  1.
        -13    1    4    4    0    0 -0.43915634680E+02  0.37238959942E+02  0.15433646182E+03  0.16472724897E+03  0.00000000000E+00 0. -1.
         13    1    4    4    0    0 -0.26431413212E+02 -0.48005661850E+02  0.10355100878E+03  0.11715790453E+03  0.00000000000E+00 0.  1.
         -1    1    1    2    0  502 -0.36427836199E+02 -0.32052357327E+01  0.79978585659E+01  0.37432960448E+02  0.00000000000E+00 0.  1.
<scales pt_clust_5="13000.00000" pt_clust_6="13000.00000" pt_clust_7="13000.00000" pt_clust_8="13000.00000" pt_clust_9="36.56859"></scales>
<clustering>
<clus scale="   36.569">  1  9  2 -1</clus>
<clus scale="   88.818">  7  8 -1 -1</clus>
<clus scale="   92.391">  5  6 -1 -1</clus>
<clus scale="  132.329">  1  7  2 -1</clus>
<clus scale="   36.569">  1  5  2 -1</clus>
</clustering>
</event>
<event>
 9    1  0.1321469E-005  0.1543342E+03  0.7546771E-02  0.1195505E+00
          1   -1    0    0  502    0 -0.00000000000E+00  0.00000000000E+00  0.17935372379E+03  0.17935372379E+03  0.00000000000E+00 0. -1.
         21   -1    0    0  501  502  0.00000000000E+00 -0.00000000000E+00 -0.30585175102E+03  0.30585175102E+03  0.00000000000E+00 0. -1.
         23    2    1    2    0    0 -0.11808397941E+03 -0.64015032823E+02  0.10247301693E+03  0.19036050294E+03  0.87719161304E+02 0.  0.
         23    2    1    2    0    0  0.88849785494E+02  0.17322997370E+02 -0.18449145687E+03  0.22404089038E+03  0.89234815434E+02 0.  0.
        -13    1    3    3    0    0  0.10888507282E+02 -0.21957825308E+02  0.11891441779E+02  0.27241733988E+02  0.00000000000E+00 0.  1.
         13    1    3    3    0    0 -0.12897248669E+03 -0.42057207516E+02  0.90581575153E+02  0.16311876895E+03  0.00000000000E+00 0. -1.
        -13    1    4    4    0    0  0.10192781127E+03  0.73184809868E+00 -0.12734901130E+03  0.16311831593E+03  0.00000000000E+00 0. -1.
         13    1    4    4    0    0 -0.13078025779E+02  0.16591149271E+02 -0.57142445566E+02  0.60922574451E+02  0.00000000000E+00 0.  1.
          1    1    1    2  501    0  0.29234193913E+02  0.46692035453E+02 -0.44479587296E+02  0.70804081482E+02  0.00000000000E+00 0. -1.
<scales pt_clust_5="13000.00000" pt_clust_6="13000.00000" pt_clust_7="13000.00000" pt_clust_8="13000.00000" pt_clust_9="55.08888"></scales>
<clustering>
<clus scale="   55.089">  2  9  1 -1</clus>
<clus scale="   87.719">  5  6 -1 -1</clus>
<clus scale="   89.235">  7  8 -1 -1</clus>
<clus scale="  153.463">  1  5  2 -1</clus>
<clus scale="   55.089">  2  5  1 -1</clus>
</clustering>
</event>
<event>
 9    1  0.1321469E-005  0.9858722E+02  0.7546771E-02  0.1283705E+00
         21   -1    0    0  501  502  0.00000000000E+00  0.00000000000E+00  0.26374379126E+03  0.26374379126E+03  0.00000000000E+00 0. -1.
          4   -1    0    0  502    0 -0.00000000000E+00 -0.00000000000E+00 -0.61446480044E+02  0.61446480044E+02  0.00000000000E+00 0. -1.
         23    2    1    2    0    0  0.51662675260E+01  0.30054087443E+02  0.33536017792E+02  0.10071983276E+03  0.89943769817E+02 0.  0.
         23    2    1    2    0    0  0.23426025236E+02 -0.56163513995E+02  0.12554547293E+03  0.16644606004E+03  0.90771725590E+02 0.  0.
        -13    1    4    4    0    0  0.29106670503E+02  0.13597010707E+01  0.98330055071E+02  0.10255655408E+03  0.00000000000E+00 0.  1.
         13    1    4    4    0    0 -0.56806452677E+01 -0.57523215066E+02  0.27215417856E+02  0.63889505956E+02  0.00000000000E+00 0. -1.
        -13    1    3    3    0    0  0.84043532114E+01 -0.19383663176E+02  0.45136325027E+02  0.49836205594E+02  0.00000000000E+00 0. -1.
         13    1    3    3    0    0 -0.32380856854E+01  0.49437750619E+02 -0.11600307235E+02  0.50883627162E+02  0.00000000000E+00 0.  1.
          4    1    1    2  501    0 -0.28592292762E+02  0.26109426553E+02  0.43215820495E+02  0.58024378509E+02  0.00000000000E+00 0. -1.
<scales pt_clust_5="13000.00000" pt_clust_6="13000.00000" pt_clust_7="13000.00000" pt_clust_8="13000.00000" pt_clust_9="38.71978"></scales>
<clustering>
<clus scale="   38.720">  1  9  2 -1</clus>
<clus scale="   89.944">  7  8 -1 -1</clus>
<clus scale="   90.772">  5  6 -1 -1</clus>
<clus scale="   97.825">  2  7  1 -1</clus>
<clus scale="   38.720">  1  5  2 -1</clus>
</clustering>
</event>
<event>
 9    1  0.1321469E-005  0.1009516E+03  0.7546771E-02  0.1278389E+00
         21   -1    0    0  501  502  0.00000000000E+00  0.00000000000E+00  0.62922606985E+02  0.62922606985E+02  0.00000000000E+00 0. -1.
          1   -1    0    0  502    0 -0.00000000000E+00 -0.00000000000E+00 -0.23656868394E+03  0.23656868394E+03  0.00000000000E+00 0. -1.
         23    2    1    2    0    0  0.15704900901E+02  0.51086958853E+02 -0.13839877201E+03  0.17352747205E+03  0.90005789724E+02 0.  0.
         23    2    1    2    0    0 -0.16386658561E+02 -0.25579945668E+02 -0.31100513060E+02  0.10011293112E+03  0.90180379604E+02 0.  0.
        -11    1    4    4    0    0 -0.30260806537E+02 -0.53511328330E+02 -0.95699637340E+01  0.62215455297E+02  0.00000000000E+00 0.  1.
         11    1    4    4    0    0  0.13874147975E+02  0.27931382662E+02 -0.21530549326E+02  0.37897475823E+02  0.00000000000E+00 0. -1.
        -13    1    3    3    0    0 -0.31365479899E+02  0.36383880031E+02 -0.36525764573E+02  0.60346595041E+02  0.00000000000E+00 0.  1.
         13    1    3    3    0    0  0.47070380800E+02  0.14703078822E+02 -0.10187300744E+03  0.11318087701E+03  0.00000000000E+00 0. -1.
          1    1    1    2  501    0  0.68175766023E+00 -0.25507013185E+02 -0.41467918879E+01  0.25850887762E+02  0.00000000000E+00 0. -1.
<scales pt_clust_5="13000.00000" pt_clust_6="13000.00000" pt_clust_7="13000.00000" pt_clust_8="13000.00000" pt_clust_9="25.51612"></scales>
<clustering>
<clus scale="   25.516">  1  9  2 -1</clus>
<clus scale="   90.006">  7  8 -1 -1</clus>
<clus scale="   90.180">  5  6 -1 -1</clus>
<clus scale="  100.796">  2  7  1 -1</clus>
<clus scale="   25.516">  1  5  2 -1</clus>
</clustering>
</event>
<event>
 9    1  0.1321469E-005  0.1264302E+03  0.7546771E-02  0.1233715E+00
         21   -1    0    0  501  502  0.00000000000E+00  0.00000000000E+00  0.27390633971E+03  0.27390633971E+03  0.00000000000E+00 0. -1.
          1   -1    0    0  502    0 -0.00000000000E+00 -0.00000000000E+00 -0.46185399681E+03  0.46185399681E+03  0.00000000000E+00 0. -1.
         23    2    1    2    0    0  0.14052394917E+02 -0.87982291854E+02 -0.40916240964E+03  0.42878937283E+03  0.92239337082E+02 0.  0.
         23    2    1    2    0    0 -0.64337528257E+02  0.48893481687E+02  0.61743070941E+02  0.13525099703E+03  0.89166895730E+02 0.  0.
        -11    1    3    3    0    0 -0.13899512487E+02 -0.70078215824E+02 -0.37267799840E+03  0.37946415281E+03  0.00000000000E+00 0. -1.
         11    1    3    3    0    0  0.27951907404E+02 -0.17904076031E+02 -0.36484411250E+02  0.49325220022E+02  0.00000000000E+00 0.  1.
        -11    1    4    4    0    0 -0.31066339537E+02  0.62578705673E+02  0.69392494788E+02  0.98470961145E+02  0.00000000000E+00 0.  1.
         11    1    4    4    0    0 -0.33271188720E+02 -0.13685223986E+02 -0.76494238463E+01  0.36780035883E+02  0.00000000000E+00 0. -1.
          1    1    1    2  501    0  0.50285133341E+02  0.39088810168E+02  0.15947168160E+03  0.17171996666E+03  0.00000000000E+00 0. -1.
<scales pt_clust_5="13000.00000" pt_clust_6="13000.00000" pt_clust_7="13000.00000" pt_clust_8="13000.00000" pt_clust_9="63.69089"></scales>
<clustering>
<clus scale="   63.691">  1  9  2 -1</clus>
<clus scale="   89.167">  7  8 -1 -1</clus>
<clus scale="   92.239">  5  6 -1 -1</clus>
<clus scale="  124.206">  1  7  2 -1</clus>
<clus scale="   63.691">  1  5  2 -1</clus>
</clustering>
</event>
<event>
 9    1  0.1321469E-005  0.1363601E+03  0.7546771E-02  0.1218581E+00
         21   -1    0    0  501  502  0.00000000000E+00  0.00000000000E+00  0.47417144141E+03  0.47417144141E+03  0.00000000000E+00 0.  1.
          1   -1    0    0  502    0 -0.00000000000E+00 -0.00000000000E+00 -0.70161006903E+02  0.70161006903E+02  0.00000000000E+00 0. -1.
         23    2    1    2    0    0 -0.90964447075E+02 -0.67167846107E+02  0.93544962137E+02  0.17436733395E+03  0.94166113988E+02 0.  0.
         23    2    1    2    0    0  0.52190691314E+02  0.67219914841E+02  0.11490258882E+03  0.17059548712E+03  0.93047461530E+02 0.  0.
        -13    1    3    3    0    0 -0.30145016449E+02 -0.38905556049E+02  0.95322093360E+02  0.10727844980E+03  0.00000000000E+00 0.  1.
         13    1    3    3    0    0 -0.60819430626E+02 -0.28262290058E+02 -0.17771312225E+01  0.67088884149E+02  0.00000000000E+00 0. -1.
        -13    1    4    4    0    0 -0.26977793534E+02  0.17088355781E+02  0.35723797490E+02  0.47916625031E+02  0.00000000000E+00 0. -1.
         13    1    4    4    0    0  0.79168484848E+02  0.50131559059E+02  0.79178791334E+02  0.12267886209E+03  0.00000000000E+00 0.  1.
          1    1    1    2  501    0  0.38773755761E+02 -0.52068733813E-01  0.19556288354E+03  0.19936962724E+03  0.00000000000E+00 0. -1.
<scales pt_clust_5="13000.00000" pt_clust_6="13000.00000" pt_clust_7="13000.00000" pt_clust_8="13000.00000" pt_clust_9="38.77379"></scales>
<clustering>
<clus scale="   38.774">  1  9  2 -1</clus>
<clus scale="   93.047">  7  8 -1 -1</clus>
<clus scale="   94.166">  5  6 -1 -1</clus>
<clus scale="  135.590">  1  7  2 -1</clus>
<clus scale="   38.774">  1  5  2 -1</clus>
</clustering>
</event>
<event>
 9    1  0.1321469E-005  0.1381570E+03  0.7546771E-02  0.1216163E+00
         -1   -1    0    0    0  501 -0.00000000000E+00  0.00000000000E+00  0.23919731561E+03  0.23919731561E+03  0.00000000000E+00 0.  1.
         21   -1    0    0  501  502  0.00000000000E+00 -0.00000000000E+00 -0.16713665721E+03  0.16713665721E+03  0.00000000000E+00 0.  1.
         23    2    1    2    0    0  0.10310716721E+03 -0.25758713644E+02  0.16394405057E+03  0.21641848961E+03  0.93084433014E+02 0.  0.
         23    2    1    2    0    0 -0.84018024962E+02 -0.11442697834E+00 -0.96566264998E+02  0.15742326790E+03  0.91640603059E+02 0.  0.
        -11    1    4    4    0    0 -0.25167350706E+02  0.10500252559E+02  0.14792521153E+02  0.31023693001E+02  0.00000000000E+00 0. -1.
         11    1    4    4    0    0 -0.58850674255E+02 -0.10614679538E+02 -0.11135878615E+03  0.12639957490E+03  0.00000000000E+00 0.  1.
        -13    1    3    3    0    0  0.34257825455E+02  0.17054554168E+02  0.11617834611E+03  0.12231870064E+03  0.00000000000E+00 0. -1.
         13    1    3    3    0    0  0.68849341757E+02 -0.42813267812E+02  0.47765704460E+02  0.94099788967E+02  0.00000000000E+00 0.  1.
         -1    1    1    2    0  502 -0.19089142250E+02  0.25873140622E+02  0.46828728346E+01  0.32492215306E+02  0.00000000000E+00 0.  1.
<scales pt_clust_5="13000.00000" pt_clust_6="13000.00000" pt_clust_7="13000.00000" pt_clust_8="13000.00000" pt_clust_9="32.15299"></scales>
<clustering>
<clus scale="   32.153">  2  9  1 -1</clus>
<clus scale="   91.641">  5  6 -1 -1</clus>
<clus scale="   93.084">  7  8 -1 -1</clus>
<clus scale="  137.188">  2  5  1 -1</clus>
<clus scale="   32.153">  2  5  1 -1</clus>
</clustering>
</event>
<event>
 9    1  0.1321469E-005  0.1181714E+03  0.7546771E-02  0.1246236E+00
          1   -1    0    0  502    0 -0.00000000000E+00  0.00000000000E+00  0.61230910696E+02  0.61230910696E+02  0.00000000000E+00 0. -1.
         21   -1    0    0  501  502  0.00000000000E+00 -0.00000000000E+00 -0.68218623862E+03  0.68218623862E+03  0.00000000000E+00 0.  1.
         23    2    1    2    0    0 -0.35219885681E+02 -0.58786290439E+02 -0.57610960025E+02  0.12590108050E+03  0.88520003762E+02 0.  0.
         23    2    1    2    0    0  0.11616655037E+03  0.73174736279E+02 -0.43992245335E+03  0.46921785949E+03  0.88229389908E+02 0.  0.
        -11    1    3    3    0    0  0.27780465847E+02 -0.87278491007E+01 -0.27298827506E+02  0.39914353506E+02  0.00000000000E+00 0.  1.
         11    1    3    3    0    0 -0.63000351528E+02 -0.50058441338E+02 -0.30312132519E+02  0.85986726997E+02  0.00000000000E+00 0. -1.
        -13    1    4    4    0    0  0.11248826550E+03  0.43211999005E+02 -0.40738491103E+03  0.42483332316E+03  0.00000000000E+00 0.  1.
         13    1    4    4    0    0  0.36782848691E+01  0.29962737274E+02 -0.32537542327E+02  0.44384536329E+02  0.00000000000E+00 0. -1.
          1    1    1    2  501    0 -0.80946664693E+02 -0.14388445840E+02 -0.12342191455E+03  0.14829820933E+03  0.00000000000E+00 0. -1.
<scales pt_clust_5="13000.00000" pt_clust_6="13000.00000" pt_clust_7="13000.00000" pt_clust_8="13000.00000" pt_clust_9="82.21555"></scales>
<clustering>
<clus scale="   82.216">  2  9  1 -1</clus>
<clus scale="   88.229">  7  8 -1 -1</clus>
<clus scale="   88.520">  5  6 -1 -1</clus>
<clus scale="  117.954">  2  7  1 -1</clus>
<clus scale="   82.216">  2  5  1 -1</clus>
</clustering>
</event>
<event>
 9    1  0.1321469E-005  0.1902190E+03  0.7546771E-02  0.1158482E+00
         -1   -1    0    0    0  501 -0.00000000000E+00  0.00000000000E+00  0.21840040063E+03  0.21840040063E+03  0.00000000000E+00 0.  1.
         21   -1    0    0  501  502  0.00000000000E+00 -0.00000000000E+00 -0.24154515693E+03  0.24154515693E+03  0.00000000000E+00 0. -1.
         23    2    1    2    0    0 -0.22877124393E+02 -0.15110235219E+03  0.37535988846E+02  0.17983455267E+03  0.87041554529E+02 0.  0.
         23    2    1    2    0    0  0.32633603155E+01  0.19305987994E+03 -0.12126883842E+02  0.21300950474E+03  0.89124749827E+02 0.  0.
        -11    1    4    4    0    0 -0.22539418675E+02  0.18062188927E+03 -0.20482450595E+02  0.18317156729E+03  0.00000000000E+00 0. -1.
         11    1    4    4    0    0  0.25802778991E+02  0.12437990668E+02  0.83555667522E+01  0.29837937450E+02  0.00000000000E+00 0.  1.
        -13    1    3    3    0    0  0.94083124722E+01 -0.11333922514E+03  0.56079434528E+02  0.12680378257E+03  0.00000000000E+00 0.  1.
         13    1    3    3    0    0 -0.32285436865E+02 -0.37763127058E+02 -0.18543445682E+02  0.53030770092E+02  0.00000000000E+00 0. -1.
         -1    1    1    2    0  502  0.19613764077E+02 -0.41957527749E+02 -0.48553861299E+02  0.67101500156E+02  0.00000000000E+00 0.  1.
<scales pt_clust_5="13000.00000" pt_clust_6="13000.00000" pt_clust_7="13000.00000" pt_clust_8="13000.00000" pt_clust_9="46.31559"></scales>
<clustering>
<clus scale="   46.316">  2  9  1 -1</clus>
<clus scale="   87.042">  7  8 -1 -1</clus>
<clus scale="   89.125">  5  6 -1 -1</clus>
<clus scale="  189.252">  1  7  2 -1</clus>
<clus scale="   46.316">  2  5  1 -1</clus>
</clustering>
</event>
<event>
 9    1  0.1321469E-005  0.9729253E+02  0.7546771E-02  0.1286171E+00
          1   -1    0    0  502    0 -0.00000000000E+00  0.00000000000E+00  0.69872732796E+03  0.69872732796E+03  0.00000000000E+00 0. -1.
         21   -1    0    0  501  502  0.00000000000E+00 -0.00000000000E+00 -0.18866031167E+02  0.18866031167E+02  0.00000000000E+00 0.  1.
         23    2    1    2    0    0 -0.25027758322E+02 -0.20671772131E+02  0.40828305627E+03  0.41956288521E+03  0.91017854057E+02 0.  0.
         23    2    1    2    0    0  0.13056548659E+02  0.39713512160E+02  0.22851296542E+03  0.24944533582E+03  0.90868936871E+02 0.  0.
        -11    1    3    3    0    0 -0.57899166867E+02 -0.11187884442E+01  0.22511528844E+03  0.23244452736E+03  0.00000000000E+00 0.  1.
         11    1    3    3    0    0  0.32871408545E+02 -0.19552983687E+02  0.18316776783E+03  0.18711835784E+03  0.00000000000E+00 0. -1.
        -13    1    4    4    0    0 -0.43036932656E+01  0.67259018267E+02  0.14972104854E+03  0.16419101586E+03  0.00000000000E+00 0.  1.
         13    1    4    4    0    0  0.17360241925E+02 -0.27545506107E+02  0.78791916883E+02  0.85254319964E+02  0.00000000000E+00 0. -1.
          1    1    1    2  501    0  0.11971209663E+02 -0.19041740030E+02  0.43065275103E+02  0.48585138097E+02  0.00000000000E+00 0. -1.
<scales pt_clust_5="13000.00000" pt_clust_6="13000.00000" pt_clust_7="13000.00000" pt_clust_8="13000.00000" pt_clust_9="22.49217"></scales>
<clustering>
<clus scale="   22.492">  2  9  1 -1</clus>
<clus scale="   90.869">  7  8 -1 -1</clus>
<clus scale="   91.018">  5  6 -1 -1</clus>
<clus scale="   97.153">  2  7  1 -1</clus>
<clus scale="   22.492">  2  5  1 -1</clus>
</clustering>
</event>
<event>
 9    1  0.1321469E-005  0.1159474E+03  0.7546771E-02  0.1250000E+00
          2   -1    0    0  502    0 -0.00000000000E+00  0.00000000000E+00  0.60543314376E+03  0.60543314376E+03  0.00000000000E+00 0. -1.
         21   -1    0    0  501  502  0.00000000000E+00 -0.00000000000E+00 -0.35337412806E+02  0.35337412806E+02  0.00000000000E+00 0.  1.
         23    2    1    2    0    0 -0.14880652595E+02 -0.43698180960E+02  0.27084349750E+03  0.29158313183E+03  0.97639939515E+02 0.  0.
         23    2    1    2    0    0  0.12737498270E+02  0.89292502151E+02  0.24119173807E+03  0.27533313333E+03  0.97465301477E+02 0.  0.
        -13    1    4    4    0    0 -0.12632884007E+02  0.59932226397E+02  0.22517137103E+03  0.23335296838E+03  0.00000000000E+00 0. -1.
         13    1    4    4    0    0  0.25370382277E+02  0.29360275753E+02  0.16020367043E+02  0.41980164952E+02  0.00000000000E+00 0.  1.
        -13    1    3    3    0    0 -0.49129711991E+02 -0.47255132440E+02  0.13235173321E+03  0.14887497246E+03  0.00000000000E+00 0. -1.
         13    1    3    3    0    0  0.34249059396E+02  0.35569514802E+01  0.13849176430E+03  0.14270815937E+03  0.00000000000E+00 0.  1.
          2    1    1    2  501    0  0.21431543253E+01 -0.45594321191E+02  0.58060495376E+02  0.73854291403E+02  0.00000000000E+00 0. -1.
<scales pt_clust_5="13000.00000" pt_clust_6="13000.00000" pt_clust_7="13000.00000" pt_clust_8="13000.00000" pt_clust_9="45.64466"></scales>
<clustering>
<clus scale="   45.645">  2  9  1 -1</clus>
<clus scale="   97.465">  5  6 -1 -1</clus>
<clus scale="   97.640">  7  8 -1 -1</clus>
<clus scale="  115.800">  2  5  1 -1</clus>
<clus scale="   45.645">  2  5  1 -1</clus>
</clustering>
</event>
<event>
 9    1  0.1321469E-005  0.1124133E+03  0.7546771E-02  0.1260807E+00
         21   -1    0    0  501  502  0.00000000000E+00  0.00000000000E+00  0.21624870508E+03  0.21624870508E+03  0.00000000000E+00 0.  1.
          2   -1    0    0  502    0 -0.00000000000E+00 -0.00000000000E+00 -0.11588150631E+03  0.11588150631E+03  0.00000000000E+00 0. -1.
         23    2    1    2    0    0  0.50641671926E+02 -0.46881915968E+01 -0.12929456746E+02  0.10456703470E+03  0.90446314562E+02 0.  0.
         23    2    1    2    0    0 -0.10991506029E+03 -0.11984468307E+02  0.85467094943E+02  0.15999249816E+03  0.77897542896E+02 0.  0.
        -11    1    4    4    0    0 -0.90922620509E+02 -0.30158272355E+02  0.33017413935E+02  0.10132420212E+03  0.00000000000E+00 0. -1.
         11    1    4    4    0    0 -0.18992439783E+02  0.18173804048E+02  0.52449681008E+02  0.58668296041E+02  0.00000000000E+00 0.  1.
        -13    1    3    3    0    0  0.58142348753E+02  0.21727052459E+02 -0.33242675544E+02  0.70410744950E+02  0.00000000000E+00 0.  1.
         13    1    3    3    0    0 -0.75006768270E+01 -0.26415244056E+02  0.20313218798E+02  0.34156289748E+02  0.00000000000E+00 0. -1.
          2    1    1    2  501    0  0.59273388365E+02  0.16672659904E+02  0.27829560565E+02  0.67570678536E+02  0.00000000000E+00 0. -1.
<scales pt_clust_5="13000.00000" pt_clust_6="13000.00000" pt_clust_7="13000.00000" pt_clust_8="13000.00000" pt_clust_9="61.57363"></scales>
<clustering>
<clus scale="   61.574">  1  9  2 -1</clus>
<clus scale="   77.898">  5  6 -1 -1</clus>
<clus scale="   90.446">  7  8 -1 -1</clus>
<clus scale="  102.588">  1  5  2 -1</clus>
<clus scale="   61.574">  1  5  2 -1</clus>
</clustering>
</event>
<event>
 9    1  0.1321469E-005  0.1140085E+03  0.7546771E-02  0.1253579E+00
         21   -1    0    0  501  502  0.00000000000E+00  0.00000000000E+00  0.37491059546E+03  0.37491059546E+03  0.00000000000E+00 0. -1.
          1   -1    0    0  502    0 -0.00000000000E+00 -0.00000000000E+00 -0.10388854943E+03  0.10388854943E+03  0.00000000000E+00 0. -1.
         23    2    1    2    0    0 -0.35185803290E+02  0.72867450260E+02 -0.11177939591E+02  0.12360079784E+03  0.92760470204E+02 0.  0.
         23    2    1    2    0    0 -0.84290194498E+01 -0.50944596978E+02  0.47958585814E+02  0.11592465931E+03  0.92044013129E+02 0.  0.
        -13    1    3    3    0    0 -0.28518457441E+02 -0.16740347827E+02 -0.58955236147E+01  0.33590160150E+02  0.00000000000E+00 0.  1.
         13    1    3    3    0    0 -0.66673458489E+01  0.89607798087E+02 -0.52824159758E+01  0.90010637690E+02  0.00000000000E+00 0. -1.
        -13    1    4    4    0    0  0.19989987316E+02  0.31823166685E+01  0.50841446823E+02  0.54722750729E+02  0.00000000000E+00 0.  1.
         13    1    4    4    0    0 -0.28419006766E+02 -0.54126913647E+02 -0.28828610088E+01  0.61201908582E+02  0.00000000000E+00 0. -1.
          1    1    1    2  501    0  0.43614822740E+02 -0.21922853282E+02  0.23424139981E+03  0.23927368774E+03  0.00000000000E+00 0. -1.
<scales pt_clust_5="13000.00000" pt_clust_6="13000.00000" pt_clust_7="13000.00000" pt_clust_8="13000.00000" pt_clust_9="48.81459"></scales>
<clustering>
<clus scale="   48.815">  1  9  2 -1</clus>
<clus scale="   92.044">  7  8 -1 -1</clus>
<clus scale="   92.760">  5  6 -1 -1</clus>
<clus scale="  113.426">  1  7  2 -1</clus>
<clus scale="   48.815">  1  5  2 -1</clus>
</clustering>
</event>
<event>
 9    1  0.1321469E-005  0.9552103E+02  0.7546771E-02  0.1290149E+00
          1   -1    0    0  502    0 -0.00000000000E+00  0.00000000000E+00  0.69893464404E+03  0.69893464404E+03  0.00000000000E+00 0. -1.
         21   -1    0    0  501  502  0.00000000000E+00 -0.00000000000E+00 -0.52684728567E+02  0.52684728567E+02  0.00000000000E+00 0. -1.
         23    2    1    2    0    0  0.19761181096E+02 -0.11259320683E+02  0.44008753669E+03  0.44991302951E+03  0.90705113416E+02 0.  0.
         23    2    1    2    0    0 -0.91971193597E+02  0.86768841836E+01  0.68672004064E+02  0.14638552020E+03  0.90437202580E+02 0.  0.
        -11    1    3    3    0    0 -0.32508750765E+02 -0.19229568058E+02  0.13102763996E+03  0.13636288937E+03  0.00000000000E+00 0.  1.
         11    1    3    3    0    0  0.52269931860E+02  0.79702473750E+01  0.30905989672E+03  0.31355014014E+03  0.00000000000E+00 0. -1.
        -13    1    4    4    0    0 -0.25179287836E+02  0.11953586087E+02  0.74222393000E+02  0.79283342380E+02  0.00000000000E+00 0.  1.
         13    1    4    4    0    0 -0.66791905761E+02 -0.32767019036E+01 -0.55503889356E+01  0.67102177817E+02  0.00000000000E+00 0. -1.
          1    1    1    2  501    0  0.72210012501E+02  0.25824364994E+01  0.13749037473E+03  0.15532082290E+03  0.00000000000E+00 0. -1.
<scales pt_clust_5="13000.00000" pt_clust_6="13000.00000" pt_clust_7="13000.00000" pt_clust_8="13000.00000" pt_clust_9="72.25621"></scales>
<clustering>
<clus scale="   72.256">  2  9  1 -1</clus>
<clus scale="   90.437">  7  8 -1 -1</clus>
<clus scale="   90.705">  5  6 -1 -1</clus>
<clus scale="   95.267">  2  7  1 -1</clus>
<clus scale="   72.256">  2  5  1 -1</clus>
</clustering>
</event>
<event>
 9    1  0.1321469E-005  0.2038522E+03  0.7546771E-02  0.1146628E+00
          1   -1    0    0  502    0 -0.00000000000E+00  0.00000000000E+00  0.91499983427E+02  0.91499983427E+02  0.00000000000E+00 0. -1.
         21   -1    0    0  501  502  0.00000000000E+00 -0.00000000000E+00 -0.67234869136E+03  0.67234869136E+03  0.00000000000E+00 0. -1.
         23    2    1    2    0    0 -0.10078611828E+03  0.14948206654E+03 -0.10472413514E+03  0.22746000946E+03  0.90929541766E+02 0.  0.
         23    2    1    2    0    0  0.73132087322E+02 -0.17400140244E+03 -0.40983812401E+03  0.46049507830E+03  0.91998037991E+02 0.  0.
        -11    1    4    4    0    0  0.67367236022E+01 -0.46507120523E+02 -0.33705686604E+02  0.57830519742E+02  0.00000000000E+00 0.  1.
         11    1    4    4    0    0  0.66395363720E+02 -0.12749428192E+03 -0.37613243741E+03  0.40266455855E+03  0.00000000000E+00 0. -1.
        -13    1    3    3    0    0 -0.13217246344E+02  0.91592896280E+02 -0.72784041472E+02  0.11773474824E+03  0.00000000000E+00 0.  1.
         13    1    3    3    0    0 -0.87568871937E+02  0.57889170259E+02 -0.31940093670E+02  0.10972526122E+03  0.00000000000E+00 0. -1.
          1    1    1    2  501    0  0.27654030958E+02  0.24519335899E+02 -0.66286448779E+02  0.75893587034E+02  0.00000000000E+00 0. -1.
<scales pt_clust_5="13000.00000" pt_clust_6="13000.00000" pt_clust_7="13000.00000" pt_clust_8="13000.00000" pt_clust_9="36.95867"></scales>
<clustering>
<clus scale="   36.959">  2  9  1 -1</clus>
<clus scale="   90.930">  7  8 -1 -1</clus>
<clus scale="   91.998">  5  6 -1 -1</clus>
<clus scale="  203.372">  1  7  2 -1</clus>
<clus scale="   36.959">  2  5  1 -1</clus>
</clustering>
</event>
<event>
 9    1  0.1321469E-005  0.9106295E+02  0.7546771E-02  0.1300336E+00
         -1   -1    0    0    0  501 -0.00000000000E+00  0.00000000000E+00  0.21610273804E+03  0.21610273804E+03  0.00000000000E+00 0.  1.
         21   -1    0    0  501  502  0.00000000000E+00 -0.00000000000E+00 -0.81174293136E+02  0.81174293136E+02  0.00000000000E+00 0.  1.
         23    2    1    2    0    0 -0.32582651668E+00  0.20010824417E+02  0.11669322725E+03  0.14907534294E+03  0.90584818440E+02 0.  0.
         23    2    1    2    0    0  0.17630660407E+02  0.27591467038E+02  0.10225781967E+02  0.96922194396E+02  0.90648860500E+02 0.  0.
        -13    1    3    3    0    0 -0.45781272924E+00  0.53577165294E+02  0.45214939287E+02  0.70107866664E+02  0.00000000000E+00 0. -1.
         13    1    3    3    0    0  0.13198621256E+00 -0.33566340878E+02  0.71478287961E+02  0.78967476281E+02  0.00000000000E+00 0.  1.
        -13    1    4    4    0    0 -0.36287893448E+02  0.19129908536E+02 -0.16971216382E+01  0.41056605234E+02  0.00000000000E+00 0.  1.
         13    1    4    4    0    0  0.53918553855E+02  0.84615585019E+01  0.11922903605E+02  0.55865589162E+02  0.00000000000E+00 0. -1.
         -1    1    1    2    0  502 -0.17304833890E+02 -0.47602291455E+02  0.80094356873E+01  0.51279493833E+02  0.00000000000E+00 0.  1.
<scales pt_clust_5="13000.00000" pt_clust_6="13000.00000" pt_clust_7="13000.00000" pt_clust_8="13000.00000" pt_clust_9="50.65013"></scales>
<clustering>
<clus scale="   50.650">  2  9  1 -1</clus>
<clus scale="   90.585">  5  6 -1 -1</clus>
<clus scale="   90.649">  7  8 -1 -1</clus>
<clus scale="   90.999">  1  5  2 -1</clus>
<clus scale="   50.650">  2  5  1 -1</clus>
</clustering>
</event>
<event>
 9    1  0.1321469E-005  0.9865766E+02  0.7546771E-02  0.1286013E+00
          2   -1    0    0  502    0 -0.00000000000E+00  0.00000000000E+00  0.21833480868E+03  0.21833480868E+03  0.00000000000E+00 0. -1.
         21   -1    0    0  501  502  0.00000000000E+00 -0.00000000000E+00 -0.22368068650E+03  0.22368068650E+03  0.00000000000E+00 0. -1.
         23    2    1    2    0    0 -0.21550393104E+02 -0.15386308504E+02  0.11099842044E+03  0.14946687745E+03  0.96532586123E+02 0.  0.
         23    2    1    2    0    0 -0.27353737901E+02  0.27629800983E+02  0.55387690726E+02  0.11356986710E+03  0.91206828412E+02 0.  0.
        -13    1    3    3    0    0 -0.57363203474E+02 -0.16941620574E+02  0.89566658210E+02  0.10770209786E+03  0.00000000000E+00 0. -1.
         13    1    3    3    0    0  0.35812810371E+02  0.15553120695E+01  0.21431762227E+02  0.41764779593E+02  0.00000000000E+00 0.  1.
        -13    1    4    4    0    0 -0.53222121676E+02 -0.91170536909E+01  0.33911967699E+02  0.63763127722E+02  0.00000000000E+00 0.  1.
         13    1    4    4    0    0  0.25868383775E+02  0.36746854674E+02  0.21475723028E+02  0.49806739375E+02  0.00000000000E+00 0. -1.
          2    1    1    2  501    0  0.48904131004E+02 -0.12243492479E+02 -0.17173198899E+03  0.17897875063E+03  0.00000000000E+00 0. -1.
<scales pt_clust_5="13000.00000" pt_clust_6="13000.00000" pt_clust_7="13000.00000" pt_clust_8="13000.00000" pt_clust_9="50.41346"></scales>
<clustering>
<clus scale="   50.413">  2  9  1 -1</clus>
<clus scale="   91.207">  7  8 -1 -1</clus>
<clus scale="   93.453">  2  7  1 -1</clus>
<clus scale="   96.533">  5  6 -1 -1</clus>
<clus scale="   50.413">  2  5  1 -1</clus>
</clustering>
</event>
<event>
 9    1  0.1321469E-005  0.1047947E+03  0.7546771E-02  0.1271255E+00
         21   -1    0    0  501  502  0.00000000000E+00  0.00000000000E+00  0.62101946372E+02  0.62101946372E+02  0.00000000000E+00 0. -1.
          3   -1    0    0  502    0 -0.00000000000E+00 -0.00000000000E+00 -0.32382262359E+03  0.32382262359E+03  0.00000000000E+00 0. -1.
         23    2    1    2    0    0 -0.30444891154E+02 -0.13237147620E+02 -0.11478695466E+03  0.14927635472E+03  0.89472183632E+02 0.  0.
         23    2    1    2    0    0  0.64461560399E+02  0.32547108403E+02 -0.15782423483E+03  0.19604511647E+03  0.91162445981E+02 0.  0.
        -11    1    3    3    0    0  0.96955167462E+00 -0.42613487260E+02 -0.90128148659E+02  0.99699210165E+02  0.00000000000E+00 0. -1.
         11    1    3    3    0    0 -0.31414442829E+02  0.29376339640E+02 -0.24658806006E+02  0.49577144558E+02  0.00000000000E+00 0.  1.
        -11    1    4    4    0    0  0.73864684697E+02 -0.67588066030E+01 -0.11750613024E+03  0.13895813671E+03  0.00000000000E+00 0. -1.
         11    1    4    4    0    0 -0.94031242983E+01  0.39305915006E+02 -0.40318104591E+02  0.57086979766E+02  0.00000000000E+00 0.  1.
          3    1    1    2  501    0 -0.34016669245E+02 -0.19309960783E+02  0.10890512278E+02  0.40603098768E+02  0.00000000000E+00 0. -1.
<scales pt_clust_5="13000.00000" pt_clust_6="13000.00000" pt_clust_7="13000.00000" pt_clust_8="13000.00000" pt_clust_9="39.11532"></scales>
<clustering>
<clus scale="   39.115">  1  9  2 -1</clus>
<clus scale="   89.472">  5  6 -1 -1</clus>
<clus scale="   91.162">  7  8 -1 -1</clus>
<clus scale="  103.328">  2  5  1 -1</clus>
<clus scale="   39.115">  1  5  2 -1</clus>
</clustering>
</event>
<event>
 9    1  0.1321469E-005  0.1320558E+03  0.7546771E-02  0.1224822E+00
         21   -1    0    0  501  502  0.00000000000E+00  0.00000000000E+00  0.83226929043E+02  0.83226929043E+02  0.00000000000E+00 0.  1.
          1   -1    0    0  502    0 -0.00000000000E+00 -0.00000000000E+00 -0.38286227404E+03  0.38286227404E+03  0.00000000000E+00 0. -1.
         23    2    1    2    0    0  0.98998383587E+02 -0.50869222611E+02 -0.24196744681E+03  0.28102539215E+03  0.89658618976E+02 0.  0.
         23    2    1    2    0    0 -0.70381956714E+02  0.26156381020E+02 -0.80409555199E+02  0.14094117059E+03  0.88096202542E+02 0.  0.
        -11    1    3    3    0    0  0.10269497283E+03 -0.11665439964E+02 -0.18154632883E+03  0.20890526428E+03  0.00000000000E+00 0.  1.
         11    1    3    3    0    0 -0.36965892411E+01 -0.39203782647E+02 -0.60421117978E+02  0.72120127867E+02  0.00000000000E+00 0. -1.
        -13    1    4    4    0    0 -0.72470646362E+01 -0.30157956016E+02 -0.24635360991E+02  0.39609636051E+02  0.00000000000E+00 0.  1.
         13    1    4    4    0    0 -0.63134892078E+02  0.56314337036E+02 -0.55774194207E+02  0.10133153454E+03  0.00000000000E+00 0. -1.
          1    1    1    2  501    0 -0.28616426873E+02  0.24712841591E+02  0.22741657013E+02  0.44122640335E+02  0.00000000000E+00 0. -1.
<scales pt_clust_5="13000.00000" pt_clust_6="13000.00000" pt_clust_7="13000.00000" pt_clust_8="13000.00000" pt_clust_9="37.81037"></scales>
<clustering>
<clus scale="   37.810">  1  9  2 -1</clus>
<clus scale="   88.096">  7  8 -1 -1</clus>
<clus scale="   89.659">  5  6 -1 -1</clus>
<clus scale="  131.000">  1  7  2 -1</clus>
<clus scale="   37.810">  1  5  2 -1</clus>
</clustering>
</event>
<event>
 9    1  0.1321469E-005  0.1038399E+03  0.7546771E-02  0.1272838E+00
         21   -1    0    0  501  502  0.00000000000E+00  0.00000000000E+00  0.18751956754E+03  0.18751956754E+03  0.00000000000E+00 0.  1.
          1   -1    0    0  502    0 -0.00000000000E+00 -0.00000000000E+00 -0.11881476524E+03  0.11881476524E+03  0.00000000000E+00 0. -1.
         23    2    1    2    0    0  0.34570667183E+02 -0.42649821276E+02 -0.57477799832E+02  0.12024182060E+03  0.90223387567E+02 0.  0.
         23    2    1    2    0    0 -0.27254562605E+02  0.23818027142E+02  0.55763724914E+02  0.11283283619E+03  0.91167682354E+02 0.  0.
        -13    1    4    4    0    0  0.13213759068E+02  0.48762752414E+02  0.27334842137E+02  0.57442171324E+02  0.00000000000E+00 0.  1.
         13    1    4    4    0    0 -0.40468321673E+02 -0.24944725272E+02  0.28428882777E+02  0.55390664862E+02  0.00000000000E+00 0. -1.
        -13    1    3    3    0    0 -0.51221039883E+01 -0.36658021086E+02 -0.69153107470E+02  0.78435953057E+02  0.00000000000E+00 0.  1.
         13    1    3    3    0    0  0.39692771171E+02 -0.59918001897E+01  0.11675307639E+02  0.41805867545E+02  0.00000000000E+00 0. -1.
          1    1    1    2  501    0 -0.73161045772E+01  0.18831794134E+02  0.70418877227E+02  0.73259675991E+02  0.00000000000E+00 0. -1.
<scales pt_clust_5="13000.00000" pt_clust_6="13000.00000" pt_clust_7="13000.00000" pt_clust_8="13000.00000" pt_clust_9="20.20302"></scales>
<clustering>
<clus scale="   20.203">  1  9  2 -1</clus>
<clus scale="   90.223">  7  8 -1 -1</clus>
<clus scale="   91.168">  5  6 -1 -1</clus>
<clus scale="  103.012">  2  7  1 -1</clus>
<clus scale="   20.203">  1  5  2 -1</clus>
</clustering>
</event>
<event>
 9    1  0.1321469E-005  0.9898633E+02  0.7546771E-02  0.1283511E+00
         21   -1    0    0  501  502  0.00000000000E+00  0.00000000000E+00  0.36585089827E+03  0.36585089827E+03  0.00000000000E+00 0. -1.
          1   -1    0    0  502    0 -0.00000000000E+00 -0.00000000000E+00 -0.12011668239E+03  0.12011668239E+03  0.00000000000E+00 0. -1.
         23    2    1    2    0    0  0.32501023899E+02 -0.12021797383E+02 -0.86002322735E+02  0.13003710838E+03  0.91172418376E+02 0.  0.
         23    2    1    2    0    0 -0.11629387346E+02  0.21149467640E+02  0.19722021071E+03  0.21949887018E+03  0.93281294313E+02 0.  0.
        -11    1    3    3    0    0  0.28568745281E+01 -0.25397197006E+02 -0.93274077054E+02  0.96712112986E+02  0.00000000000E+00 0. -1.
         11    1    3    3    0    0  0.29644149370E+02  0.13375399623E+02  0.72717543189E+01  0.33324995392E+02  0.00000000000E+00 0.  1.
        -11    1    4    4    0    0 -0.44993777902E+02 -0.63220366357E+01  0.57721972902E+02  0.73459065831E+02  0.00000000000E+00 0.  1.
         11    1    4    4    0    0  0.33364390556E+02  0.27471504276E+02  0.13949823780E+03  0.14603980435E+03  0.00000000000E+00 0. -1.
          1    1    1    2  501    0 -0.20871636553E+02 -0.91276702572E+01  0.13451632791E+03  0.13643160210E+03  0.00000000000E+00 0. -1.
<scales pt_clust_5="13000.00000" pt_clust_6="13000.00000" pt_clust_7="13000.00000" pt_clust_8="13000.00000" pt_clust_9="22.78025"></scales>
<clustering>
<clus scale="   22.780">  1  9  2 -1</clus>
<clus scale="   91.172">  5  6 -1 -1</clus>
<clus scale="   93.281">  7  8 -1 -1</clus>
<clus scale="   97.002">  2  5  1 -1</clus>
<clus scale="   22.780">  1  5  2 -1</clus>
</clustering>
</event>
<event>
 9    1  0.1321469E-005  0.1842008E+03  0.7546771E-02  0.1174944E+00
         21   -1    0    0  501  502  0.00000000000E+00  0.00000000000E+00  0.18665362655E+03  0.18665362655E+03  0.00000000000E+00 0. -1.
          1   -1    0    0  502    0 -0.00000000000E+00 -0.00000000000E+00 -0.95565940586E+03  0.95565940586E+03  0.00000000000E+00 0. -1.
         23    2    1    2    0    0 -0.10070354663E+03  0.41223354382E+02 -0.53398591650E+03  0.55272619251E+03  0.92329386516E+02 0.  0.
         23    2    1    2    0    0  0.77778433342E+02 -0.19746591788E+03 -0.33217944612E+03  0.40417571808E+03  0.89289155251E+02 0.  0.
        -13    1    3    3    0    0 -0.28582683248E+02 -0.13530026462E+02 -0.42532326486E+02  0.53000284848E+02  0.00000000000E+00 0. -1.
         13    1    3    3    0    0 -0.72120863379E+02  0.54753380844E+02 -0.49145359001E+03  0.49972590766E+03  0.00000000000E+00 0.  1.
        -13    1    4    4    0    0  0.96251263979E+01 -0.31962846045E+02 -0.12970400476E+03  0.13393056200E+03  0.00000000000E+00 0.  1.
         13    1    4    4    0    0  0.68153306944E+02 -0.16550307184E+03 -0.20247544136E+03  0.27024515608E+03  0.00000000000E+00 0. -1.
          1    1    1    2  501    0  0.22925113285E+02  0.15624256350E+03  0.97159583310E+02  0.18541112183E+03  0.00000000000E+00 0. -1.
<scales pt_clust_5="13000.00000" pt_clust_6="13000.00000" pt_clust_7="13000.00000" pt_clust_8="13000.00000" pt_clust_9="161.11300"></scales>
<clustering>
<clus scale="   89.289">  7  8 -1 -1</clus>
<clus scale="   92.329">  5  6 -1 -1</clus>
<clus scale="  142.707">  2  5  1 -1</clus>
<clus scale="  161.113">  1  9  2 -1</clus>
<clus scale="  161.113">  1  5  2 -1</clus>
</clustering>
</event>
<event>
 9    1  0.1321469E-005  0.1106296E+03  0.7546771E-02  0.1259993E+00
         21   -1    0    0  501  502  0.00000000000E+00  0.00000000000E+00  0.51430413927E+03  0.51430413927E+03  0.00000000000E+00 0.  1.
          3   -1    0    0  502    0 -0.00000000000E+00 -0.00000000000E+00 -0.41040226674E+02  0.41040226674E+02  0.00000000000E+00 0. -1.
         23    2    1    2    0    0 -0.37724640449E+02  0.25737522762E+02  0.11626776272E+03  0.15370874104E+03  0.89569056317E+02 0.  0.
         23    2    1    2    0    0  0.65027100297E+02 -0.65975730948E+02  0.21143474478E+03  0.24816686468E+03  0.91108839179E+02 0.  0.
        -11    1    3    3    0    0  0.84568706528E+01  0.42943877869E+02  0.26122381456E+02  0.50971306836E+02  0.00000000000E+00 0.  1.
         11    1    3    3    0    0 -0.46181511102E+02 -0.17206355107E+02  0.90145381268E+02  0.10273743421E+03  0.00000000000E+00 0. -1.
        -13    1    4    4    0    0  0.13983299205E+02 -0.35665477397E+02  0.12091172931E+02  0.40171574496E+02  0.00000000000E+00 0. -1.
         13    1    4    4    0    0  0.51043801092E+02 -0.30310253551E+02  0.19934357185E+03  0.20799529018E+03  0.00000000000E+00 0.  1.
          3    1    1    2  501    0 -0.27302459848E+02  0.40238208186E+02  0.14556140510E+03  0.15346876023E+03  0.00000000000E+00 0. -1.
<scales pt_clust_5="13000.00000" pt_clust_6="13000.00000" pt_clust_7="13000.00000" pt_clust_8="13000.00000" pt_clust_9="48.62651"></scales>
<clustering>
<clus scale="   48.627">  1  9  2 -1</clus>
<clus scale="   89.569">  5  6 -1 -1</clus>
<clus scale="   91.109">  7  8 -1 -1</clus>
<clus scale="  109.365">  2  5  1 -1</clus>
<clus scale="   48.627">  1  5  2 -1</clus>
</clustering>
</event>
<event>
 9    1  0.1321469E-005  0.1080384E+03  0.7546771E-02  0.1264593E+00
         21   -1    0    0  501  502  0.00000000000E+00  0.00000000000E+00  0.82357291645E+02  0.82357291645E+02  0.00000000000E+00 0.  1.
         -1   -1    0    0    0  501 -0.00000000000E+00 -0.00000000000E+00 -0.51536283115E+03  0.51536283115E+03  0.00000000000E+00 0.  1.
         23    2    1    2    0    0 -0.12990164799E+02  0.49601717885E+02 -0.34761169061E+03  0.36321093705E+03  0.91974031920E+02 0.  0.
         23    2    1    2    0    0  0.32965858073E+02 -0.64920821489E+02 -0.13528794558E+03  0.17862426703E+03  0.91117175622E+02 0.  0.
        -13    1    4    4    0    0 -0.26335123135E+01 -0.60059113735E+02 -0.12876491748E+03  0.14210713037E+03  0.00000000000E+00 0.  1.
         13    1    4    4    0    0  0.35599370387E+02 -0.48617077540E+01 -0.65230280984E+01  0.36517136659E+02  0.00000000000E+00 0. -1.
        -13    1    3    3    0    0 -0.19183427643E+02 -0.23752530888E+02 -0.79007367837E+02  0.84701539491E+02  0.00000000000E+00 0. -1.
         13    1    3    3    0    0  0.61932628441E+01  0.73354248773E+02 -0.26860432277E+03  0.27850939756E+03  0.00000000000E+00 0.  1.
         -1    1    1    2    0  502 -0.19975693274E+02  0.15319103604E+02  0.49894096675E+02  0.55884918717E+02  0.00000000000E+00 0.  1.
<scales pt_clust_5="13000.00000" pt_clust_6="13000.00000" pt_clust_7="13000.00000" pt_clust_8="13000.00000" pt_clust_9="25.17346"></scales>
<clustering>
<clus scale="   25.173">  1  9  2 -1</clus>
<clus scale="   91.117">  5  6 -1 -1</clus>
<clus scale="   91.974">  7  8 -1 -1</clus>
<clus scale="  107.310">  1  5  2 -1</clus>
<clus scale="   25.173">  1  5  2 -1</clus>
</clustering>
</event>
<event>
 9    1  0.1321469E-005  0.9420775E+02  0.7546771E-02  0.1294517E+00
         21   -1    0    0  501  502  0.00000000000E+00  0.00000000000E+00  0.11207419080E+03  0.11207419080E+03  0.00000000000E+00 0.  1.
          1   -1    0    0  502    0 -0.00000000000E+00 -0.00000000000E+00 -0.26930405988E+03  0.26930405988E+03  0.00000000000E+00 0. -1.
         23    2    1    2    0    0 -0.66444453555E+01 -0.54137294329E+01 -0.20123008643E+03  0.22093513359E+03  0.90803790927E+02 0.  0.
         23    2    1    2    0    0  0.38010151156E+01  0.28808322177E+02 -0.12994231844E+02  0.98768492610E+02  0.93498652016E+02 0.  0.
        -11    1    4    4    0    0  0.42119235620E+02  0.13679392820E+02  0.17392037864E+02  0.47577713041E+02  0.00000000000E+00 0.  1.
         11    1    4    4    0    0 -0.38318220505E+02  0.15128929357E+02 -0.30386269708E+02  0.51190779569E+02  0.00000000000E+00 0. -1.
        -13    1    3    3    0    0 -0.42175374904E+02  0.19389813241E+02 -0.12361670992E+03  0.13204475786E+03  0.00000000000E+00 0.  1.
         13    1    3    3    0    0  0.35530929548E+02 -0.24803542674E+02 -0.77613376511E+02  0.88890375728E+02  0.00000000000E+00 0. -1.
          1    1    1    2  501    0  0.28434302398E+01 -0.23394592744E+02  0.56994449196E+02  0.61674624477E+02  0.00000000000E+00 0. -1.
<scales pt_clust_5="13000.00000" pt_clust_6="13000.00000" pt_clust_7="13000.00000" pt_clust_8="13000.00000" pt_clust_9="23.56676"></scales>
<clustering>
<clus scale="   23.567">  1  9  2 -1</clus>
<clus scale="   90.804">  7  8 -1 -1</clus>
<clus scale="   91.534">  2  7  1 -1</clus>
<clus scale="   93.499">  5  6 -1 -1</clus>
<clus scale="   23.567">  1  5  2 -1</clus>
</clustering>
</event>
<event>
 9    1  0.1321469E-005  0.1554013E+03  0.7546771E-02  0.1194579E+00
          2   -1    0    0  502    0 -0.00000000000E+00  0.00000000000E+00  0.82398171287E+02  0.82398171287E+02  0.00000000000E+00 0. -1.
         21   -1    0    0  501  502  0.00000000000E+00 -0.00000000000E+00 -0.68697692794E+03  0.68697692794E+03  0.00000000000E+00 0. -1.
         23    2    1    2    0    0 -0.42269121995E+02 -0.10849099035E+03 -0.31703888468E+02  0.15112833858E+03  0.90981671320E+02 0.  0.
         23    2    1    2    0    0  0.74168648973E+02  0.14200691692E+03 -0.44585997874E+03  0.48306658719E+03  0.94314654626E+02 0.  0.
        -13    1    4    4    0    0  0.32071760128E+02  0.13515974634E+03 -0.29124414461E+03  0.32267616367E+03  0.00000000000E+00 0. -1.
         13    1    4    4    0    0  0.42096888845E+02  0.68471705752E+01 -0.15461583413E+03  0.16039042352E+03  0.00000000000E+00 0.  1.
        -13    1    3    3    0    0 -0.69221121183E+02 -0.61683472879E+02 -0.28595758814E+02  0.97026449314E+02  0.00000000000E+00 0. -1.
         13    1    3    3    0    0  0.26951999188E+02 -0.46807517471E+02 -0.31081296532E+01  0.54101889265E+02  0.00000000000E+00 0.  1.
          2    1    1    2  501    0 -0.31899526978E+02 -0.33515926566E+02 -0.12701488945E+03  0.13518017346E+03  0.00000000000E+00 0. -1.
<scales pt_clust_5="13000.00000" pt_clust_6="13000.00000" pt_clust_7="13000.00000" pt_clust_8="13000.00000" pt_clust_9="46.26983"></scales>
<clustering>
<clus scale="   46.270">  2  9  1 -1</clus>
<clus scale="   90.982">  7  8 -1 -1</clus>
<clus scale="   94.315">  5  6 -1 -1</clus>
<clus scale="  153.401">  1  7  2 -1</clus>
<clus scale="   46.270">  2  5  1 -1</clus>
</clustering>
</event>
<event>
 9    1  0.1321469E-005  0.1191026E+03  0.7546771E-02  0.1244778E+00
         21   -1    0    0  501  502  0.00000000000E+00  0.00000000000E+00  0.87944391052E+02  0.87944391052E+02  0.00000000000E+00 0. -1.
          2   -1    0    0  502    0 -0.00000000000E+00 -0.00000000000E+00 -0.57264011163E+03  0.57264011163E+03  0.00000000000E+00 0. -1.
         23    2    1    2    0    0  0.10404065540E+02 -0.74710632601E+02 -0.32574125441E+03  0.34637461718E+03  0.90432778344E+02 0.  0.
         23    2    1    2    0    0  0.22044052688E+02  0.80020093968E+02 -0.21582974873E+03  0.24851461532E+03  0.91037782778E+02 0.  0.
        -13    1    4    4    0    0  0.31668883875E+02 -0.65536337898E+01 -0.34154026837E+02  0.47035793508E+02  0.00000000000E+00 0.  1.
         13    1    4    4    0    0 -0.96248311872E+01  0.86573727757E+02 -0.18167572189E+03  0.20147882181E+03  0.00000000000E+00 0. -1.
        -13    1    3    3    0    0  0.90312848683E+01  0.20281354425E+02 -0.49410647380E+02  0.54169267285E+02  0.00000000000E+00 0. -1.
         13    1    3    3    0    0  0.13727806716E+01 -0.94991987026E+02 -0.27633060703E+03  0.29220534989E+03  0.00000000000E+00 0.  1.
          2    1    1    2  501    0 -0.32448118228E+02 -0.53094613666E+01  0.56875282567E+02  0.65695270177E+02  0.00000000000E+00 0. -1.
<scales pt_clust_5="13000.00000" pt_clust_6="13000.00000" pt_clust_7="13000.00000" pt_clust_8="13000.00000" pt_clust_9="32.87964"></scales>
<clustering>
<clus scale="   32.880">  1  9  2 -1</clus>
<clus scale="   90.433">  7  8 -1 -1</clus>
<clus scale="   91.038">  5  6 -1 -1</clus>
<clus scale="  118.641">  2  7  1 -1</clus>
<clus scale="   32.880">  1  5  2 -1</clus>
</clustering>
</event>
<event>
 9    1  0.1321469E-005  0.1422010E+03  0.7546771E-02  0.1228543E+00
         21   -1    0    0  501  502  0.00000000000E+00  0.00000000000E+00  0.48181137660E+03  0.48181137660E+03  0.00000000000E+00 0. -1.
          3   -1    0    0  502    0 -0.00000000000E+00 -0.00000000000E+00 -0.15098787362E+03  0.15098787362E+03  0.00000000000E+00 0. -1.
         23    2    1    2    0    0  0.29266429342E+02  0.28659807438E+02 -0.54216937387E+02  0.11122351998E+03  0.88052749242E+02 0.  0.
         23    2    1    2    0    0  0.41345963143E+01 -0.12123987555E+03  0.40003383980E+02  0.16277597019E+03  0.10089372345E+03 0.  0.
        -11    1    3    3    0    0 -0.11937641084E+02  0.49470368318E+02 -0.26429853437E+02  0.57344239195E+02  0.00000000000E+00 0.  1.
         11    1    3    3    0    0  0.41204070427E+02 -0.20810560880E+02 -0.27787083950E+02  0.53879280788E+02  0.00000000000E+00 0. -1.
        -11    1    4    4    0    0 -0.39949278477E+02 -0.69970974995E+02  0.49399826636E+02  0.94510449497E+02  0.00000000000E+00 0. -1.
         11    1    4    4    0    0  0.44083874791E+02 -0.51268900554E+02 -0.93964426553E+01  0.68265520691E+02  0.00000000000E+00 0.  1.
          3    1    1    2  501    0 -0.33401025657E+02  0.92580068110E+02  0.34503705639E+03  0.35879976005E+03  0.00000000000E+00 0. -1.
<scales pt_clust_5="13000.00000" pt_clust_6="13000.00000" pt_clust_7="13000.00000" pt_clust_8="13000.00000" pt_clust_9="100.20771"></scales>
<clustering>
<clus scale="   88.053">  5  6 -1 -1</clus>
<clus scale="   97.114">  2  5  1 -1</clus>
<clus scale="  100.208">  1  9  2 -1</clus>
<clus scale="  100.894">  7  8 -1 -1</clus>
<clus scale="  100.208">  1  5  2 -1</clus>
</clustering>
</event>
<event>
 9    1  0.1321469E-005  0.1326062E+03  0.7546771E-02  0.1224979E+00
         21   -1    0    0  501  502  0.00000000000E+00  0.00000000000E+00  0.50173097621E+03  0.50173097621E+03  0.00000000000E+00 0.  1.
         -1   -1    0    0    0  501 -0.00000000000E+00 -0.00000000000E+00 -0.81195958068E+02  0.81195958068E+02  0.00000000000E+00 0.  1.
         23    2    1    2    0    0 -0.80103409909E+02  0.62526125877E+01  0.58534371487E+02  0.13221050054E+03  0.87164742664E+02 0.  0.
         23    2    1    2    0    0  0.11503782593E+03  0.14793024825E+02  0.85487300642E+02  0.17121158083E+03  0.92481305474E+02 0.  0.
        -11    1    4    4    0    0  0.82664210156E+02  0.53031808495E+02  0.58140829195E+02  0.11413194282E+03  0.00000000000E+00 0.  1.
         11    1    4    4    0    0  0.32373615770E+02 -0.38238783669E+02  0.27346471447E+02  0.57079638008E+02  0.00000000000E+00 0. -1.
        -13    1    3    3    0    0 -0.52890873799E+02  0.72951393267E+01  0.80927651884E+02  0.96953331188E+02  0.00000000000E+00 0. -1.
         13    1    3    3    0    0 -0.27212536110E+02 -0.10425267390E+01 -0.22393280397E+02  0.35257169349E+02  0.00000000000E+00 0.  1.
         -1    1    1    2    0  502 -0.34934416017E+02 -0.21045637413E+02  0.27651334602E+03  0.27950485291E+03  0.00000000000E+00 0.  1.
<scales pt_clust_5="13000.00000" pt_clust_6="13000.00000" pt_clust_7="13000.00000" pt_clust_8="13000.00000" pt_clust_9="40.78397"></scales>
<clustering>
<clus scale="   40.784">  1  9  2 -1</clus>
<clus scale="   87.165">  7  8 -1 -1</clus>
<clus scale="   92.481">  5  6 -1 -1</clus>
<clus scale="  128.955">  2  7  1 -1</clus>
<clus scale="   40.784">  1  5  2 -1</clus>
</clustering>
</event>
<event>
 9    1  0.1321469E-005  0.1085221E+03  0.7546771E-02  0.1263980E+00
         21   -1    0    0  501  502  0.00000000000E+00  0.00000000000E+00  0.53802558656E+02  0.53802558656E+02  0.00000000000E+00 0. -1.
          2   -1    0    0  502    0 -0.00000000000E+00 -0.00000000000E+00 -0.50008951659E+03  0.50008951659E+03  0.00000000000E+00 0. -1.
         23    2    1    2    0    0 -0.31000453927E+02 -0.67370799023E+02 -0.29599586171E+03  0.31891039168E+03  0.92684599967E+02 0.  0.
         23    2    1    2    0    0  0.21288139679E+01  0.37127401991E+02 -0.16377213366E+03  0.19105022526E+03  0.91081836726E+02 0.  0.
        -13    1    3    3    0    0  0.17752000101E+02 -0.60816982197E+02 -0.11441729751E+03  0.13078668434E+03  0.00000000000E+00 0. -1.
         13    1    3    3    0    0 -0.48752454028E+02 -0.65538168256E+01 -0.18157856419E+03  0.18812370734E+03  0.00000000000E+00 0.  1.
        -13    1    4    4    0    0 -0.29816028085E+02  0.43325906996E+02 -0.14319811755E+03  0.15255107544E+03  0.00000000000E+00 0. -1.
         13    1    4    4    0    0  0.31944842053E+02 -0.61985050044E+01 -0.20574016109E+02  0.38499149821E+02  0.00000000000E+00 0.  1.
          2    1    1    2  501    0  0.28871639959E+02  0.30243397032E+02  0.13481037436E+02  0.43931458299E+02  0.00000000000E+00 0. -1.
<scales pt_clust_5="13000.00000" pt_clust_6="13000.00000" pt_clust_7="13000.00000" pt_clust_8="13000.00000" pt_clust_9="41.81190"></scales>
<clustering>
<clus scale="   41.812">  1  9  2 -1</clus>
<clus scale="   91.082">  7  8 -1 -1</clus>
<clus scale="   92.685">  5  6 -1 -1</clus>
<clus scale="  107.156">  1  7  2 -1</clus>
<clus scale="   41.812">  1  5  2 -1</clus>
</clustering>
</event>
<event>
 9    1  0.1321469E-005  0.2975754E+03  0.7546771E-02  0.1086514E+00
          3   -1    0    0  502    0 -0.00000000000E+00  0.00000000000E+00  0.78620287137E+03  0.78620287137E+03  0.00000000000E+00 0. -1.
         21   -1    0    0  501  502  0.00000000000E+00 -0.00000000000E+00 -0.27497970752E+03  0.27497970752E+03  0.00000000000E+00 0.  1.
         23    2    1    2    0    0 -0.25732780661E+03  0.16434044756E+03  0.51232255015E+03  0.60357603575E+03  0.92759111551E+02 0.  0.
         23    2    1    2    0    0  0.20148949113E+03 -0.13906221686E+03  0.14523495104E+03  0.29895395189E+03  0.91345274380E+02 0.  0.
        -11    1    4    4    0    0  0.29067630030E+02  0.44548412635E+01  0.43789596913E+02  0.52747526236E+02  0.00000000000E+00 0. -1.
         11    1    4    4    0    0  0.17242186110E+03 -0.14351705813E+03  0.10144535413E+03  0.24620642565E+03  0.00000000000E+00 0.  1.
        -11    1    3    3    0    0 -0.16887682083E+03  0.11601515952E+03  0.25432024878E+03  0.32658488451E+03  0.00000000000E+00 0. -1.
         11    1    3    3    0    0 -0.88450985778E+02  0.48325288041E+02  0.25800230138E+03  0.27699115124E+03  0.00000000000E+00 0.  1.
          3    1    1    2  501    0  0.55838315474E+02 -0.25278230694E+02 -0.14633433735E+03  0.15865259125E+03  0.00000000000E+00 0. -1.
<scales pt_clust_5="13000.00000" pt_clust_6="13000.00000" pt_clust_7="13000.00000" pt_clust_8="13000.00000" pt_clust_9="61.29361"></scales>
<clustering>
<clus scale="   61.294">  2  9  1 -1</clus>
<clus scale="   91.345">  5  6 -1 -1</clus>
<clus scale="   92.759">  7  8 -1 -1</clus>
<clus scale="  297.138">  2  5  1 -1</clus>
<clus scale="   61.294">  2  5  1 -1</clus>
</clustering>
</event>
<event>
 9    1  0.1321469E-005  0.1013191E+03  0.7546771E-02  0.1277549E+00
         21   -1    0    0  501  502  0.00000000000E+00  0.00000000000E+00  0.61731142255E+02  0.61731142255E+02  0.00000000000E+00 0. -1.
          1   -1    0    0  502    0 -0.00000000000E+00 -0.00000000000E+00 -0.35759367879E+03  0.35759367879E+03  0.00000000000E+00 0. -1.
         23    2    1    2    0    0 -0.53382027852E+02  0.41769702926E+02 -0.21558390653E+03  0.24350773641E+03  0.90693152749E+02 0.  0.
         23    2    1    2    0    0  0.11048639372E+02  0.26805257169E+01 -0.66164283453E+02  0.11283174201E+03  0.90686448549E+02 0.  0.
        -11    1    3    3    0    0 -0.54091321451E+02 -0.10941426892E+02 -0.14691084246E+03  0.15693432229E+03  0.00000000000E+00 0.  1.
         11    1    3    3    0    0  0.70929359922E+00  0.52711129818E+02 -0.68673064072E+02  0.86573414125E+02  0.00000000000E+00 0. -1.
        -11    1    4    4    0    0  0.35605953637E+02 -0.74036627453E+01 -0.76213801889E+02  0.84446087860E+02  0.00000000000E+00 0.  1.
         11    1    4    4    0    0 -0.24557314265E+02  0.10084188462E+02  0.10049518436E+02  0.28385654152E+02  0.00000000000E+00 0. -1.
          1    1    1    2  501    0  0.42333388480E+02 -0.44450228643E+02 -0.14114346547E+02  0.62985342621E+02  0.00000000000E+00 0. -1.
<scales pt_clust_5="13000.00000" pt_clust_6="13000.00000" pt_clust_7="13000.00000" pt_clust_8="13000.00000" pt_clust_9="61.38354"></scales>
<clustering>
<clus scale="   61.384">  1  9  2 -1</clus>
<clus scale="   90.686">  7  8 -1 -1</clus>
<clus scale="   90.693">  5  6 -1 -1</clus>
<clus scale="  101.313">  1  7  2 -1</clus>
<clus scale="   61.384">  1  5  2 -1</clus>
</clustering>
</event>
<event>
 9    1  0.1321469E-005  0.9971386E+02  0.7546771E-02  0.1295099E+00
         -1   -1    0    0    0  501 -0.00000000000E+00  0.00000000000E+00  0.33933788738E+03  0.33933788738E+03  0.00000000000E+00 0.  1.
         21   -1    0    0  501  502  0.00000000000E+00 -0.00000000000E+00 -0.83082731795E+02  0.83082731795E+02  0.00000000000E+00 0.  1.
         23    2    1    2    0    0  0.26409323760E+02 -0.30802526018E+02  0.21755473544E+03  0.23934467503E+03  0.91156802071E+02 0.  0.
         23    2    1    2    0    0 -0.57531750339E+02 -0.13223296131E+02  0.77219729069E+02  0.11681422358E+03  0.64791345214E+02 0.  0.
        -13    1    4    4    0    0 -0.24420505312E+02  0.21895814640E+02  0.10446442085E+02  0.34422607843E+02  0.00000000000E+00 0. -1.
         13    1    4    4    0    0 -0.33111245027E+02 -0.35119110771E+02  0.66773286984E+02  0.82391615734E+02  0.00000000000E+00 0.  1.
        -13    1    3    3    0    0  0.20569416881E+02 -0.59428080373E+02  0.18599274524E+03  0.19633669786E+03  0.00000000000E+00 0.  1.
         13    1    3    3    0    0  0.58399068792E+01  0.28625554355E+02  0.31561990201E+02  0.43007977167E+02  0.00000000000E+00 0. -1.
         -1    1    1    2    0  502  0.31122426578E+02  0.44025822149E+02 -0.38519308925E+02  0.66261720564E+02  0.00000000000E+00 0.  1.
<scales pt_clust_5="13000.00000" pt_clust_6="13000.00000" pt_clust_7="13000.00000" pt_clust_8="13000.00000" pt_clust_9="53.91548"></scales>
<clustering>
<clus scale="   53.915">  2  9  1 -1</clus>
<clus scale="   64.791">  5  6 -1 -1</clus>
<clus scale="   76.362">  2  5  1 -1</clus>
<clus scale="   91.157">  7  8 -1 -1</clus>
<clus scale="   53.915">  2  5  1 -1</clus>
</clustering>
</event>
<event>
 9    1  0.1321469E-005  0.9326416E+02  0.7546771E-02  0.1295527E+00
         21   -1    0    0  501  502  0.00000000000E+00  0.00000000000E+00  0.36567811771E+03  0.36567811771E+03  0.00000000000E+00 0.  1.
         -1   -1    0    0    0  501 -0.00000000000E+00 -0.00000000000E+00 -0.81661059415E+02  0.81661059415E+02  0.00000000000E+00 0.  1.
         23    2    1    2    0    0 -0.43884025124E+01  0.10412621025E+02  0.36598495941E+01  0.92635097771E+02  0.91870485396E+02 0.  0.
         23    2    1    2    0    0 -0.26346330636E+02 -0.33527454639E+01  0.27850730612E+02  0.10023603197E+03  0.92553924112E+02 0.  0.
        -13    1    3    3    0    0 -0.24969943593E+01 -0.30899083558E+02 -0.27035876608E+02  0.41133039876E+02  0.00000000000E+00 0. -1.
         13    1    3    3    0    0 -0.18914081531E+01  0.41311704583E+02  0.30695726202E+02  0.51502057895E+02  0.00000000000E+00 0.  1.
        -13    1    4    4    0    0 -0.37099815945E+02  0.36154035385E+02  0.20548300925E+01  0.51843350051E+02  0.00000000000E+00 0.  1.
         13    1    4    4    0    0  0.10753485309E+02 -0.39506780849E+02  0.25795900520E+02  0.48392681916E+02  0.00000000000E+00 0. -1.
         -1    1    1    2    0  502  0.30734733148E+02 -0.70598755615E+01  0.25250647809E+03  0.25446804738E+03  0.00000000000E+00 0.  1.
<scales pt_clust_5="13000.00000" pt_clust_6="13000.00000" pt_clust_7="13000.00000" pt_clust_8="13000.00000" pt_clust_9="31.53515"></scales>
<clustering>
<clus scale="   31.535">  1  9  2 -1</clus>
<clus scale="   91.870">  5  6 -1 -1</clus>
<clus scale="   92.554">  7  8 -1 -1</clus>
<clus scale="   92.586">  2  5  1 -1</clus>
<clus scale="   31.535">  1  5  2 -1</clus>
</clustering>
</event>
<event>
 9    1  0.1321469E-005  0.1443876E+03  0.7546771E-02  0.1219756E+00
         21   -1    0    0  501  502  0.00000000000E+00  0.00000000000E+00  0.34317698499E+03  0.34317698499E+03  0.00000000000E+00 0.  1.
         -1   -1    0    0    0  501 -0.00000000000E+00 -0.00000000000E+00 -0.15471592569E+03  0.15471592569E+03  0.00000000000E+00 0.  1.
         23    2    1    2    0    0 -0.27843924662E+02  0.58004435282E+02  0.13732957542E+03  0.17684541380E+03  0.90967518634E+02 0.  0.
         23    2    1    2    0    0 -0.86883171427E+02 -0.70086167172E+02 -0.64385148221E+02  0.15779196982E+03  0.91060980244E+02 0.  0.
        -11    1    3    3    0    0 -0.33350598769E+02  0.68092149677E+01  0.44374177918E+01  0.34326644511E+02  0.00000000000E+00 0.  1.
         11    1    3    3    0    0  0.55066741068E+01  0.51195220314E+02  0.13289215762E+03  0.14251876929E+03  0.00000000000E+00 0. -1.
        -11    1    4    4    0    0 -0.77507607345E+02 -0.15051027746E+02 -0.64518617277E+02  0.10196379067E+03  0.00000000000E+00 0.  1.
         11    1    4    4    0    0 -0.93755640821E+01 -0.55035139425E+02  0.13346905574E+00  0.55828179152E+02  0.00000000000E+00 0. -1.
         -1    1    1    2    0  502  0.11472709609E+03  0.12081731890E+02  0.11551663210E+03  0.16325552706E+03  0.00000000000E+00 0.  1.
<scales pt_clust_5="13000.00000" pt_clust_6="13000.00000" pt_clust_7="13000.00000" pt_clust_8="13000.00000" pt_clust_9="112.05217"></scales>
<clustering>
<clus scale="   90.968">  5  6 -1 -1</clus>
<clus scale="   91.061">  7  8 -1 -1</clus>
<clus scale="  111.422">  2  5  1 -1</clus>
<clus scale="  112.052">  1  9  2 -1</clus>
<clus scale="  112.052">  1  5  2 -1</clus>
</clustering>
</event>
<event>
 9    1  0.1321469E-005  0.1014764E+03  0.7546771E-02  0.1278569E+00
         -3   -1    0    0    0  501 -0.00000000000E+00  0.00000000000E+00  0.18354733909E+03  0.18354733909E+03  0.00000000000E+00 0.  1.
         21   -1    0    0  501  502  0.00000000000E+00 -0.00000000000E+00 -0.71456146042E+02  0.71456146042E+02  0.00000000000E+00 0.  1.
         23    2    1    2    0    0 -0.31023174938E+02  0.25194798885E+02  0.71201226923E+02  0.12426426345E+03  0.93673780656E+02 0.  0.
         23    2    1    2    0    0  0.41546161915E+02 -0.40105177249E+01  0.37690560358E+02  0.10686992717E+03  0.90875932844E+02 0.  0.
        -13    1    4    4    0    0 -0.38985125092E+01 -0.24572136866E+02 -0.19040329972E+02  0.31329259094E+02  0.00000000000E+00 0. -1.
         13    1    4    4    0    0  0.45444674424E+02  0.20561619141E+02  0.56730890330E+02  0.75540668073E+02  0.00000000000E+00 0.  1.
        -13    1    3    3    0    0 -0.10537051918E+02 -0.30634869177E+02  0.12088327257E+01  0.32418913448E+02  0.00000000000E+00 0. -1.
         13    1    3    3    0    0 -0.20486123020E+02  0.55829668062E+02  0.69992394198E+02  0.91845350007E+02  0.00000000000E+00 0.  1.
         -3    1    1    2    0  502 -0.10522986977E+02 -0.21184281160E+02  0.31994057677E+01  0.23869294511E+02  0.00000000000E+00 0.  1.
<scales pt_clust_5="13000.00000" pt_clust_6="13000.00000" pt_clust_7="13000.00000" pt_clust_8="13000.00000" pt_clust_9="23.65390"></scales>
<clustering>
<clus scale="   23.654">  2  9  1 -1</clus>
<clus scale="   90.876">  5  6 -1 -1</clus>
<clus scale="   93.674">  7  8 -1 -1</clus>
<clus scale="   98.900">  2  5  1 -1</clus>
<clus scale="   23.654">  2  5  1 -1</clus>
</clustering>
</event>
<event>
 9    1  0.1321469E-005  0.1612560E+03  0.7546771E-02  0.1187310E+00
          2   -1    0    0  502    0 -0.00000000000E+00  0.00000000000E+00  0.88689613168E+03  0.88689613168E+03  0.00000000000E+00 0. -1.
         21   -1    0    0  501  502  0.00000000000E+00 -0.00000000000E+00 -0.39454789231E+03  0.39454789231E+03  0.00000000000E+00 0. -1.
         23    2    1    2    0    0  0.11326032000E+03 -0.78017471811E+02  0.79775940388E+03  0.81483023042E+03  0.92809546593E+02 0.  0.
         23    2    1    2    0    0 -0.78993001381E+02  0.51623451681E+02  0.23790413475E+02  0.13458281252E+03  0.92960607901E+02 0.  0.
        -13    1    4    4    0    0 -0.72061734687E+02  0.60778823681E+01 -0.15585896722E+02  0.73978067269E+02  0.00000000000E+00 0. -1.
         13    1    4    4    0    0 -0.69312666935E+01  0.45545569313E+02  0.39376310197E+02  0.60604745249E+02  0.00000000000E+00 0.  1.
        -13    1    3    3    0    0  0.10376295165E+03 -0.96048839551E+02  0.74444285383E+03  0.75775147135E+03  0.00000000000E+00 0. -1.
         13    1    3    3    0    0  0.94973683489E+01  0.18031367740E+02  0.53316550047E+02  0.57078759071E+02  0.00000000000E+00 0.  1.
          2    1    1    2  501    0 -0.34267318620E+02  0.26394020129E+02 -0.32920157798E+03  0.33203098104E+03  0.00000000000E+00 0. -1.
<scales pt_clust_5="13000.00000" pt_clust_6="13000.00000" pt_clust_7="13000.00000" pt_clust_8="13000.00000" pt_clust_9="43.25383"></scales>
<clustering>
<clus scale="   43.254">  2  9  1 -1</clus>
<clus scale="   92.810">  7  8 -1 -1</clus>
<clus scale="   92.961">  5  6 -1 -1</clus>
<clus scale="  161.169">  1  7  2 -1</clus>
<clus scale="   43.254">  2  5  1 -1</clus>
</clustering>
</event>
<event>
 9    1  0.1321469E-005  0.9766170E+02  0.7546771E-02  0.1286331E+00
         21   -1    0    0  501  502  0.00000000000E+00  0.00000000000E+00  0.39379788533E+02  0.39379788533E+02  0.00000000000E+00 0.  1.
          1   -1    0    0  502    0 -0.00000000000E+00 -0.00000000000E+00 -0.29468641533E+03  0.29468641533E+03  0.00000000000E+00 0. -1.
         23    2    1    2    0    0 -0.94755211726E+01 -0.38398159453E+02 -0.13173469169E+03  0.16603240142E+03  0.92997447139E+02 0.  0.
         23    2    1    2    0    0  0.10599653744E+00  0.19966399063E+02 -0.10230424472E+03  0.13837183290E+03  0.91005149995E+02 0.  0.
        -11    1    4    4    0    0  0.40908877371E+02  0.95529146005E+01 -0.80845825552E+02  0.91108956389E+02  0.00000000000E+00 0. -1.
         11    1    4    4    0    0 -0.40802880833E+02  0.10413484463E+02 -0.21458419169E+02  0.47262876512E+02  0.00000000000E+00 0.  1.
        -11    1    3    3    0    0  0.11189677095E+02 -0.65795896060E+02 -0.87025263220E+02  0.10967089518E+03  0.00000000000E+00 0.  1.
         11    1    3    3    0    0 -0.20665198268E+02  0.27397736607E+02 -0.44709428470E+02  0.56361506232E+02  0.00000000000E+00 0. -1.
          1    1    1    2  501    0  0.93695246352E+01  0.18431760390E+02 -0.21267690384E+02  0.29661969544E+02  0.00000000000E+00 0. -1.
<scales pt_clust_5="13000.00000" pt_clust_6="13000.00000" pt_clust_7="13000.00000" pt_clust_8="13000.00000" pt_clust_9="20.67650"></scales>
<clustering>
<clus scale="   20.677">  1  9  2 -1</clus>
<clus scale="   91.005">  5  6 -1 -1</clus>
<clus scale="   92.997">  7  8 -1 -1</clus>
<clus scale="   95.766">  1  5  2 -1</clus>
<clus scale="   20.677">  1  5  2 -1</clus>
</clustering>
</event>
<event>
 9    1  0.1321469E-005  0.9543565E+02  0.7546771E-02  0.1291614E+00
         21   -1    0    0  501  502  0.00000000000E+00  0.00000000000E+00  0.24390353845E+03  0.24390353845E+03  0.00000000000E+00 0. -1.
          2   -1    0    0  502    0 -0.00000000000E+00 -0.00000000000E+00 -0.15622092999E+03  0.15622092999E+03  0.00000000000E+00 0. -1.
         23    2    1    2    0    0  0.17831045962E+02  0.61669232379E+01 -0.95568039943E+02  0.13414247792E+03  0.92222432093E+02 0.  0.
         23    2    1    2    0    0 -0.41688747126E+02 -0.91378927200E+01  0.20384889407E+02  0.10135127644E+03  0.89638634526E+02 0.  0.
        -13    1    4    4    0    0 -0.23038154126E+02 -0.19588505993E+02  0.53780128368E+02  0.61699013929E+02  0.00000000000E+00 0.  1.
         13    1    4    4    0    0 -0.18650593000E+02  0.10450613273E+02 -0.33395238961E+02  0.39652262512E+02  0.00000000000E+00 0. -1.
        -13    1    3    3    0    0  0.40948803717E+02 -0.10508153967E+01 -0.60504834773E+01  0.41406727583E+02  0.00000000000E+00 0. -1.
         13    1    3    3    0    0 -0.23117757755E+02  0.72177386346E+01 -0.89517556466E+02  0.92735750335E+02  0.00000000000E+00 0.  1.
          2    1    1    2  501    0  0.23857701164E+02  0.29709694821E+01  0.16286575900E+03  0.16463071408E+03  0.00000000000E+00 0. -1.
<scales pt_clust_5="13000.00000" pt_clust_6="13000.00000" pt_clust_7="13000.00000" pt_clust_8="13000.00000" pt_clust_9="24.04198"></scales>
<clustering>
<clus scale="   24.042">  1  9  2 -1</clus>
<clus scale="   89.639">  5  6 -1 -1</clus>
<clus scale="   92.222">  7  8 -1 -1</clus>
<clus scale="   92.941">  1  5  2 -1</clus>
<clus scale="   24.042">  1  5  2 -1</clus>
</clustering>
</event>
<event>
 9    1  0.1321469E-005  0.9745286E+02  0.7546771E-02  0.1288322E+00
         21   -1    0    0  501  502  0.00000000000E+00  0.00000000000E+00  0.31525603946E+02  0.31525603946E+02  0.00000000000E+00 0. -1.
          2   -1    0    0  502    0 -0.00000000000E+00 -0.00000000000E+00 -0.51634036308E+03  0.51634036308E+03  0.00000000000E+00 0. -1.
         23    2    1    2    0    0 -0.57216806059E+01  0.43688544086E+02 -0.21574431048E+03  0.23666603246E+03  0.86739707757E+02 0.  0.
         23    2    1    2    0    0  0.36606114991E+02 -0.31639020430E+01 -0.13115742470E+03  0.16417579683E+03  0.91659174561E+02 0.  0.
        -11    1    4    4    0    0  0.24122150966E+02  0.18497103125E+02 -0.13544123167E+03  0.13881047592E+03  0.00000000000E+00 0. -1.
         11    1    4    4    0    0  0.12483964024E+02 -0.21661005168E+02  0.42838069671E+01  0.25365320908E+02  0.00000000000E+00 0.  1.
        -11    1    3    3    0    0 -0.31566890901E+02 -0.69381335182E+01 -0.37136843429E+02  0.49231610148E+02  0.00000000000E+00 0.  1.
         11    1    3    3    0    0  0.25845210295E+02  0.50626677604E+02 -0.17860746705E+03  0.18743442231E+03  0.00000000000E+00 0. -1.
          2    1    1    2  501    0 -0.30884434385E+02 -0.40524642043E+02 -0.13791302396E+03  0.14702413773E+03  0.00000000000E+00 0. -1.
<scales pt_clust_5="13000.00000" pt_clust_6="13000.00000" pt_clust_7="13000.00000" pt_clust_8="13000.00000" pt_clust_9="50.95191"></scales>
<clustering>
<clus scale="   50.952">  1  9  2 -1</clus>
<clus scale="   86.740">  7  8 -1 -1</clus>
<clus scale="   91.659">  5  6 -1 -1</clus>
<clus scale="   92.841">  2  7  1 -1</clus>
<clus scale="   50.952">  1  5  2 -1</clus>
</clustering>
</event>
<event>
 9    1  0.1321469E-005  0.9919732E+02  0.7546771E-02  0.1283109E+00
         21   -1    0    0  501  502  0.00000000000E+00  0.00000000000E+00  0.36124563761E+02  0.36124563761E+02  0.00000000000E+00 0.  1.
          2   -1    0    0  502    0 -0.00000000000E+00 -0.00000000000E+00 -0.45409427517E+03  0.45409427517E+03  0.00000000000E+00 0. -1.
         23    2    1    2    0    0  0.24236192466E+02 -0.34786562959E+02 -0.32242154243E+03  0.33728573711E+03  0.89490331590E+02 0.  0.
         23    2    1    2    0    0 -0.23319002335E+02  0.10974718550E+02 -0.72024003898E+02  0.11944830654E+03  0.91739961204E+02 0.  0.
        -11    1    3    3    0    0 -0.25824401114E+02 -0.41020145429E+02 -0.15020123979E+03  0.15782890882E+03  0.00000000000E+00 0.  1.
         11    1    3    3    0    0  0.50060593581E+02  0.62335824697E+01 -0.17222030263E+03  0.17945682829E+03  0.00000000000E+00 0. -1.
        -13    1    4    4    0    0 -0.14956450432E+02 -0.20951246824E+02  0.12568063819E+02  0.28646228044E+02  0.00000000000E+00 0.  1.
         13    1    4    4    0    0 -0.83625519028E+01  0.31925965375E+02 -0.84592067717E+02  0.90802078501E+02  0.00000000000E+00 0. -1.
          2    1    1    2  501    0 -0.91719013157E+00  0.23811844409E+02 -0.23524165082E+02  0.33484795276E+02  0.00000000000E+00 0. -1.
<scales pt_clust_5="13000.00000" pt_clust_6="13000.00000" pt_clust_7="13000.00000" pt_clust_8="13000.00000" pt_clust_9="23.82950"></scales>
<clustering>
<clus scale="   23.830">  1  9  2 -1</clus>
<clus scale="   89.490">  5  6 -1 -1</clus>
<clus scale="   91.740">  7  8 -1 -1</clus>
<clus scale="   97.121">  2  5  1 -1</clus>
<clus scale="   23.830">  1  5  2 -1</clus>
</clustering>
</event>
<event>
 9    1  0.1321469E-005  0.1406966E+03  0.7546771E-02  0.1212674E+00
         21   -1    0    0  501  502  0.00000000000E+00  0.00000000000E+00  0.47413444579E+02  0.47413444579E+02  0.00000000000E+00 0.  1.
          2   -1    0    0  502    0 -0.00000000000E+00 -0.00000000000E+00 -0.54378400024E+03  0.54378400024E+03  0.00000000000E+00 0. -1.
         23    2    1    2    0    0 -0.89410405888E+02 -0.74140079926E+02 -0.29536134138E+03  0.32991649334E+03  0.90086616458E+02 0.  0.
         23    2    1    2    0    0  0.77964316668E+02  0.56823919739E+02 -0.20047768295E+03  0.24051692278E+03  0.91376672364E+02 0.  0.
        -11    1    3    3    0    0 -0.70953358200E+02 -0.87411011631E+02 -0.28177280116E+03  0.30343199480E+03  0.00000000000E+00 0.  1.
         11    1    3    3    0    0 -0.18457047688E+02  0.13270931706E+02 -0.13588540218E+02  0.26484498541E+02  0.00000000000E+00 0. -1.
        -11    1    4    4    0    0  0.38694901495E+02 -0.21879587544E+02 -0.77098774548E+02  0.88995689725E+02  0.00000000000E+00 0. -1.
         11    1    4    4    0    0  0.39269415173E+02  0.78703507283E+02 -0.12337890840E+03  0.15152123305E+03  0.00000000000E+00 0.  1.
          2    1    1    2  501    0  0.11446089220E+02  0.17316160186E+02 -0.53153132315E+00  0.20764028693E+02  0.00000000000E+00 0. -1.
<scales pt_clust_5="13000.00000" pt_clust_6="13000.00000" pt_clust_7="13000.00000" pt_clust_8="13000.00000" pt_clust_9="20.75722"></scales>
<clustering>
<clus scale="   20.757">  1  9  2 -1</clus>
<clus scale="   90.087">  5  6 -1 -1</clus>
<clus scale="   91.377">  7  8 -1 -1</clus>
<clus scale="  139.862">  2  5  1 -1</clus>
<clus scale="   20.757">  1  5  2 -1</clus>
</clustering>
</event>
<event>
 9    1  0.1321469E-005  0.1414048E+03  0.7546771E-02  0.1211643E+00
         -1   -1    0    0    0  501 -0.00000000000E+00  0.00000000000E+00  0.52792241427E+03  0.52792241427E+03  0.00000000000E+00 0.  1.
         21   -1    0    0  501  502  0.00000000000E+00 -0.00000000000E+00 -0.78159729051E+02  0.78159729051E+02  0.00000000000E+00 0.  1.
         23    2    1    2    0    0 -0.10132128517E+03 -0.80217677947E+02  0.28801167750E+03  0.32879769209E+03  0.91958236504E+02 0.  0.
         23    2    1    2    0    0  0.20556779263E+02  0.91508528274E+02  0.14272065134E+03  0.19354352229E+03  0.91068758535E+02 0.  0.
        -13    1    3    3    0    0 -0.49111354953E+02 -0.55115511456E+02  0.24706150220E+03  0.25785466964E+03  0.00000000000E+00 0.  1.
         13    1    3    3    0    0 -0.52209930221E+02 -0.25102166491E+02  0.40950175302E+02  0.70943022444E+02  0.00000000000E+00 0. -1.
        -13    1    4    4    0    0  0.45835054785E+02  0.42042420192E+02  0.32640997548E+02  0.70241384266E+02  0.00000000000E+00 0. -1.
         13    1    4    4    0    0 -0.25278275522E+02  0.49466108082E+02  0.11007965380E+03  0.12330213803E+03  0.00000000000E+00 0.  1.
         -1    1    1    2    0  502  0.80764505911E+02 -0.11290850327E+02  0.19030356376E+02  0.83740928942E+02  0.00000000000E+00 0.  1.
<scales pt_clust_5="13000.00000" pt_clust_6="13000.00000" pt_clust_7="13000.00000" pt_clust_8="13000.00000" pt_clust_9="81.54992"></scales>
<clustering>
<clus scale="   81.550">  2  9  1 -1</clus>
<clus scale="   91.069">  7  8 -1 -1</clus>
<clus scale="   91.958">  5  6 -1 -1</clus>
<clus scale="  140.828">  2  7  1 -1</clus>
<clus scale="   81.550">  2  5  1 -1</clus>
</clustering>
</event>
<event>
 9    1  0.1321469E-005  0.1192478E+03  0.7546771E-02  0.1245379E+00
          1   -1    0    0  502    0 -0.00000000000E+00  0.00000000000E+00  0.32326969512E+03  0.32326969512E+03  0.00000000000E+00 0. -1.
         21   -1    0    0  501  502  0.00000000000E+00 -0.00000000000E+00 -0.11279615493E+03  0.11279615493E+03  0.00000000000E+00 0. -1.
         23    2    1    2    0    0  0.66506489436E+02  0.15276184304E+02  0.12460869537E+03  0.17050613906E+03  0.94279062106E+02 0.  0.
         23    2    1    2    0    0 -0.40631817105E+02 -0.90379494609E+02  0.11881195067E+03  0.17956251528E+03  0.91142853057E+02 0.  0.
        -11    1    3    3    0    0 -0.32200619040E-01 -0.30461662777E+02  0.59265348615E+02  0.66635542187E+02  0.00000000000E+00 0.  1.
         11    1    3    3    0    0  0.66538690055E+02  0.45737847081E+02  0.65343346755E+02  0.10387059687E+03  0.00000000000E+00 0. -1.
        -13    1    4    4    0    0 -0.37712511238E+02 -0.65756244461E+02  0.13144333196E+03  0.15173485659E+03  0.00000000000E+00 0. -1.
         13    1    4    4    0    0 -0.29193058678E+01 -0.24623250148E+02 -0.12631381286E+02  0.27827658683E+02  0.00000000000E+00 0.  1.
          1    1    1    2  501    0 -0.25874672330E+02  0.75103310305E+02 -0.32947105855E+02  0.85997195717E+02  0.00000000000E+00 0. -1.
<scales pt_clust_5="13000.00000" pt_clust_6="13000.00000" pt_clust_7="13000.00000" pt_clust_8="13000.00000" pt_clust_9="79.43555"></scales>
<clustering>
<clus scale="   79.436">  2  9  1 -1</clus>
<clus scale="   91.143">  7  8 -1 -1</clus>
<clus scale="   94.279">  5  6 -1 -1</clus>
<clus scale="  116.784">  2  7  1 -1</clus>
<clus scale="   79.436">  2  5  1 -1</clus>
</clustering>
</event>
<event>
 9    1  0.1321469E-005  0.9932412E+02  0.7546771E-02  0.1281820E+00
         21   -1    0    0  501  502  0.00000000000E+00  0.00000000000E+00  0.16269498871E+03  0.16269498871E+03  0.00000000000E+00 0.  1.
          4   -1    0    0  502    0 -0.00000000000E+00 -0.00000000000E+00 -0.16453015360E+03  0.16453015360E+03  0.00000000000E+00 0. -1.
         23    2    1    2    0    0 -0.50586351608E+02  0.15071016252E+02 -0.85018609588E+02  0.13480955873E+03  0.90329057604E+02 0.  0.
         23    2    1    2    0    0  0.14832158919E+02 -0.21315331046E+02 -0.81355524700E+01  0.94148025330E+02  0.90129502294E+02 0.  0.
        -11    1    4    4    0    0  0.40319233727E+02 -0.39108308273E+02 -0.21723126713E+02  0.60224535021E+02  0.00000000000E+00 0.  1.
         11    1    4    4    0    0 -0.25487074809E+02  0.17792977227E+02  0.13587574243E+02  0.33923490309E+02  0.00000000000E+00 0. -1.
        -11    1    3    3    0    0  0.25195041941E+01  0.28055257355E+02 -0.73809952719E+02  0.79002243557E+02  0.00000000000E+00 0. -1.
         11    1    3    3    0    0 -0.53105855802E+02 -0.12984241103E+02 -0.11208656869E+02  0.55807315168E+02  0.00000000000E+00 0.  1.
          4    1    1    2  501    0  0.35754192689E+02  0.62443147943E+01  0.91318997168E+02  0.98267558257E+02  0.00000000000E+00 0. -1.
<scales pt_clust_5="13000.00000" pt_clust_6="13000.00000" pt_clust_7="13000.00000" pt_clust_8="13000.00000" pt_clust_9="36.29537"></scales>
<clustering>
<clus scale="   36.295">  1  9  2 -1</clus>
<clus scale="   90.130">  5  6 -1 -1</clus>
<clus scale="   90.329">  7  8 -1 -1</clus>
<clus scale="   99.143">  1  5  2 -1</clus>
<clus scale="   36.295">  1  5  2 -1</clus>
</clustering>
</event>
<event>
 9    1  0.1321469E-005  0.1169720E+03  0.7546771E-02  0.1248446E+00
          4   -1    0    0  502    0 -0.00000000000E+00  0.00000000000E+00  0.48952554225E+03  0.48952554225E+03  0.00000000000E+00 0. -1.
         21   -1    0    0  501  502  0.00000000000E+00 -0.00000000000E+00 -0.58026214839E+02  0.58026214839E+02  0.00000000000E+00 0.  1.
         23    2    1    2    0    0 -0.67206726047E+02 -0.11599871846E+02  0.35929140588E+03  0.37704084863E+03  0.91750673796E+02 0.  0.
         23    2    1    2    0    0  0.91772880158E+02  0.11029658048E+02  0.63950577007E+02  0.14458785289E+03  0.90950843943E+02 0.  0.
        -11    1    4    4    0    0  0.14777863945E+02 -0.24320455574E+02 -0.11925132878E+02  0.30855771199E+02  0.00000000000E+00 0.  1.
         11    1    4    4    0    0  0.76995016213E+02  0.35350113621E+02  0.75875709886E+02  0.11373208169E+03  0.00000000000E+00 0. -1.
        -11    1    3    3    0    0 -0.65583929424E+02  0.30314562926E+02  0.21872079946E+03  0.23034542027E+03  0.00000000000E+00 0. -1.
         11    1    3    3    0    0 -0.16227966230E+01 -0.41914434772E+02  0.14057060642E+03  0.14669542836E+03  0.00000000000E+00 0.  1.
          4    1    1    2  501    0 -0.24566154112E+02  0.57021379842E+00  0.82573445217E+01  0.25923055572E+02  0.00000000000E+00 0. -1.
<scales pt_clust_5="13000.00000" pt_clust_6="13000.00000" pt_clust_7="13000.00000" pt_clust_8="13000.00000" pt_clust_9="24.57277"></scales>
<clustering>
<clus scale="   24.573">  2  9  1 -1</clus>
<clus scale="   90.951">  5  6 -1 -1</clus>
<clus scale="   91.751">  7  8 -1 -1</clus>
<clus scale="  116.346">  2  5  1 -1</clus>
<clus scale="   24.573">  2  5  1 -1</clus>
</clustering>
</event>
<event>
 9    1  0.1321469E-005  0.9931372E+02  0.7546771E-02  0.1281759E+00
         21   -1    0    0  501  502  0.00000000000E+00  0.00000000000E+00  0.10540104852E+03  0.10540104852E+03  0.00000000000E+00 0. -1.
          1   -1    0    0  502    0 -0.00000000000E+00 -0.00000000000E+00 -0.46101980538E+03  0.46101980538E+03  0.00000000000E+00 0. -1.
         23    2    1    2    0    0  0.39089087548E+02  0.11304478810E+01 -0.29698068157E+03  0.31280313305E+03  0.90105716464E+02 0.  0.
         23    2    1    2    0    0 -0.45830589453E+02  0.23451426919E+02 -0.13661794101E+03  0.17157763387E+03  0.90133291763E+02 0.  0.
        -13    1    3    3    0    0  0.64094123326E+02  0.23555609635E+01 -0.26231785203E+03  0.27004492368E+03  0.00000000000E+00 0. -1.
         13    1    3    3    0    0 -0.25005035778E+02 -0.12251130825E+01 -0.34662829542E+02  0.42758209366E+02  0.00000000000E+00 0.  1.
        -13    1    4    4    0    0 -0.85099225033E+01 -0.34130858412E+02 -0.45483681749E+02  0.57498692006E+02  0.00000000000E+00 0.  1.
         13    1    4    4    0    0 -0.37320666949E+02  0.57582285331E+02 -0.91134259259E+02  0.11407894186E+03  0.00000000000E+00 0. -1.
          1    1    1    2  501    0  0.67415019050E+01 -0.24581874800E+02  0.77979865720E+02  0.82040086996E+02  0.00000000000E+00 0. -1.
<scales pt_clust_5="13000.00000" pt_clust_6="13000.00000" pt_clust_7="13000.00000" pt_clust_8="13000.00000" pt_clust_9="25.48954"></scales>
<clustering>
<clus scale="   25.490">  1  9  2 -1</clus>
<clus scale="   90.106">  5  6 -1 -1</clus>
<clus scale="   90.133">  7  8 -1 -1</clus>
<clus scale="   99.289">  2  5  1 -1</clus>
<clus scale="   25.490">  1  5  2 -1</clus>
</clustering>
</event>
<event>
 9    1  0.1321469E-005  0.1269719E+03  0.7546771E-02  0.1232388E+00
         21   -1    0    0  501  502  0.00000000000E+00  0.00000000000E+00  0.38597668395E+02  0.38597668395E+02  0.00000000000E+00 0.  1.
          3   -1    0    0  502    0 -0.00000000000E+00 -0.00000000000E+00 -0.50188806827E+03  0.50188806827E+03  0.00000000000E+00 0. -1.
         23    2    1    2    0    0  0.96232966272E+02  0.17329490265E+01 -0.27875999295E+03  0.30903695259E+03  0.92373792234E+02 0.  0.
         23    2    1    2    0    0 -0.75613849499E+02 -0.12302889819E+01 -0.16485332222E+03  0.20294284949E+03  0.91050614856E+02 0.  0.
        -11    1    4    4    0    0 -0.44912520526E+02  0.36505215748E+02 -0.44115871769E+02  0.72773452707E+02  0.00000000000E+00 0.  1.
         11    1    4    4    0    0 -0.30701328972E+02 -0.37735504730E+02 -0.12073745045E+03  0.13016939678E+03  0.00000000000E+00 0. -1.
        -13    1    3    3    0    0  0.10886650212E+02 -0.32659226253E+02 -0.12679267108E+03  0.13138312544E+03  0.00000000000E+00 0. -1.
         13    1    3    3    0    0  0.85346316059E+02  0.34392175280E+02 -0.15196732187E+03  0.17765382715E+03  0.00000000000E+00 0.  1.
          3    1    1    2  501    0 -0.20619116773E+02 -0.50266004460E+00 -0.19677084708E+02  0.28505934579E+02  0.00000000000E+00 0. -1.
<scales pt_clust_5="13000.00000" pt_clust_6="13000.00000" pt_clust_7="13000.00000" pt_clust_8="13000.00000" pt_clust_9="20.62524"></scales>
<clustering>
<clus scale="   20.625">  1  9  2 -1</clus>
<clus scale="   91.051">  5  6 -1 -1</clus>
<clus scale="   92.374">  7  8 -1 -1</clus>
<clus scale="  126.013">  1  5  2 -1</clus>
<clus scale="   20.625">  1  5  2 -1</clus>
</clustering>
</event>
<event>
 9    1  0.1321469E-005  0.1008425E+03  0.7546771E-02  0.1281624E+00
          2   -1    0    0  502    0 -0.00000000000E+00  0.00000000000E+00  0.10213975899E+03  0.10213975899E+03  0.00000000000E+00 0. -1.
         21   -1    0    0  501  502  0.00000000000E+00 -0.00000000000E+00 -0.50707682078E+03  0.50707682078E+03  0.00000000000E+00 0. -1.
         23    2    1    2    0    0  0.12128130476E+02 -0.63462113753E+02  0.31011857623E+01  0.11139385018E+03  0.90688704228E+02 0.  0.
         23    2    1    2    0    0  0.31514993829E+02 -0.16961582572E+02 -0.27899135531E+02  0.10682600617E+03  0.96708550351E+02 0.  0.
        -11    1    4    4    0    0  0.12159821278E+02  0.36345444242E+02 -0.32052341857E+02  0.49962037480E+02  0.00000000000E+00 0.  1.
         11    1    4    4    0    0  0.19355172551E+02 -0.53307026814E+02  0.41532063253E+01  0.56863968688E+02  0.00000000000E+00 0. -1.
        -13    1    3    3    0    0  0.44561292187E+02 -0.16718501076E+02 -0.17754727631E+02  0.50798104225E+02  0.00000000000E+00 0. -1.
         13    1    3    3    0    0 -0.32433161712E+02 -0.46743612678E+02  0.20855913393E+02  0.60595745958E+02  0.00000000000E+00 0.  1.
          2    1    1    2  501    0 -0.43643124305E+02  0.80423696325E+02 -0.38013911202E+03  0.39099672341E+03  0.00000000000E+00 0. -1.
<scales pt_clust_5="13000.00000" pt_clust_6="13000.00000" pt_clust_7="13000.00000" pt_clust_8="13000.00000" pt_clust_9="91.50242"></scales>
<clustering>
<clus scale="   90.689">  7  8 -1 -1</clus>
<clus scale="   91.502">  2  9  1 -1</clus>
<clus scale="   95.085">  1  7  2 -1</clus>
<clus scale="   96.709">  5  6 -1 -1</clus>
<clus scale="   91.502">  2  5  1 -1</clus>
</clustering>
</event>
<event>
 9    1  0.1632435E-005  0.1514783E+03  0.7546771E-02  0.1211726E+00
         -1   -1    0    0    0  501 -0.00000000000E+00  0.00000000000E+00  0.63429128974E+03  0.63429128974E+03  0.00000000000E+00 0.  1.
         21   -1    0    0  501  502  0.00000000000E+00 -0.00000000000E+00 -0.13422790703E+03  0.13422790703E+03  0.00000000000E+00 0.  1.
         23    2    1    2    0    0  0.40015019339E+02 -0.58220743130E+02  0.79271884873E+02  0.13914648640E+03  0.89926949486E+02 0.  0.
         23    2    1    2    0    0 -0.14457204444E+03  0.74541664018E+01  0.47155075300E+03  0.50254243481E+03  0.96084054361E+02 0.  0.
        -11    1    4    4    0    0 -0.11181602284E+03  0.18264345963E+01  0.44815631119E+03  0.46189851492E+03  0.00000000000E+00 0.  1.
         11    1    4    4    0    0 -0.32756021605E+02  0.56277318055E+01  0.23394441810E+02  0.40643919893E+02  0.00000000000E+00 0. -1.
        -13    1    3    3    0    0  0.22474511020E+02 -0.81338387300E+02  0.50824670585E+02  0.98509816944E+02  0.00000000000E+00 0.  1.
         13    1    3    3    0    0  0.17540508319E+02  0.23117644170E+02  0.28447214287E+02  0.40636669460E+02  0.00000000000E+00 0. -1.
         -1    1    1    2    0  502  0.10455702510E+03  0.50766576728E+02 -0.50759255161E+02  0.12683027555E+03  0.00000000000E+00 0.  1.
<scales pt_clust_5="13000.00000" pt_clust_6="13000.00000" pt_clust_7="13000.00000" pt_clust_8="13000.00000" pt_clust_9="117.10481"></scales>
<clustering>
<clus scale="   89.927">  7  8 -1 -1</clus>
<clus scale="   96.084">  5  6 -1 -1</clus>
<clus scale="  114.358">  1  7  2 -1</clus>
<clus scale="  117.105">  2  9  1 -1</clus>
<clus scale="  117.105">  2  5  1 -1</clus>
</clustering>
</event>
<event>
 9    1  0.1321469E-005  0.1173894E+03  0.7546771E-02  0.1254208E+00
         21   -1    0    0  501  502  0.00000000000E+00  0.00000000000E+00  0.92962696792E+02  0.92962696792E+02  0.00000000000E+00 0.  1.
          1   -1    0    0  502    0 -0.00000000000E+00 -0.00000000000E+00 -0.32513337737E+03  0.32513337737E+03  0.00000000000E+00 0. -1.
         23    2    1    2    0    0  0.45367766271E+02 -0.35911025385E+02 -0.21130587117E+03  0.23382232326E+03  0.81699888037E+02 0.  0.
         23    2    1    2    0    0 -0.72681131435E+02  0.32281397515E+02 -0.56328583301E+02  0.13936413752E+03  0.99623380976E+02 0.  0.
        -11    1    4    4    0    0 -0.30143189817E+02  0.50054401728E+02 -0.70091818151E+02  0.91251947904E+02  0.00000000000E+00 0. -1.
         11    1    4    4    0    0 -0.42537941618E+02 -0.17773004213E+02  0.13763234850E+02  0.48112189613E+02  0.00000000000E+00 0.  1.
        -13    1    3    3    0    0 -0.48554979950E+00 -0.50294271332E+02 -0.12979935429E+03  0.13920352676E+03  0.00000000000E+00 0.  1.
         13    1    3    3    0    0  0.45853316071E+02  0.14383245947E+02 -0.81506516879E+02  0.94618796507E+02  0.00000000000E+00 0. -1.
          1    1    1    2  501    0  0.27313365163E+02  0.36296278697E+01  0.35463773894E+02  0.44909613379E+02  0.00000000000E+00 0. -1.
<scales pt_clust_5="13000.00000" pt_clust_6="13000.00000" pt_clust_7="13000.00000" pt_clust_8="13000.00000" pt_clust_9="27.55348"></scales>
<clustering>
<clus scale="   27.553">  1  9  2 -1</clus>
<clus scale="   81.700">  7  8 -1 -1</clus>
<clus scale="   99.623">  5  6 -1 -1</clus>
<clus scale="  102.617">  2  7  1 -1</clus>
<clus scale="   27.553">  1  5  2 -1</clus>
</clustering>
</event>
<event>
 9    1  0.1321469E-005  0.1400155E+03  0.7546771E-02  0.1214538E+00
         21   -1    0    0  501  502  0.00000000000E+00  0.00000000000E+00  0.19525918421E+03  0.19525918421E+03  0.00000000000E+00 0. -1.
          2   -1    0    0  502    0 -0.00000000000E+00 -0.00000000000E+00 -0.19197171797E+03  0.19197171797E+03  0.00000000000E+00 0. -1.
         23    2    1    2    0    0 -0.21751014755E+02 -0.11578597281E+03 -0.50045767005E+02  0.15792346331E+03  0.92497261182E+02 0.  0.
         23    2    1    2    0    0 -0.53568638556E+02  0.77341209809E+02  0.15087151128E+02  0.13649681030E+03  0.97736867776E+02 0.  0.
        -13    1    3    3    0    0 -0.51369583714E+02 -0.74315234367E+02 -0.59577470523E+01  0.90537743179E+02  0.00000000000E+00 0.  1.
         13    1    3    3    0    0  0.29618568959E+02 -0.41470738440E+02 -0.44088019953E+02  0.67385720129E+02  0.00000000000E+00 0. -1.
        -13    1    4    4    0    0 -0.61122139431E+02  0.96955848061E+02  0.13745902187E+02  0.11543527290E+03  0.00000000000E+00 0. -1.
         13    1    4    4    0    0  0.75535008746E+01 -0.19614638252E+02  0.13412489407E+01  0.21061537407E+02  0.00000000000E+00 0.  1.
          2    1    1    2  501    0  0.75319653312E+02  0.38444762998E+02  0.38246082115E+02  0.92810628562E+02  0.00000000000E+00 0. -1.
<scales pt_clust_5="13000.00000" pt_clust_6="13000.00000" pt_clust_7="13000.00000" pt_clust_8="13000.00000" pt_clust_9="84.56388"></scales>
<clustering>
<clus scale="   84.564">  1  9  2 -1</clus>
<clus scale="   92.497">  5  6 -1 -1</clus>
<clus scale="   97.737">  7  8 -1 -1</clus>
<clus scale="  136.410">  2  5  1 -1</clus>
<clus scale="   84.564">  1  5  2 -1</clus>
</clustering>
</event>
<event>
 9    1  0.1321469E-005  0.2180622E+03  0.7546771E-02  0.1135572E+00
          3   -1    0    0  502    0 -0.00000000000E+00  0.00000000000E+00  0.36172209717E+03  0.36172209717E+03  0.00000000000E+00 0. -1.
         21   -1    0    0  501  502  0.00000000000E+00 -0.00000000000E+00 -0.48460286215E+03  0.48460286215E+03  0.00000000000E+00 0.  1.
         23    2    1    2    0    0  0.13270188246E+03 -0.14815653020E+03  0.28853530788E+03  0.36163124540E+03  0.89243412678E+02 0.  0.
         23    2    1    2    0    0 -0.10614293602E+03  0.15513122242E+03 -0.27551044666E+03  0.34604176407E+03  0.92232734013E+02 0.  0.
        -11    1    3    3    0    0  0.12002790967E+02 -0.76633490827E+02  0.96698853752E+02  0.12396542754E+03  0.00000000000E+00 0. -1.
         11    1    3    3    0    0  0.12069909149E+03 -0.71523039374E+02  0.19183645413E+03  0.23766581786E+03  0.00000000000E+00 0.  1.
        -11    1    4    4    0    0 -0.88609252110E+02  0.16638954915E+03 -0.24974170110E+03  0.31290253897E+03  0.00000000000E+00 0.  1.
         11    1    4    4    0    0 -0.17533683911E+02 -0.11258326731E+02 -0.25768745567E+02  0.33139225102E+02  0.00000000000E+00 0. -1.
          3    1    1    2  501    0 -0.26558946435E+02 -0.69746922227E+01 -0.13590562619E+03  0.13865194985E+03  0.00000000000E+00 0. -1.
<scales pt_clust_5="13000.00000" pt_clust_6="13000.00000" pt_clust_7="13000.00000" pt_clust_8="13000.00000" pt_clust_9="27.45950"></scales>
<clustering>
<clus scale="   27.459">  2  9  1 -1</clus>
<clus scale="   89.243">  5  6 -1 -1</clus>
<clus scale="   92.233">  7  8 -1 -1</clus>
<clus scale="  216.815">  1  5  2 -1</clus>
<clus scale="   27.459">  2  5  1 -1</clus>
</clustering>
</event>
<event>
 9    1  0.1321469E-005  0.1737164E+03  0.7546771E-02  0.1196673E+00
         -2   -1    0    0    0  501 -0.00000000000E+00  0.00000000000E+00  0.35443530217E+03  0.35443530217E+03  0.00000000000E+00 0.  1.
         21   -1    0    0  501  502  0.00000000000E+00 -0.00000000000E+00 -0.15974592719E+03  0.15974592719E+03  0.00000000000E+00 0. -1.
         23    2    1    2    0    0 -0.52492061597E+02  0.51632429858E+01  0.12255972844E+03  0.16132193686E+03  0.90674167587E+02 0.  0.
         23    2    1    2    0    0  0.18351175864E+03 -0.25795094614E+02  0.77276991942E+02  0.22012523704E+03  0.90229895436E+02 0.  0.
        -11    1    4    4    0    0  0.53645830833E+02  0.33514616268E+02  0.20700045621E+02  0.66555214357E+02  0.00000000000E+00 0.  1.
         11    1    4    4    0    0  0.12986592781E+03 -0.59309710882E+02  0.56576946321E+02  0.15357002268E+03  0.00000000000E+00 0. -1.
        -13    1    3    3    0    0  0.11498367771E+02  0.25433465738E+02  0.88556703763E+01  0.29283041827E+02  0.00000000000E+00 0. -1.
         13    1    3    3    0    0 -0.63990429368E+02 -0.20270222752E+02  0.11370405806E+03  0.13203889503E+03  0.00000000000E+00 0.  1.
         -2    1    1    2    0  502 -0.13101969705E+03  0.20631851628E+02 -0.51473454099E+01  0.13273405547E+03  0.00000000000E+00 0.  1.
<scales pt_clust_5="13000.00000" pt_clust_6="13000.00000" pt_clust_7="13000.00000" pt_clust_8="13000.00000" pt_clust_9="148.44510"></scales>
<clustering>
<clus scale="   90.230">  5  6 -1 -1</clus>
<clus scale="   90.674">  7  8 -1 -1</clus>
<clus scale="  104.899">  1  7  2 -1</clus>
<clus scale="  148.445">  2  9  1 -1</clus>
<clus scale="  148.445">  2  5  1 -1</clus>
</clustering>
</event>
<event>
 9    1  0.1321469E-005  0.1496779E+03  0.7546771E-02  0.1200957E+00
         -1   -1    0    0    0  501 -0.00000000000E+00  0.00000000000E+00  0.61307850784E+03  0.61307850784E+03  0.00000000000E+00 0.  1.
         21   -1    0    0  501  502  0.00000000000E+00 -0.00000000000E+00 -0.10563952096E+03  0.10563952096E+03  0.00000000000E+00 0.  1.
         23    2    1    2    0    0  0.26425050471E+02  0.15040337018E+03  0.41181245442E+03  0.44881234915E+03  0.92323182809E+02 0.  0.
         23    2    1    2    0    0 -0.43755490077E+02 -0.63246678804E+02  0.12755546326E+03  0.17548063206E+03  0.92781305931E+02 0.  0.
        -11    1    3    3    0    0  0.50174564331E+02  0.11324662415E+03  0.36033113036E+03  0.38102599425E+03  0.00000000000E+00 0.  1.
         11    1    3    3    0    0 -0.23749513860E+02  0.37156746035E+02  0.51481324058E+02  0.67786354905E+02  0.00000000000E+00 0. -1.
        -13    1    4    4    0    0 -0.25020819836E+02  0.80984449882E+01 -0.20242589758E+01  0.26376577884E+02  0.00000000000E+00 0.  1.
         13    1    4    4    0    0 -0.18734670241E+02 -0.71345123792E+02  0.12957972224E+03  0.14910405418E+03  0.00000000000E+00 0. -1.
         -1    1    1    2    0  502  0.17330439605E+02 -0.87156691381E+02 -0.31928930804E+02  0.94425047586E+02  0.00000000000E+00 0.  1.
<scales pt_clust_5="13000.00000" pt_clust_6="13000.00000" pt_clust_7="13000.00000" pt_clust_8="13000.00000" pt_clust_9="88.86300"></scales>
<clustering>
<clus scale="   88.863">  2  9  1 -1</clus>
<clus scale="   92.323">  5  6 -1 -1</clus>
<clus scale="   92.781">  7  8 -1 -1</clus>
<clus scale="  149.394">  1  5  2 -1</clus>
<clus scale="   88.863">  2  5  1 -1</clus>
</clustering>
</event>
<event>
 9    1  0.1321469E-005  0.9773188E+02  0.7546771E-02  0.1286330E+00
         21   -1    0    0  501  502  0.00000000000E+00  0.00000000000E+00  0.50246027176E+02  0.50246027176E+02  0.00000000000E+00 0.  1.
         -3   -1    0    0    0  501 -0.00000000000E+00 -0.00000000000E+00 -0.77459492743E+03  0.77459492743E+03  0.00000000000E+00 0.  1.
         23    2    1    2    0    0  0.22931053915E+02  0.21401027321E+02 -0.36544025831E+03  0.37755270420E+03  0.89530022088E+02 0.  0.
         23    2    1    2    0    0 -0.73492800110E+01 -0.38291554469E+02 -0.39339264420E+03  0.40584880064E+03  0.91843461438E+02 0.  0.
        -11    1    3    3    0    0 -0.18740564788E+02 -0.25687171380E+02 -0.11171208836E+03  0.11614917231E+03  0.00000000000E+00 0. -1.
         11    1    3    3    0    0  0.41671618704E+02  0.47088198701E+02 -0.25372816995E+03  0.26140353189E+03  0.00000000000E+00 0.  1.
        -13    1    4    4    0    0 -0.48933472340E+02 -0.12186728834E+02 -0.21366496488E+03  0.21953523247E+03  0.00000000000E+00 0. -1.
         13    1    4    4    0    0  0.41584192329E+02 -0.26104825635E+02 -0.17972767931E+03  0.18631356817E+03  0.00000000000E+00 0.  1.
         -3    1    1    2    0  502 -0.15581773904E+02  0.16890527148E+02  0.34484002254E+02  0.41439449764E+02  0.00000000000E+00 0.  1.
<scales pt_clust_5="13000.00000" pt_clust_6="13000.00000" pt_clust_7="13000.00000" pt_clust_8="13000.00000" pt_clust_9="22.98003"></scales>
<clustering>
<clus scale="   22.980">  1  9  2 -1</clus>
<clus scale="   89.530">  5  6 -1 -1</clus>
<clus scale="   91.843">  7  8 -1 -1</clus>
<clus scale="   95.561">  2  5  1 -1</clus>
<clus scale="   22.980">  1  5  2 -1</clus>
</clustering>
</event>
<event>
 9    1  0.1321469E-005  0.1533705E+03  0.7546771E-02  0.1196826E+00
         21   -1    0    0  501  502  0.00000000000E+00  0.00000000000E+00  0.15356738124E+03  0.15356738124E+03  0.00000000000E+00 0.  1.
          1   -1    0    0  502    0 -0.00000000000E+00 -0.00000000000E+00 -0.24248457033E+03  0.24248457033E+03  0.00000000000E+00 0. -1.
         23    2    1    2    0    0 -0.48055176534E+01  0.11723410688E+03 -0.12789857457E+03  0.19619426630E+03  0.91472487320E+02 0.  0.
         23    2    1    2    0    0 -0.11754505543E+02 -0.13931097407E+03  0.21359663727E+02  0.16711402160E+03  0.89023283943E+02 0.  0.
        -11    1    3    3    0    0 -0.39020045263E+02  0.90012317988E+02 -0.11380960165E+03  0.15025780096E+03  0.00000000000E+00 0. -1.
         11    1    3    3    0    0  0.34214527610E+02  0.27221788893E+02 -0.14088972922E+02  0.45936465342E+02  0.00000000000E+00 0.  1.
        -13    1    4    4    0    0  0.14405620238E+02 -0.12688726387E+03 -0.52147327633E+01  0.12780881450E+03  0.00000000000E+00 0.  1.
         13    1    4    4    0    0 -0.26160125782E+02 -0.12423710199E+02  0.26574396491E+02  0.39305207096E+02  0.00000000000E+00 0. -1.
          1    1    1    2  501    0  0.16560023197E+02  0.22076867189E+02  0.17621721756E+02  0.32743663674E+02  0.00000000000E+00 0. -1.
<scales pt_clust_5="13000.00000" pt_clust_6="13000.00000" pt_clust_7="13000.00000" pt_clust_8="13000.00000" pt_clust_9="27.59751"></scales>
<clustering>
<clus scale="   27.598">  1  9  2 -1</clus>
<clus scale="   89.023">  7  8 -1 -1</clus>
<clus scale="   91.472">  5  6 -1 -1</clus>
<clus scale="  151.922">  1  7  2 -1</clus>
<clus scale="   27.598">  1  5  2 -1</clus>
</clustering>
</event>
<event>
 9    1  0.1321469E-005  0.1503765E+03  0.7546771E-02  0.1222079E+00
          2   -1    0    0  502    0 -0.00000000000E+00  0.00000000000E+00  0.50400159932E+03  0.50400159932E+03  0.00000000000E+00 0. -1.
         21   -1    0    0  501  502  0.00000000000E+00 -0.00000000000E+00 -0.53811880507E+03  0.53811880507E+03  0.00000000000E+00 0. -1.
         23    2    1    2    0    0 -0.82539562014E+01  0.21395548748E+02 -0.21457473711E+03  0.23423921335E+03  0.91103205016E+02 0.  0.
         23    2    1    2    0    0  0.11645044608E+03  0.32058153302E+02  0.47036691101E+03  0.49385694501E+03  0.89784294686E+02 0.  0.
        -11    1    4    4    0    0  0.26931243321E+02  0.37622627431E+02  0.72501881562E+02  0.86007422887E+02  0.00000000000E+00 0.  1.
         11    1    4    4    0    0  0.89519202758E+02 -0.55644741289E+01  0.39786502945E+03  0.40784952212E+03  0.00000000000E+00 0. -1.
        -11    1    3    3    0    0  0.52097203489E+01  0.52916326839E+02 -0.16929874449E+03  0.17745237028E+03  0.00000000000E+00 0. -1.
         11    1    3    3    0    0 -0.13463676550E+02 -0.31520778091E+02 -0.45275992622E+02  0.56786843068E+02  0.00000000000E+00 0.  1.
          2    1    1    2  501    0 -0.10819648988E+03 -0.53453702051E+02 -0.28990937965E+03  0.31402424603E+03  0.00000000000E+00 0. -1.
<scales pt_clust_5="13000.00000" pt_clust_6="13000.00000" pt_clust_7="13000.00000" pt_clust_8="13000.00000" pt_clust_9="120.63110"></scales>
<clustering>
<clus scale="   89.784">  5  6 -1 -1</clus>
<clus scale="   91.103">  7  8 -1 -1</clus>
<clus scale="   93.945">  1  7  2 -1</clus>
<clus scale="  120.631">  2  9  1 -1</clus>
<clus scale="  120.631">  2  5  1 -1</clus>
</clustering>
</event>
<event>
 9    1  0.1321469E-005  0.9695894E+02  0.7546771E-02  0.1288442E+00
         21   -1    0    0  501  502  0.00000000000E+00  0.00000000000E+00  0.73809991297E+02  0.73809991297E+02  0.00000000000E+00 0.  1.
          2   -1    0    0  502    0 -0.00000000000E+00 -0.00000000000E+00 -0.21389280735E+03  0.21389280735E+03  0.00000000000E+00 0. -1.
         23    2    1    2    0    0  0.96089329645E+01 -0.70899630971E+01 -0.92268867808E+02  0.12997201640E+03  0.90755616414E+02 0.  0.
         23    2    1    2    0    0 -0.17742621515E+02  0.47221969476E+02 -0.47978097544E+02  0.11678250059E+03  0.93763210167E+02 0.  0.
        -11    1    4    4    0    0  0.12778740990E+02  0.31564902584E+02  0.20815045796E+02  0.39911219324E+02  0.00000000000E+00 0.  1.
         11    1    4    4    0    0 -0.30521362506E+02  0.15657066891E+02 -0.68793143340E+02  0.76871281266E+02  0.00000000000E+00 0. -1.
        -11    1    3    3    0    0 -0.34675596721E+01  0.28409872678E+02  0.17024226652E+01  0.28671293633E+02  0.00000000000E+00 0.  1.
         11    1    3    3    0    0  0.13076492637E+02 -0.35499835775E+02 -0.93971290473E+02  0.10130072277E+03  0.00000000000E+00 0. -1.
          2    1    1    2  501    0  0.81336885510E+01 -0.40132006379E+02  0.16414930242E+00  0.40948281654E+02  0.00000000000E+00 0. -1.
<scales pt_clust_5="13000.00000" pt_clust_6="13000.00000" pt_clust_7="13000.00000" pt_clust_8="13000.00000" pt_clust_9="40.94795"></scales>
<clustering>
<clus scale="   40.948">  1  9  2 -1</clus>
<clus scale="   90.756">  7  8 -1 -1</clus>
<clus scale="   93.763">  5  6 -1 -1</clus>
<clus scale="   94.054">  2  7  1 -1</clus>
<clus scale="   40.948">  1  5  2 -1</clus>
</clustering>
</event>
<event>
 9    1  0.1321469E-005  0.2222958E+03  0.7546771E-02  0.1132306E+00
         21   -1    0    0  501  502  0.00000000000E+00  0.00000000000E+00  0.11879079831E+03  0.11879079831E+03  0.00000000000E+00 0.  1.
          1   -1    0    0  502    0 -0.00000000000E+00 -0.00000000000E+00 -0.12699056226E+04  0.12699056226E+04  0.00000000000E+00 0. -1.
         23    2    1    2    0    0 -0.20124654619E+03  0.87424283859E+02 -0.77571940814E+03  0.81107994378E+03  0.89257477438E+02 0.  0.
         23    2    1    2    0    0  0.15397969352E+03 -0.99693869444E+02 -0.44659304055E+03  0.49128108575E+03  0.90901857688E+02 0.  0.
        -13    1    3    3    0    0 -0.90038800079E+02  0.71922769621E+02 -0.50533960235E+03  0.51831263154E+03  0.00000000000E+00 0.  1.
         13    1    3    3    0    0 -0.11120774611E+03  0.15501514238E+02 -0.27037980578E+03  0.29276731224E+03  0.00000000000E+00 0. -1.
        -13    1    4    4    0    0  0.54031891386E+02 -0.20748259111E+02 -0.56348545323E+02  0.80778054587E+02  0.00000000000E+00 0.  1.
         13    1    4    4    0    0  0.99947802131E+02 -0.78945610333E+02 -0.39024449523E+03  0.41050303117E+03  0.00000000000E+00 0. -1.
          1    1    1    2  501    0  0.47266852674E+02  0.12269585585E+02  0.71197624378E+02  0.86335391406E+02  0.00000000000E+00 0. -1.
<scales pt_clust_5="13000.00000" pt_clust_6="13000.00000" pt_clust_7="13000.00000" pt_clust_8="13000.00000" pt_clust_9="48.83337"></scales>
<clustering>
<clus scale="   48.833">  1  9  2 -1</clus>
<clus scale="   89.257">  5  6 -1 -1</clus>
<clus scale="   90.902">  7  8 -1 -1</clus>
<clus scale="  221.628">  2  5  1 -1</clus>
<clus scale="   48.833">  1  5  2 -1</clus>
</clustering>
</event>
<event>
 9    1  0.1321469E-005  0.2300928E+03  0.7546771E-02  0.1126611E+00
         -3   -1    0    0    0  501 -0.00000000000E+00  0.00000000000E+00  0.10942108720E+04  0.10942108720E+04  0.00000000000E+00 0.  1.
         21   -1    0    0  501  502  0.00000000000E+00 -0.00000000000E+00 -0.89595116071E+02  0.89595116071E+02  0.00000000000E+00 0.  1.
         23    2    1    2    0    0 -0.19700141186E+03  0.80096770759E+02  0.84717457436E+03  0.87824865021E+03  0.91601764090E+02 0.  0.
         23    2    1    2    0    0  0.18046592097E+03 -0.96580215670E+02  0.10351015126E+03  0.24678929854E+03  0.91076450136E+02 0.  0.
        -11    1    4    4    0    0  0.16365284495E+03 -0.59199040233E+02  0.53376046228E+02  0.18203236617E+03  0.00000000000E+00 0.  1.
         11    1    4    4    0    0  0.16813076026E+02 -0.37381175437E+02  0.50134105030E+02  0.64756932367E+02  0.00000000000E+00 0. -1.
        -11    1    3    3    0    0 -0.37035511985E+02 -0.20494304658E+02  0.17169505488E+03  0.17683562294E+03  0.00000000000E+00 0. -1.
         11    1    3    3    0    0 -0.15996589988E+03  0.10059107542E+03  0.67547951949E+03  0.70141302727E+03  0.00000000000E+00 0.  1.
         -3    1    1    2    0  502  0.16535490891E+02  0.16483444911E+02  0.53931030264E+02  0.58768039277E+02  0.00000000000E+00 0.  1.
<scales pt_clust_5="13000.00000" pt_clust_6="13000.00000" pt_clust_7="13000.00000" pt_clust_8="13000.00000" pt_clust_9="23.34795"></scales>
<clustering>
<clus scale="   23.348">  2  9  1 -1</clus>
<clus scale="   91.076">  5  6 -1 -1</clus>
<clus scale="   91.602">  7  8 -1 -1</clus>
<clus scale="  229.884">  2  5  1 -1</clus>
<clus scale="   23.348">  2  5  1 -1</clus>
</clustering>
</event>
<event>
 9    1  0.1321469E-005  0.1010692E+03  0.7546771E-02  0.1278686E+00
         -1   -1    0    0    0  501 -0.00000000000E+00  0.00000000000E+00  0.17362156883E+03  0.17362156883E+03  0.00000000000E+00 0.  1.
         21   -1    0    0  501  502  0.00000000000E+00 -0.00000000000E+00 -0.10001421938E+03  0.10001421938E+03  0.00000000000E+00 0. -1.
         23    2    1    2    0    0 -0.46016789451E+02  0.34729052438E+01  0.48890704964E+02  0.11329501728E+03  0.91191304009E+02 0.  0.
         23    2    1    2    0    0  0.32638478553E+02  0.44853248370E+02  0.28791194979E+01  0.10564823192E+03  0.89867543676E+02 0.  0.
        -11    1    4    4    0    0 -0.53833153188E+01  0.60548138072E+02 -0.11898441254E+02  0.61940536098E+02  0.00000000000E+00 0. -1.
         11    1    4    4    0    0  0.38021793872E+02 -0.15694889703E+02  0.14777560751E+02  0.43707695818E+02  0.00000000000E+00 0.  1.
        -13    1    3    3    0    0 -0.30543368934E+02  0.44849113005E+02  0.11606829098E+02  0.55489267475E+02  0.00000000000E+00 0.  1.
         13    1    3    3    0    0 -0.15473420517E+02 -0.41376207761E+02  0.37283875866E+02  0.57805749807E+02  0.00000000000E+00 0. -1.
         -1    1    1    2    0  502  0.13378310898E+02 -0.48326153613E+02  0.21837524992E+02  0.54692539010E+02  0.00000000000E+00 0.  1.
<scales pt_clust_5="13000.00000" pt_clust_6="13000.00000" pt_clust_7="13000.00000" pt_clust_8="13000.00000" pt_clust_9="50.14378"></scales>
<clustering>
<clus scale="   50.144">  2  9  1 -1</clus>
<clus scale="   89.868">  5  6 -1 -1</clus>
<clus scale="   91.191">  7  8 -1 -1</clus>
<clus scale="   99.876">  2  5  1 -1</clus>
<clus scale="   50.144">  2  5  1 -1</clus>
</clustering>
</event>
<event>
 9    1  0.1321469E-005  0.1206013E+03  0.7546771E-02  0.1243131E+00
         21   -1    0    0  501  502  0.00000000000E+00  0.00000000000E+00  0.12590287890E+03  0.12590287890E+03  0.00000000000E+00 0.  1.
          3   -1    0    0  502    0 -0.00000000000E+00 -0.00000000000E+00 -0.22486089719E+03  0.22486089719E+03  0.00000000000E+00 0. -1.
         23    2    1    2    0    0  0.65573790548E+02  0.48814833351E+02 -0.11918205726E+03  0.16931498354E+03  0.88206524227E+02 0.  0.
         23    2    1    2    0    0 -0.71608103516E+02 -0.23668656793E+02 -0.32315520708E+02  0.12288986104E+03  0.91486060486E+02 0.  0.
        -11    1    4    4    0    0 -0.16149610370E+02 -0.39409608613E+02  0.18127500522E+02  0.46287508480E+02  0.00000000000E+00 0.  1.
         11    1    4    4    0    0 -0.55458493146E+02  0.15740951820E+02 -0.50443021231E+02  0.76602352556E+02  0.00000000000E+00 0. -1.
        -13    1    3    3    0    0  0.10395117279E+02 -0.19822257973E+02 -0.16417432646E+01  0.22442720319E+02  0.00000000000E+00 0.  1.
         13    1    3    3    0    0  0.55178673270E+02  0.68637091324E+02 -0.11754031400E+03  0.14687226322E+03  0.00000000000E+00 0. -1.
          3    1    1    2  501    0  0.60343129672E+01 -0.25146176559E+02  0.52539559684E+02  0.58558931516E+02  0.00000000000E+00 0. -1.
<scales pt_clust_5="13000.00000" pt_clust_6="13000.00000" pt_clust_7="13000.00000" pt_clust_8="13000.00000" pt_clust_9="25.86007"></scales>
<clustering>
<clus scale="   25.860">  1  9  2 -1</clus>
<clus scale="   88.207">  7  8 -1 -1</clus>
<clus scale="   91.486">  5  6 -1 -1</clus>
<clus scale="  118.133">  2  7  1 -1</clus>
<clus scale="   25.860">  1  5  2 -1</clus>
</clustering>
</event>
<event>
 9    1  0.1321469E-005  0.9172361E+02  0.7546771E-02  0.1298827E+00
         21   -1    0    0  501  502  0.00000000000E+00  0.00000000000E+00  0.16846241445E+03  0.16846241445E+03  0.00000000000E+00 0.  1.
         -1   -1    0    0    0  501 -0.00000000000E+00 -0.00000000000E+00 -0.16904958225E+03  0.16904958225E+03  0.00000000000E+00 0.  1.
         23    2    1    2    0    0 -0.18951006874E+02 -0.28211538378E+01 -0.93457401279E+02  0.13196030763E+03  0.91170923906E+02 0.  0.
         23    2    1    2    0    0 -0.39077635639E+02  0.27587346548E+02  0.12791469908E+02  0.10360417302E+03  0.91005932054E+02 0.  0.
        -11    1    3    3    0    0 -0.46423281669E+02  0.16119822659E+02 -0.23542708100E+02  0.54490631013E+02  0.00000000000E+00 0.  1.
         11    1    3    3    0    0  0.27472274795E+02 -0.18940976496E+02 -0.69914693179E+02  0.77469676619E+02  0.00000000000E+00 0. -1.
        -13    1    4    4    0    0 -0.68975116755E+02  0.17272632416E+02  0.69656026869E+01  0.71445295035E+02  0.00000000000E+00 0.  1.
         13    1    4    4    0    0  0.29897481115E+02  0.10314714132E+02  0.58258672214E+01  0.32158877990E+02  0.00000000000E+00 0. -1.
         -1    1    1    2    0  502  0.58028642514E+02 -0.24766192710E+02  0.80078763573E+02  0.10194751605E+03  0.00000000000E+00 0.  1.
<scales pt_clust_5="13000.00000" pt_clust_6="13000.00000" pt_clust_7="13000.00000" pt_clust_8="13000.00000" pt_clust_9="63.09269"></scales>
<clustering>
<clus scale="   63.093">  1  9  2 -1</clus>
<clus scale="   91.006">  7  8 -1 -1</clus>
<clus scale="   91.171">  5  6 -1 -1</clus>
<clus scale="   91.560">  1  7  2 -1</clus>
<clus scale="   63.093">  1  5  2 -1</clus>
</clustering>
</event>
<event>
 9    1  0.1321469E-005  0.1783281E+03  0.7546771E-02  0.1181054E+00
          1   -1    0    0  502    0 -0.00000000000E+00  0.00000000000E+00  0.10746441541E+04  0.10746441541E+04  0.00000000000E+00 0. -1.
         21   -1    0    0  501  502  0.00000000000E+00 -0.00000000000E+00 -0.90442221379E+02  0.90442221379E+02  0.00000000000E+00 0. -1.
         23    2    1    2    0    0  0.67860683635E+02 -0.76749711614E+02  0.31284352329E+03  0.34153689204E+03  0.90998834845E+02 0.  0.
         23    2    1    2    0    0 -0.31157555539E+02  0.21787897770E+03  0.62777311284E+03  0.67135136438E+03  0.90396521290E+02 0.  0.
        -11    1    4    4    0    0 -0.45080281608E+02  0.42606816599E+02  0.17160513917E+03  0.18247163177E+03  0.00000000000E+00 0.  1.
         11    1    4    4    0    0  0.13922726069E+02  0.17527216110E+03  0.45616797367E+03  0.48887973262E+03  0.00000000000E+00 0. -1.
        -11    1    3    3    0    0  0.54157953847E+02 -0.16597172063E+02  0.65407077558E+02  0.86525348194E+02  0.00000000000E+00 0. -1.
         11    1    3    3    0    0  0.13702729789E+02 -0.60152539551E+02  0.24743644573E+03  0.25501154385E+03  0.00000000000E+00 0.  1.
          1    1    1    2  501    0 -0.36703128096E+02 -0.14112926609E+03  0.43585296554E+02  0.15219811902E+03  0.00000000000E+00 0. -1.
<scales pt_clust_5="13000.00000" pt_clust_6="13000.00000" pt_clust_7="13000.00000" pt_clust_8="13000.00000" pt_clust_9="153.71852"></scales>
<clustering>
<clus scale="   90.397">  5  6 -1 -1</clus>
<clus scale="   90.999">  7  8 -1 -1</clus>
<clus scale="  137.027">  1  7  2 -1</clus>
<clus scale="  153.719">  2  9  1 -1</clus>
<clus scale="  153.719">  2  5  1 -1</clus>
</clustering>
</event>
<event>
 9    1  0.1321469E-005  0.1245315E+03  0.7546771E-02  0.1236533E+00
          2   -1    0    0  502    0 -0.00000000000E+00  0.00000000000E+00  0.19908618582E+03  0.19908618582E+03  0.00000000000E+00 0. -1.
         21   -1    0    0  501  502  0.00000000000E+00 -0.00000000000E+00 -0.21505027691E+03  0.21505027691E+03  0.00000000000E+00 0.  1.
         23    2    1    2    0    0  0.46016091276E+02 -0.60362893690E+02  0.58542083003E+02  0.13110523635E+03  0.89444105034E+02 0.  0.
         23    2    1    2    0    0 -0.26734411538E+02  0.93275240303E+02  0.57574429111E+02  0.14555289546E+03  0.91955594034E+02 0.  0.
        -13    1    4    4    0    0 -0.32983592884E+02  0.11118052051E+02 -0.12909535870E+02  0.37123908702E+02  0.00000000000E+00 0.  1.
         13    1    4    4    0    0  0.62491813456E+01  0.82157188252E+02  0.70483964981E+02  0.10842898675E+03  0.00000000000E+00 0. -1.
        -13    1    3    3    0    0 -0.25239855282E+02 -0.39176603913E+01  0.19673733749E+02  0.32240566950E+02  0.00000000000E+00 0.  1.
         13    1    3    3    0    0  0.71255946558E+02 -0.56445233299E+02  0.38868349254E+02  0.98864669401E+02  0.00000000000E+00 0. -1.
          2    1    1    2  501    0 -0.19281679737E+02 -0.32912346613E+02 -0.13208060320E+03  0.13747833093E+03  0.00000000000E+00 0. -1.
<scales pt_clust_5="13000.00000" pt_clust_6="13000.00000" pt_clust_7="13000.00000" pt_clust_8="13000.00000" pt_clust_9="38.14454"></scales>
<clustering>
<clus scale="   38.145">  2  9  1 -1</clus>
<clus scale="   89.444">  7  8 -1 -1</clus>
<clus scale="   91.956">  5  6 -1 -1</clus>
<clus scale="  122.689">  1  7  2 -1</clus>
<clus scale="   38.145">  2  5  1 -1</clus>
</clustering>
</event>
<event>
 9    1  0.1321469E-005  0.1578486E+03  0.7546771E-02  0.1191749E+00
         21   -1    0    0  501  502  0.00000000000E+00  0.00000000000E+00  0.63870356004E+02  0.63870356004E+02  0.00000000000E+00 0. -1.
         -1   -1    0    0    0  501 -0.00000000000E+00 -0.00000000000E+00 -0.66823076577E+03  0.66823076577E+03  0.00000000000E+00 0.  1.
         23    2    1    2    0    0 -0.11871681242E+03  0.10211487761E+03 -0.43126928933E+03  0.46829531568E+03  0.93734588009E+02 0.  0.
         23    2    1    2    0    0  0.63694597337E+02 -0.60408562457E+02 -0.13649527591E+03  0.18566416090E+03  0.90188824976E+02 0.  0.
        -11    1    4    4    0    0  0.29690689420E+02 -0.55617355346E+01  0.45586897145E+01  0.30549166802E+02  0.00000000000E+00 0. -1.
         11    1    4    4    0    0  0.34003907918E+02 -0.54846826923E+02 -0.14105396562E+03  0.15511499410E+03  0.00000000000E+00 0.  1.
        -11    1    3    3    0    0  0.15736525472E+01  0.37828153669E+02 -0.16307082363E+03  0.16740830061E+03  0.00000000000E+00 0.  1.
         11    1    3    3    0    0 -0.12029046496E+03  0.64286723943E+02 -0.26819846569E+03  0.30088701507E+03  0.00000000000E+00 0. -1.
         -1    1    1    2    0  502  0.55022215080E+02 -0.41706315155E+02 -0.36595844524E+02  0.78141645187E+02  0.00000000000E+00 0.  1.
<scales pt_clust_5="13000.00000" pt_clust_6="13000.00000" pt_clust_7="13000.00000" pt_clust_8="13000.00000" pt_clust_9="69.04246"></scales>
<clustering>
<clus scale="   69.042">  1  9  2 -1</clus>
<clus scale="   90.189">  5  6 -1 -1</clus>
<clus scale="   93.735">  7  8 -1 -1</clus>
<clus scale="  155.769">  1  5  2 -1</clus>
<clus scale="   69.042">  1  5  2 -1</clus>
</clustering>
</event>
<event>
 9    1  0.1321469E-005  0.1031222E+03  0.7546771E-02  0.1275022E+00
          3   -1    0    0  502    0 -0.00000000000E+00  0.00000000000E+00  0.54129521812E+03  0.54129521812E+03  0.00000000000E+00 0. -1.
         21   -1    0    0  501  502  0.00000000000E+00 -0.00000000000E+00 -0.38969183553E+02  0.38969183553E+02  0.00000000000E+00 0.  1.
         23    2    1    2    0    0 -0.29016957500E+02 -0.20815490808E+02  0.31106800951E+03  0.32588902357E+03  0.90360835907E+02 0.  0.
         23    2    1    2    0    0  0.36606207962E+02  0.56690996598E+02  0.18417187459E+03  0.21702752453E+03  0.92885862513E+02 0.  0.
        -11    1    3    3    0    0  0.24121478236E+02  0.15916342607E+02  0.59318620413E+02  0.65983895019E+02  0.00000000000E+00 0.  1.
         11    1    3    3    0    0 -0.53138435736E+02 -0.36731833415E+02  0.25174938909E+03  0.25990512855E+03  0.00000000000E+00 0. -1.
        -11    1    4    4    0    0 -0.25442005057E+02  0.44231725191E+02  0.72258955220E+02  0.88459582546E+02  0.00000000000E+00 0.  1.
         11    1    4    4    0    0  0.62048213018E+02  0.12459271406E+02  0.11191291937E+03  0.12856794198E+03  0.00000000000E+00 0. -1.
          3    1    1    2  501    0 -0.75892504617E+01 -0.35875505790E+02  0.70861504690E+01  0.37347853576E+02  0.00000000000E+00 0. -1.
<scales pt_clust_5="13000.00000" pt_clust_6="13000.00000" pt_clust_7="13000.00000" pt_clust_8="13000.00000" pt_clust_9="36.66945"></scales>
<clustering>
<clus scale="   36.669">  2  9  1 -1</clus>
<clus scale="   90.361">  5  6 -1 -1</clus>
<clus scale="   92.886">  7  8 -1 -1</clus>
<clus scale="  100.854">  1  5  2 -1</clus>
<clus scale="   36.669">  2  5  1 -1</clus>
</clustering>
</event>
<event>
 9    1  0.1321469E-005  0.1004212E+03  0.7546771E-02  0.1281269E+00
         -1   -1    0    0    0  501 -0.00000000000E+00  0.00000000000E+00  0.11174818705E+03  0.11174818705E+03  0.00000000000E+00 0.  1.
         21   -1    0    0  501  502  0.00000000000E+00 -0.00000000000E+00 -0.24585956820E+03  0.24585956820E+03  0.00000000000E+00 0.  1.
         23    2    1    2    0    0 -0.19026657051E+02  0.25082677880E+02  0.23056244288E+02  0.95768439528E+02  0.87457699494E+02 0.  0.
         23    2    1    2    0    0  0.39495854045E+02 -0.42775376777E+02 -0.61972827277E+01  0.10846375054E+03  0.91303469391E+02 0.  0.
        -11    1    4    4    0    0 -0.21444582917E+02 -0.34400220241E+01  0.21746274662E+02  0.30734416371E+02  0.00000000000E+00 0.  1.
         11    1    4    4    0    0  0.60940436962E+02 -0.39335354752E+02 -0.27943557389E+02  0.77729334168E+02  0.00000000000E+00 0. -1.
        -13    1    3    3    0    0  0.31088337066E+02  0.14922257335E+02 -0.87138001280E+01  0.35568086513E+02  0.00000000000E+00 0. -1.
         13    1    3    3    0    0 -0.50114994117E+02  0.10160420545E+02  0.31770044416E+02  0.60200353016E+02  0.00000000000E+00 0.  1.
         -1    1    1    2    0  502 -0.20469196994E+02  0.17692698896E+02 -0.15097034271E+03  0.15337556519E+03  0.00000000000E+00 0.  1.
<scales pt_clust_5="13000.00000" pt_clust_6="13000.00000" pt_clust_7="13000.00000" pt_clust_8="13000.00000" pt_clust_9="27.05586"></scales>
<clustering>
<clus scale="   27.056">  2  9  1 -1</clus>
<clus scale="   87.458">  7  8 -1 -1</clus>
<clus scale="   91.303">  5  6 -1 -1</clus>
<clus scale="   96.938">  1  7  2 -1</clus>
<clus scale="   27.056">  2  5  1 -1</clus>
</clustering>
</event>
<event>
 9    1  0.1321469E-005  0.9966625E+02  0.7546771E-02  0.1292308E+00
         21   -1    0    0  501  502  0.00000000000E+00  0.00000000000E+00  0.14246128549E+03  0.14246128549E+03  0.00000000000E+00 0.  1.
          1   -1    0    0  502    0 -0.00000000000E+00 -0.00000000000E+00 -0.11747283478E+03  0.11747283478E+03  0.00000000000E+00 0. -1.
         23    2    1    2    0    0  0.48596697899E+02 -0.13742017746E+02 -0.46806864334E+02  0.98063419739E+02  0.69821698946E+02 0.  0.
         23    2    1    2    0    0 -0.19347892791E+02 -0.16875287850E+02  0.23474249373E+02  0.97622452390E+02  0.91213960179E+02 0.  0.
        -11    1    3    3    0    0  0.48016078561E+02  0.18283921268E+02 -0.16491996617E+02  0.53961389249E+02  0.00000000000E+00 0.  1.
         11    1    3    3    0    0  0.58061933813E+00 -0.32025939015E+02 -0.30314867717E+02  0.44102030489E+02  0.00000000000E+00 0. -1.
        -11    1    4    4    0    0 -0.31516750957E+02  0.90797898500E+01 -0.25045148767E+02  0.41267513269E+02  0.00000000000E+00 0. -1.
         11    1    4    4    0    0  0.12168858166E+02 -0.25955077700E+02  0.48519398140E+02  0.56354939121E+02  0.00000000000E+00 0.  1.
          1    1    1    2  501    0 -0.29248805108E+02  0.30617305597E+02  0.48321065668E+02  0.64248248144E+02  0.00000000000E+00 0. -1.
<scales pt_clust_5="13000.00000" pt_clust_6="13000.00000" pt_clust_7="13000.00000" pt_clust_8="13000.00000" pt_clust_9="42.34279"></scales>
<clustering>
<clus scale="   42.343">  1  9  2 -1</clus>
<clus scale="   69.822">  5  6 -1 -1</clus>
<clus scale="   80.551">  2  5  1 -1</clus>
<clus scale="   91.214">  7  8 -1 -1</clus>
<clus scale="   42.343">  1  5  2 -1</clus>
</clustering>
</event>
<event>
 9    1  0.1321469E-005  0.1027798E+03  0.7546771E-02  0.1275945E+00
         21   -1    0    0  501  502  0.00000000000E+00  0.00000000000E+00  0.19454345811E+03  0.19454345811E+03  0.00000000000E+00 0. -1.
         -1   -1    0    0    0  501 -0.00000000000E+00 -0.00000000000E+00 -0.10939913638E+03  0.10939913638E+03  0.00000000000E+00 0.  1.
         23    2    1    2    0    0 -0.45716768811E+02 -0.21645594089E+02 -0.44863535769E+02  0.10971136209E+03  0.86401918015E+02 0.  0.
         23    2    1    2    0    0  0.65552664896E+02  0.27610196638E+02  0.67976087709E+02  0.12883261071E+03  0.83172220409E+02 0.  0.
        -11    1    4    4    0    0  0.84838923468E+02  0.18819360244E+02  0.46096314909E+02  0.98370125056E+02  0.00000000000E+00 0.  1.
         11    1    4    4    0    0 -0.19286258572E+02  0.87908363936E+01  0.21879772799E+02  0.30462485650E+02  0.00000000000E+00 0. -1.
        -13    1    3    3    0    0 -0.24918639147E+02  0.31383025559E+02 -0.54457574296E+01  0.40441181290E+02  0.00000000000E+00 0. -1.
         13    1    3    3    0    0 -0.20798129664E+02 -0.53028619648E+02 -0.39417778339E+02  0.69270180803E+02  0.00000000000E+00 0.  1.
         -1    1    1    2    0  502 -0.19835896084E+02 -0.59646025485E+01  0.62031769782E+02  0.65398621693E+02  0.00000000000E+00 0.  1.
<scales pt_clust_5="13000.00000" pt_clust_6="13000.00000" pt_clust_7="13000.00000" pt_clust_8="13000.00000" pt_clust_9="20.71326"></scales>
<clustering>
<clus scale="   20.713">  1  9  2 -1</clus>
<clus scale="   83.172">  5  6 -1 -1</clus>
<clus scale="   86.402">  7  8 -1 -1</clus>
<clus scale="  100.080">  1  5  2 -1</clus>
<clus scale="   20.713">  1  5  2 -1</clus>
</clustering>
</event>
<event>
 9    1  0.1321469E-005  0.1245893E+03  0.7546771E-02  0.1237134E+00
         21   -1    0    0  501  502  0.00000000000E+00  0.00000000000E+00  0.29677229694E+02  0.29677229694E+02  0.00000000000E+00 0. -1.
          2   -1    0    0  502    0 -0.00000000000E+00 -0.00000000000E+00 -0.10327580152E+04  0.10327580152E+04  0.00000000000E+00 0. -1.
         23    2    1    2    0    0 -0.85411278857E+02 -0.55239960639E+02 -0.40252309826E+03  0.42482089689E+03  0.90007832946E+02 0.  0.
         23    2    1    2    0    0  0.57646629476E+01  0.74217431094E+02 -0.24864774887E+03  0.27630515557E+03  0.94749024062E+02 0.  0.
        -13    1    3    3    0    0 -0.32016974675E+02  0.17152700795E+02 -0.55503441577E+02  0.66331997096E+02  0.00000000000E+00 0.  1.
         13    1    3    3    0    0 -0.53394304182E+02 -0.72392661434E+02 -0.34701965669E+03  0.35848889979E+03  0.00000000000E+00 0. -1.
        -13    1    4    4    0    0  0.28827380024E+02 -0.11999930274E+02 -0.62247742514E+02  0.69640488322E+02  0.00000000000E+00 0.  1.
         13    1    4    4    0    0 -0.23062717076E+02  0.86217361368E+02 -0.18640000635E+03  0.20666466725E+03  0.00000000000E+00 0. -1.
          2    1    1    2  501    0  0.79646615910E+02 -0.18977470455E+02 -0.35190993839E+03  0.36130919245E+03  0.00000000000E+00 0. -1.
<scales pt_clust_5="13000.00000" pt_clust_6="13000.00000" pt_clust_7="13000.00000" pt_clust_8="13000.00000" pt_clust_9="81.87634"></scales>
<clustering>
<clus scale="   81.876">  1  9  2 -1</clus>
<clus scale="   90.008">  5  6 -1 -1</clus>
<clus scale="   94.749">  7  8 -1 -1</clus>
<clus scale="  121.023">  2  5  1 -1</clus>
<clus scale="   81.876">  1  5  2 -1</clus>
</clustering>
</event>
<event>
 9    1  0.1321469E-005  0.9942399E+02  0.7546771E-02  0.1282520E+00
          2   -1    0    0  502    0 -0.00000000000E+00  0.00000000000E+00  0.21403597319E+03  0.21403597319E+03  0.00000000000E+00 0. -1.
         21   -1    0    0  501  502  0.00000000000E+00 -0.00000000000E+00 -0.28578869715E+03  0.28578869715E+03  0.00000000000E+00 0. -1.
         23    2    1    2    0    0  0.31721480005E+02  0.27725278786E+02  0.17175740117E+03  0.19827501250E+03  0.89651728081E+02 0.  0.
         23    2    1    2    0    0  0.30154003830E+02 -0.37861598289E+02 -0.96157548558E+02  0.14141189747E+03  0.91696706758E+02 0.  0.
        -13    1    4    4    0    0  0.17384848546E+02  0.26658530254E+02 -0.10704683258E+02  0.33578273302E+02  0.00000000000E+00 0.  1.
         13    1    4    4    0    0  0.12769155284E+02 -0.64520128544E+02 -0.85452865300E+02  0.10783362417E+03  0.00000000000E+00 0. -1.
        -13    1    3    3    0    0 -0.23305741767E+02  0.35556497257E+02  0.60997195265E+02  0.74351058679E+02  0.00000000000E+00 0.  1.
         13    1    3    3    0    0  0.55027221772E+02 -0.78312184707E+01  0.11076020590E+03  0.12392395382E+03  0.00000000000E+00 0. -1.
          2    1    1    2  501    0 -0.61875483835E+02  0.10136319503E+02 -0.14735257657E+03  0.16013776037E+03  0.00000000000E+00 0. -1.
<scales pt_clust_5="13000.00000" pt_clust_6="13000.00000" pt_clust_7="13000.00000" pt_clust_8="13000.00000" pt_clust_9="62.70024"></scales>
<clustering>
<clus scale="   62.700">  2  9  1 -1</clus>
<clus scale="   89.652">  7  8 -1 -1</clus>
<clus scale="   91.697">  5  6 -1 -1</clus>
<clus scale="   97.541">  1  7  2 -1</clus>
<clus scale="   62.700">  2  5  1 -1</clus>
</clustering>
</event>
<event>
 9    1  0.1321469E-005  0.1056633E+03  0.7546771E-02  0.1269180E+00
          3   -1    0    0  502    0 -0.00000000000E+00  0.00000000000E+00  0.15029111576E+03  0.15029111576E+03  0.00000000000E+00 0. -1.
         21   -1    0    0  501  502  0.00000000000E+00 -0.00000000000E+00 -0.26419809268E+03  0.26419809268E+03  0.00000000000E+00 0.  1.
         23    2    1    2    0    0  0.22601741611E+02 -0.48769031012E+02  0.11174190841E+03  0.15467680201E+03  0.92462975687E+02 0.  0.
         23    2    1    2    0    0 -0.10796439875E+02  0.31328928958E+02 -0.13339622856E+03  0.16518643224E+03  0.91618440825E+02 0.  0.
        -11    1    4    4    0    0 -0.41446162155E+01  0.50879572013E+02 -0.28883461934E+02  0.58652903296E+02  0.00000000000E+00 0. -1.
         11    1    4    4    0    0 -0.66518236600E+01 -0.19550643055E+02 -0.10451276662E+03  0.10653352894E+03  0.00000000000E+00 0.  1.
        -11    1    3    3    0    0 -0.35029280592E+02 -0.26188027608E+02  0.34570786154E+02  0.55749462276E+02  0.00000000000E+00 0. -1.
         11    1    3    3    0    0  0.57631022203E+02 -0.22581003405E+02  0.77171122261E+02  0.98927339730E+02  0.00000000000E+00 0.  1.
          3    1    1    2  501    0 -0.11805301735E+02  0.17440102054E+02 -0.92252656784E+02  0.94625974195E+02  0.00000000000E+00 0. -1.
<scales pt_clust_5="13000.00000" pt_clust_6="13000.00000" pt_clust_7="13000.00000" pt_clust_8="13000.00000" pt_clust_9="21.05997"></scales>
<clustering>
<clus scale="   21.060">  2  9  1 -1</clus>
<clus scale="   91.618">  5  6 -1 -1</clus>
<clus scale="   92.463">  7  8 -1 -1</clus>
<clus scale="  104.925">  2  5  1 -1</clus>
<clus scale="   21.060">  2  5  1 -1</clus>
</clustering>
</event>
<event>
 9    1  0.1321469E-005  0.1174783E+03  0.7546771E-02  0.1250657E+00
          3   -1    0    0  502    0 -0.00000000000E+00  0.00000000000E+00  0.87919782811E+02  0.87919782811E+02  0.00000000000E+00 0. -1.
         21   -1    0    0  501  502  0.00000000000E+00 -0.00000000000E+00 -0.27016927112E+03  0.27016927112E+03  0.00000000000E+00 0.  1.
         23    2    1    2    0    0  0.40392027287E+02  0.39093467687E+02 -0.48357224197E+01  0.10591506988E+03  0.89637061156E+02 0.  0.
         23    2    1    2    0    0 -0.52903681046E+02 -0.57525179499E+02 -0.73399332433E+02  0.14580071745E+03  0.98805067998E+02 0.  0.
        -13    1    4    4    0    0  0.27608764824E+02 -0.28893713885E+02 -0.17091391294E+02  0.43465000328E+02  0.00000000000E+00 0. -1.
         13    1    4    4    0    0 -0.80512445870E+02 -0.28631465615E+02 -0.56307941138E+02  0.10233571712E+03  0.00000000000E+00 0.  1.
        -13    1    3    3    0    0  0.39329261634E+02  0.14330120268E+02  0.37928901940E+02  0.56486677810E+02  0.00000000000E+00 0. -1.
         13    1    3    3    0    0  0.10627656524E+01  0.24763347419E+02 -0.42764624360E+02  0.49428392072E+02  0.00000000000E+00 0.  1.
          3    1    1    2  501    0  0.12511653759E+02  0.18431711813E+02 -0.10401443345E+03  0.10637326660E+03  0.00000000000E+00 0. -1.
<scales pt_clust_5="13000.00000" pt_clust_6="13000.00000" pt_clust_7="13000.00000" pt_clust_8="13000.00000" pt_clust_9="22.27711"></scales>
<clustering>
<clus scale="   22.277">  2  9  1 -1</clus>
<clus scale="   89.637">  7  8 -1 -1</clus>
<clus scale="   98.805">  5  6 -1 -1</clus>
<clus scale="  109.880">  1  7  2 -1</clus>
<clus scale="   22.277">  2  5  1 -1</clus>
</clustering>
</event>
<event>
 9    1  0.1763077E-005  0.9445249E+02  0.7546771E-02  0.1298194E+00
          1   -1    0    0  502    0 -0.00000000000E+00  0.00000000000E+00  0.17842203691E+03  0.17842203691E+03  0.00000000000E+00 0. -1.
         21   -1    0    0  501  502  0.00000000000E+00 -0.00000000000E+00 -0.22933752417E+03  0.22933752417E+03  0.00000000000E+00 0. -1.
         23    2    1    2    0    0 -0.47484642219E+01 -0.14198711733E+02  0.12083811627E+03  0.15258007718E+03  0.91949324530E+02 0.  0.
         23    2    1    2    0    0  0.41644126551E+02  0.30812172477E+02 -0.21246389898E+02  0.99327893169E+02  0.82042659811E+02 0.  0.
        -13    1    4    4    0    0 -0.12613949327E+02  0.28458963527E+02 -0.31245917491E+02  0.44105914371E+02  0.00000000000E+00 0.  1.
         13    1    4    4    0    0  0.54258075878E+02  0.23532089501E+01  0.99995275930E+01  0.55221978799E+02  0.00000000000E+00 0. -1.
        -13    1    3    3    0    0 -0.28600220847E+02  0.14444721529E+02  0.70023138690E+01  0.32797179940E+02  0.00000000000E+00 0.  1.
         13    1    3    3    0    0  0.23851756625E+02 -0.28643433261E+02  0.11383580240E+03  0.11978289724E+03  0.00000000000E+00 0. -1.
          1    1    1    2  501    0 -0.36895662329E+02 -0.16613460744E+02 -0.15050721364E+03  0.15585159073E+03  0.00000000000E+00 0. -1.
<scales pt_clust_5="13000.00000" pt_clust_6="13000.00000" pt_clust_7="13000.00000" pt_clust_8="13000.00000" pt_clust_9="40.46353"></scales>
<clustering>
<clus scale="   40.464">  2  9  1 -1</clus>
<clus scale="   82.043">  5  6 -1 -1</clus>
<clus scale="   84.839">  2  5  1 -1</clus>
<clus scale="   91.949">  7  8 -1 -1</clus>
<clus scale="   40.464">  2  5  1 -1</clus>
</clustering>
</event>
<event>
 9    1  0.1321469E-005  0.9900461E+02  0.7546771E-02  0.1283793E+00
          3   -1    0    0  502    0 -0.00000000000E+00  0.00000000000E+00  0.81795566519E+02  0.81795566519E+02  0.00000000000E+00 0. -1.
         21   -1    0    0  501  502  0.00000000000E+00 -0.00000000000E+00 -0.27895190739E+03  0.27895190739E+03  0.00000000000E+00 0. -1.
         23    2    1    2    0    0 -0.36104508312E+02  0.44238704323E+01  0.12212441388E+02  0.99825124356E+02  0.92156419082E+02 0.  0.
         23    2    1    2    0    0  0.94733714378E+01  0.22045796068E+02 -0.80497733720E+02  0.12669266637E+03  0.94844001850E+02 0.  0.
        -11    1    3    3    0    0  0.24334326451E+02 -0.22020955151E+02  0.76357416446E+01  0.33695496139E+02  0.00000000000E+00 0. -1.
         11    1    3    3    0    0 -0.60438834763E+02  0.26444825583E+02  0.45766997439E+01  0.66129628217E+02  0.00000000000E+00 0.  1.
        -13    1    4    4    0    0 -0.36116893098E+02  0.49404220375E+01 -0.66816471130E+02  0.76113589793E+02  0.00000000000E+00 0.  1.
         13    1    4    4    0    0  0.45590264536E+02  0.17105374031E+02 -0.13681262590E+02  0.50579076575E+02  0.00000000000E+00 0. -1.
          3    1    1    2  501    0  0.26631136874E+02 -0.26469666501E+02 -0.12887104854E+03  0.13422968318E+03  0.00000000000E+00 0. -1.
<scales pt_clust_5="13000.00000" pt_clust_6="13000.00000" pt_clust_7="13000.00000" pt_clust_8="13000.00000" pt_clust_9="37.54811"></scales>
<clustering>
<clus scale="   37.548">  2  9  1 -1</clus>
<clus scale="   92.156">  5  6 -1 -1</clus>
<clus scale="   94.844">  7  8 -1 -1</clus>
<clus scale="   96.433">  1  5  2 -1</clus>
<clus scale="   37.548">  2  5  1 -1</clus>
</clustering>
</event>
<event>
 9    1  0.1321469E-005  0.1283632E+03  0.7546771E-02  0.1230640E+00
         -2   -1    0    0    0  501 -0.00000000000E+00  0.00000000000E+00  0.35529409819E+03  0.35529409819E+03  0.00000000000E+00 0.  1.
         21   -1    0    0  501  502  0.00000000000E+00 -0.00000000000E+00 -0.10376915857E+03  0.10376915857E+03  0.00000000000E+00 0.  1.
         23    2    1    2    0    0 -0.95767435534E+02 -0.29991003638E+02  0.25250978618E+03  0.28532980966E+03  0.87069203278E+02 0.  0.
         23    2    1    2    0    0  0.82316464798E+02 -0.18244713749E+02  0.17345973561E+02  0.12040773086E+03  0.84191857650E+02 0.  0.
        -13    1    4    4    0    0  0.16454033474E+02  0.29048491891E+02 -0.99782895003E+01  0.34844172541E+02  0.00000000000E+00 0. -1.
         13    1    4    4    0    0  0.65862431323E+02 -0.47293205641E+02  0.27324263061E+02  0.85563558314E+02  0.00000000000E+00 0.  1.
        -13    1    3    3    0    0 -0.94575517736E+02  0.76553888887E+01  0.18929850557E+03  0.21174762749E+03  0.00000000000E+00 0.  1.
         13    1    3    3    0    0 -0.11919177981E+01 -0.37646392526E+02  0.63211280605E+02  0.73582182177E+02  0.00000000000E+00 0. -1.
         -2    1    1    2    0  502  0.13450970736E+02  0.48235717387E+02 -0.18330820120E+02  0.53325716234E+02  0.00000000000E+00 0.  1.
<scales pt_clust_5="13000.00000" pt_clust_6="13000.00000" pt_clust_7="13000.00000" pt_clust_8="13000.00000" pt_clust_9="50.07607"></scales>
<clustering>
<clus scale="   50.076">  2  9  1 -1</clus>
<clus scale="   84.192">  5  6 -1 -1</clus>
<clus scale="   87.069">  7  8 -1 -1</clus>
<clus scale="  126.429">  2  5  1 -1</clus>
<clus scale="   50.076">  2  5  1 -1</clus>
</clustering>
</event>
<event>
 9    1  0.1321469E-005  0.1125749E+03  0.7546771E-02  0.1258202E+00
         21   -1    0    0  501  502  0.00000000000E+00  0.00000000000E+00  0.10721567729E+03  0.10721567729E+03  0.00000000000E+00 0.  1.
         -3   -1    0    0    0  501 -0.00000000000E+00 -0.00000000000E+00 -0.23067651309E+03  0.23067651309E+03  0.00000000000E+00 0.  1.
         23    2    1    2    0    0 -0.52507192606E+02 -0.25380387079E+02 -0.93347414485E+02  0.14209083696E+03  0.89860429747E+02 0.  0.
         23    2    1    2    0    0  0.10079995291E+03 -0.23568186231E+01  0.31884682694E+01  0.13091253213E+03  0.83437039974E+02 0.  0.
        -13    1    3    3    0    0 -0.22410527774E+02  0.33401745537E+02 -0.44257310791E+02  0.59804831899E+02  0.00000000000E+00 0. -1.
         13    1    3    3    0    0 -0.30096664832E+02 -0.58782132616E+02 -0.49090103694E+02  0.82286005065E+02  0.00000000000E+00 0.  1.
        -13    1    4    4    0    0  0.21430333361E+02  0.36543777656E+02 -0.15861588400E+01  0.42393664305E+02  0.00000000000E+00 0. -1.
         13    1    4    4    0    0  0.79369619544E+02 -0.38900596279E+02  0.47746271094E+01  0.88518867828E+02  0.00000000000E+00 0.  1.
         -3    1    1    2    0  502 -0.48292760299E+02  0.27737205702E+02 -0.33301889584E+02  0.64888821282E+02  0.00000000000E+00 0.  1.
<scales pt_clust_5="13000.00000" pt_clust_6="13000.00000" pt_clust_7="13000.00000" pt_clust_8="13000.00000" pt_clust_9="55.69153"></scales>
<clustering>
<clus scale="   55.692">  1  9  2 -1</clus>
<clus scale="   83.437">  7  8 -1 -1</clus>
<clus scale="   89.860">  5  6 -1 -1</clus>
<clus scale="  107.517">  1  7  2 -1</clus>
<clus scale="   55.692">  1  5  2 -1</clus>
</clustering>
</event>
<event>
 9    1  0.1321469E-005  0.1874627E+03  0.7546771E-02  0.1161268E+00
          1   -1    0    0  502    0 -0.00000000000E+00  0.00000000000E+00  0.29750878696E+03  0.29750878696E+03  0.00000000000E+00 0. -1.
         21   -1    0    0  501  502  0.00000000000E+00 -0.00000000000E+00 -0.41875759762E+03  0.41875759762E+03  0.00000000000E+00 0.  1.
         23    2    1    2    0    0 -0.11445562065E+03 -0.11185767221E+03  0.21985479945E+03  0.28598986164E+03  0.88554165285E+02 0.  0.
         23    2    1    2    0    0  0.11984495764E+03  0.13919433251E+03 -0.20204647095E+03  0.28845541767E+03  0.92983199987E+02 0.  0.
        -11    1    4    4    0    0  0.92328102549E+02  0.13337837310E+03 -0.12015795631E+03  0.20187174987E+03  0.00000000000E+00 0.  1.
         11    1    4    4    0    0  0.27516855092E+02  0.58159594121E+01 -0.81888514646E+02  0.86583667795E+02  0.00000000000E+00 0. -1.
        -11    1    3    3    0    0 -0.11008033258E+03 -0.55048235758E+02  0.12559075947E+03  0.17584375663E+03  0.00000000000E+00 0.  1.
         11    1    3    3    0    0 -0.43752880675E+01 -0.56809436455E+02  0.94264039981E+02  0.11014610501E+03  0.00000000000E+00 0. -1.
          1    1    1    2  501    0 -0.53893369946E+01 -0.27336660300E+02 -0.13905713915E+03  0.14182110527E+03  0.00000000000E+00 0. -1.
<scales pt_clust_5="13000.00000" pt_clust_6="13000.00000" pt_clust_7="13000.00000" pt_clust_8="13000.00000" pt_clust_9="27.86284"></scales>
<clustering>
<clus scale="   27.863">  2  9  1 -1</clus>
<clus scale="   88.554">  7  8 -1 -1</clus>
<clus scale="   92.983">  5  6 -1 -1</clus>
<clus scale="  185.306">  1  7  2 -1</clus>
<clus scale="   27.863">  2  5  1 -1</clus>
</clustering>
</event>
<event>
 9    1  0.1321469E-005  0.1107393E+03  0.7546771E-02  0.1260885E+00
         -3   -1    0    0    0  501 -0.00000000000E+00  0.00000000000E+00  0.33593032570E+02  0.33593032570E+02  0.00000000000E+00 0.  1.
         21   -1    0    0  501  502  0.00000000000E+00 -0.00000000000E+00 -0.10488423108E+04  0.10488423108E+04  0.00000000000E+00 0.  1.
         23    2    1    2    0    0 -0.90259261101E+02  0.30084464452E+01 -0.20086388157E+03  0.23954455681E+03  0.94231156266E+02 0.  0.
         23    2    1    2    0    0  0.16578997171E+02 -0.42181417104E+02 -0.21165631715E+03  0.23441264710E+03  0.89981983941E+02 0.  0.
        -11    1    3    3    0    0 -0.89470632872E+02 -0.24205784044E+02 -0.10579379249E+03  0.14065290846E+03  0.00000000000E+00 0.  1.
         11    1    3    3    0    0 -0.78862822869E+00  0.27214230489E+02 -0.95070089080E+02  0.98891648350E+02  0.00000000000E+00 0. -1.
        -11    1    4    4    0    0 -0.29739678576E+02  0.89067792602E+01 -0.79499499330E+02  0.85346057860E+02  0.00000000000E+00 0. -1.
         11    1    4    4    0    0  0.46318675747E+02 -0.51088196364E+02 -0.13215681782E+03  0.14906658924E+03  0.00000000000E+00 0.  1.
         -3    1    1    2    0  502  0.73680263930E+02  0.39172970659E+02 -0.60272907949E+03  0.60847813945E+03  0.00000000000E+00 0.  1.
<scales pt_clust_5="13000.00000" pt_clust_6="13000.00000" pt_clust_7="13000.00000" pt_clust_8="13000.00000" pt_clust_9="83.44641"></scales>
<clustering>
<clus scale="   83.446">  2  9  1 -1</clus>
<clus scale="   89.982">  7  8 -1 -1</clus>
<clus scale="   94.231">  5  6 -1 -1</clus>
<clus scale="  107.147">  2  7  1 -1</clus>
<clus scale="   83.446">  2  5  1 -1</clus>
</clustering>
</event>
<event>
 9    1  0.1321469E-005  0.9230035E+02  0.7546771E-02  0.1298293E+00
          1   -1    0    0  502    0 -0.00000000000E+00  0.00000000000E+00  0.20119912245E+03  0.20119912245E+03  0.00000000000E+00 0. -1.
         21   -1    0    0  501  502  0.00000000000E+00 -0.00000000000E+00 -0.66685697728E+02  0.66685697728E+02  0.00000000000E+00 0.  1.
         23    2    1    2    0    0 -0.16583316864E+01  0.25648245451E+02  0.70491349640E+02  0.11729355768E+03  0.90156340540E+02 0.  0.
         23    2    1    2    0    0  0.13527712646E+02  0.13456475090E+02  0.55351991109E+02  0.10881529179E+03  0.91721584576E+02 0.  0.
        -11    1    3    3    0    0  0.28269417633E+02  0.95441509994E+01  0.77099555916E+02  0.82671593151E+02  0.00000000000E+00 0. -1.
         11    1    3    3    0    0 -0.29927749319E+02  0.16104094451E+02 -0.66082062760E+01  0.34621964525E+02  0.00000000000E+00 0.  1.
        -13    1    4    4    0    0  0.19593563336E+02  0.42120607683E+02  0.63244057363E+02  0.78472059407E+02  0.00000000000E+00 0.  1.
         13    1    4    4    0    0 -0.60658506901E+01 -0.28664132593E+02 -0.78920662542E+01  0.30343232387E+02  0.00000000000E+00 0. -1.
          1    1    1    2  501    0 -0.11869380960E+02 -0.39104720540E+02  0.86700839771E+01  0.41775970714E+02  0.00000000000E+00 0. -1.
<scales pt_clust_5="13000.00000" pt_clust_6="13000.00000" pt_clust_7="13000.00000" pt_clust_8="13000.00000" pt_clust_9="40.86638"></scales>
<clustering>
<clus scale="   40.866">  2  9  1 -1</clus>
<clus scale="   90.156">  5  6 -1 -1</clus>
<clus scale="   90.745">  1  5  2 -1</clus>
<clus scale="   91.722">  7  8 -1 -1</clus>
<clus scale="   40.866">  2  5  1 -1</clus>
</clustering>
</event>
<event>
 9    1  0.1321469E-005  0.1226789E+03  0.7546771E-02  0.1238987E+00
          2   -1    0    0  502    0 -0.00000000000E+00  0.00000000000E+00  0.61606416166E+03  0.61606416166E+03  0.00000000000E+00 0. -1.
         21   -1    0    0  501  502  0.00000000000E+00 -0.00000000000E+00 -0.96705840365E+02  0.96705840365E+02  0.00000000000E+00 0.  1.
         23    2    1    2    0    0  0.79583239468E+02  0.14439299428E+02  0.44444269132E+03  0.46108271218E+03  0.92336212999E+02 0.  0.
         23    2    1    2    0    0 -0.48606983189E+02 -0.10199284880E+03  0.56852521795E+02  0.15707530151E+03  0.93141081632E+02 0.  0.
        -13    1    4    4    0    0  0.16497745738E+02 -0.37322737786E+02 -0.11792359820E+02  0.42476135893E+02  0.00000000000E+00 0. -1.
         13    1    4    4    0    0 -0.65104728927E+02 -0.64670111012E+02  0.68644881615E+02  0.11459916561E+03  0.00000000000E+00 0.  1.
        -13    1    3    3    0    0  0.35576152363E+02  0.49339749627E+02  0.16054106622E+03  0.17167850027E+03  0.00000000000E+00 0. -1.
         13    1    3    3    0    0  0.44007087104E+02 -0.34900450199E+02  0.28390162510E+03  0.28940421191E+03  0.00000000000E+00 0.  1.
          2    1    1    2  501    0 -0.30976256279E+02  0.87553549371E+02  0.18063108178E+02  0.94611988340E+02  0.00000000000E+00 0. -1.
<scales pt_clust_5="13000.00000" pt_clust_6="13000.00000" pt_clust_7="13000.00000" pt_clust_8="13000.00000" pt_clust_9="92.87170"></scales>
<clustering>
<clus scale="   92.336">  7  8 -1 -1</clus>
<clus scale="   92.872">  2  9  1 -1</clus>
<clus scale="   93.141">  5  6 -1 -1</clus>
<clus scale="  122.069">  1  7  2 -1</clus>
<clus scale="   92.872">  2  5  1 -1</clus>
</clustering>
</event>
<event>
 9    1  0.1321469E-005  0.1333367E+03  0.7546771E-02  0.1223698E+00
          1   -1    0    0  502    0 -0.00000000000E+00  0.00000000000E+00  0.27991504293E+03  0.27991504293E+03  0.00000000000E+00 0. -1.
         21   -1    0    0  501  502  0.00000000000E+00 -0.00000000000E+00 -0.35629059832E+03  0.35629059832E+03  0.00000000000E+00 0. -1.
         23    2    1    2    0    0  0.46887426241E+02 -0.76417267709E+02  0.23551037185E+03  0.26994996725E+03  0.96797830709E+02 0.  0.
         23    2    1    2    0    0 -0.70330151612E+02  0.95817874250E+02 -0.20046250028E+03  0.25075188627E+03  0.92541337760E+02 0.  0.
        -11    1    4    4    0    0 -0.69197845315E+02  0.39444450400E+02 -0.16741306727E+03  0.18539509583E+03  0.00000000000E+00 0.  1.
         11    1    4    4    0    0 -0.11323062964E+01  0.56373423851E+02 -0.33049433016E+02  0.65356790442E+02  0.00000000000E+00 0. -1.
        -13    1    3    3    0    0 -0.14595251067E+02 -0.58026990743E+02  0.68050376525E+02  0.90614605630E+02  0.00000000000E+00 0.  1.
         13    1    3    3    0    0  0.61482677308E+02 -0.18390276966E+02  0.16745999532E+03  0.17933536162E+03  0.00000000000E+00 0. -1.
          1    1    1    2  501    0  0.23442725371E+02 -0.19400606542E+02 -0.11142342695E+03  0.11550378773E+03  0.00000000000E+00 0. -1.
<scales pt_clust_5="13000.00000" pt_clust_6="13000.00000" pt_clust_7="13000.00000" pt_clust_8="13000.00000" pt_clust_9="30.42934"></scales>
<clustering>
<clus scale="   30.429">  2  9  1 -1</clus>
<clus scale="   92.541">  5  6 -1 -1</clus>
<clus scale="   96.798">  7  8 -1 -1</clus>
<clus scale="  130.279">  2  5  1 -1</clus>
<clus scale="   30.429">  2  5  1 -1</clus>
</clustering>
</event>
<event>
 9    1  0.1321469E-005  0.1245049E+03  0.7546771E-02  0.1240044E+00
         -3   -1    0    0    0  501 -0.00000000000E+00  0.00000000000E+00  0.22886633693E+03  0.22886633693E+03  0.00000000000E+00 0.  1.
         21   -1    0    0  501  502  0.00000000000E+00 -0.00000000000E+00 -0.94849917405E+02  0.94849917405E+02  0.00000000000E+00 0. -1.
         23    2    1    2    0    0 -0.12566663496E+02  0.74274108401E+02  0.10477856064E+03  0.15845084519E+03  0.91943239894E+02 0.  0.
         23    2    1    2    0    0  0.63750383998E+00 -0.98836225346E+02  0.45339556413E+02  0.13356577030E+03  0.77557293457E+02 0.  0.
        -11    1    4    4    0    0  0.37834363409E+02 -0.63265363990E+02  0.21097837799E+02  0.76675055234E+02  0.00000000000E+00 0.  1.
         11    1    4    4    0    0 -0.37196859569E+02 -0.35570861356E+02  0.24241718615E+02  0.56890715066E+02  0.00000000000E+00 0. -1.
        -11    1    3    3    0    0 -0.42395104760E+02  0.62037705788E+02  0.37790448671E+02  0.84107906036E+02  0.00000000000E+00 0. -1.
         11    1    3    3    0    0  0.29828441264E+02  0.12236402613E+02  0.66988111970E+02  0.74342939157E+02  0.00000000000E+00 0.  1.
         -3    1    1    2    0  502  0.11929159656E+02  0.24562116945E+02 -0.16101697534E+02  0.31699638837E+02  0.00000000000E+00 0.  1.
<scales pt_clust_5="13000.00000" pt_clust_6="13000.00000" pt_clust_7="13000.00000" pt_clust_8="13000.00000" pt_clust_9="27.30572"></scales>
<clustering>
<clus scale="   27.306">  2  9  1 -1</clus>
<clus scale="   77.557">  5  6 -1 -1</clus>
<clus scale="   91.943">  7  8 -1 -1</clus>
<clus scale="  114.294">  2  5  1 -1</clus>
<clus scale="   27.306">  2  5  1 -1</clus>
</clustering>
</event>
<event>
 9    1  0.1321469E-005  0.9170853E+02  0.7546771E-02  0.1301744E+00
         21   -1    0    0  501  502  0.00000000000E+00  0.00000000000E+00  0.11640116646E+03  0.11640116646E+03  0.00000000000E+00 0. -1.
          1   -1    0    0  502    0 -0.00000000000E+00 -0.00000000000E+00 -0.22833781478E+03  0.22833781478E+03  0.00000000000E+00 0. -1.
         23    2    1    2    0    0  0.59820753010E+01  0.20352762633E+02 -0.13425634063E+03  0.16113384671E+03  0.86540923181E+02 0.  0.
         23    2    1    2    0    0  0.24833872204E+02  0.47897873115E+02  0.27999396082E+01  0.10621784457E+03  0.91451973112E+02 0.  0.
        -11    1    4    4    0    0  0.17007719149E+02  0.74533648586E+02  0.11078561244E+02  0.77248053707E+02  0.00000000000E+00 0. -1.
         11    1    4    4    0    0  0.78261530557E+01 -0.26635775471E+02 -0.82786216354E+01  0.28969790865E+02  0.00000000000E+00 0.  1.
        -13    1    3    3    0    0  0.12944037110E+02  0.41120543697E+02 -0.25274112580E+02  0.49972272085E+02  0.00000000000E+00 0. -1.
         13    1    3    3    0    0 -0.69619618091E+01 -0.20767781064E+02 -0.10898222805E+03  0.11116157463E+03  0.00000000000E+00 0.  1.
          1    1    1    2  501    0 -0.30815947505E+02 -0.68250635748E+02  0.19519752708E+02  0.77387289954E+02  0.00000000000E+00 0. -1.
<scales pt_clust_5="13000.00000" pt_clust_6="13000.00000" pt_clust_7="13000.00000" pt_clust_8="13000.00000" pt_clust_9="74.88506"></scales>
<clustering>
<clus scale="   74.885">  1  9  2 -1</clus>
<clus scale="   86.541">  7  8 -1 -1</clus>
<clus scale="   86.812">  2  7  1 -1</clus>
<clus scale="   91.452">  5  6 -1 -1</clus>
<clus scale="   74.885">  1  5  2 -1</clus>
</clustering>
</event>
<event>
 9    1  0.1321469E-005  0.1092243E+03  0.7546771E-02  0.1262886E+00
         21   -1    0    0  501  502  0.00000000000E+00  0.00000000000E+00  0.31675223472E+02  0.31675223472E+02  0.00000000000E+00 0. -1.
          2   -1    0    0  502    0 -0.00000000000E+00 -0.00000000000E+00 -0.80669037089E+03  0.80669037089E+03  0.00000000000E+00 0. -1.
         23    2    1    2    0    0 -0.44709064872E+00 -0.61970396175E+02 -0.41147820845E+03  0.42578902966E+03  0.90229994219E+02 0.  0.
         23    2    1    2    0    0  0.29920051999E+02  0.57477102068E+02 -0.36666436969E+03  0.38259947403E+03  0.87981650071E+02 0.  0.
        -11    1    3    3    0    0 -0.39160737271E+02 -0.28852144403E+02 -0.29014085490E+03  0.29418994759E+03  0.00000000000E+00 0.  1.
         11    1    3    3    0    0  0.38713646622E+02 -0.33118251772E+02 -0.12133735355E+03  0.13159908207E+03  0.00000000000E+00 0. -1.
        -11    1    4    4    0    0 -0.31148509680E+02  0.24438706557E+02 -0.14567532385E+03  0.15095953104E+03  0.00000000000E+00 0.  1.
         11    1    4    4    0    0  0.61068561679E+02  0.33038395511E+02 -0.22098904584E+03  0.23163994299E+03  0.00000000000E+00 0. -1.
          2    1    1    2  501    0 -0.29472961351E+02  0.44932941071E+01  0.31274307213E+01  0.29977090680E+02  0.00000000000E+00 0. -1.
<scales pt_clust_5="13000.00000" pt_clust_6="13000.00000" pt_clust_7="13000.00000" pt_clust_8="13000.00000" pt_clust_9="29.81351"></scales>
<clustering>
<clus scale="   29.814">  1  9  2 -1</clus>
<clus scale="   87.982">  7  8 -1 -1</clus>
<clus scale="   90.230">  5  6 -1 -1</clus>
<clus scale="  107.374">  1  7  2 -1</clus>
<clus scale="   29.814">  1  5  2 -1</clus>
</clustering>
</event>
<event>
 9    1  0.1321469E-005  0.1006754E+03  0.7546771E-02  0.1279888E+00
         -3   -1    0    0    0  501 -0.00000000000E+00  0.00000000000E+00  0.17700431369E+03  0.17700431369E+03  0.00000000000E+00 0.  1.
         21   -1    0    0  501  502  0.00000000000E+00 -0.00000000000E+00 -0.90988624573E+02  0.90988624573E+02  0.00000000000E+00 0. -1.
         23    2    1    2    0    0  0.29858777538E+02  0.81840455442E+01  0.94907881825E+02  0.13672100614E+03  0.93416284933E+02 0.  0.
         23    2    1    2    0    0 -0.53191818555E+02 -0.14399421120E+02 -0.49240858045E+01  0.10680138719E+03  0.91354128503E+02 0.  0.
        -11    1    3    3    0    0  0.50819564665E+02 -0.18676324779E+02  0.85798040185E+02  0.10145312691E+03  0.00000000000E+00 0.  1.
         11    1    3    3    0    0 -0.20960787127E+02  0.26860370324E+02  0.91098416393E+01  0.35267879233E+02  0.00000000000E+00 0. -1.
        -13    1    4    4    0    0  0.93660349797E+01 -0.28136161841E+02  0.22404658443E+02  0.37166314511E+02  0.00000000000E+00 0.  1.
         13    1    4    4    0    0 -0.62557853535E+02  0.13736740721E+02 -0.27328744248E+02  0.69635072677E+02  0.00000000000E+00 0. -1.
         -3    1    1    2    0  502  0.23333041018E+02  0.62153755755E+01 -0.39681069067E+01  0.24470544928E+02  0.00000000000E+00 0.  1.
<scales pt_clust_5="13000.00000" pt_clust_6="13000.00000" pt_clust_7="13000.00000" pt_clust_8="13000.00000" pt_clust_9="24.14667"></scales>
<clustering>
<clus scale="   24.147">  2  9  1 -1</clus>
<clus scale="   91.354">  7  8 -1 -1</clus>
<clus scale="   93.416">  5  6 -1 -1</clus>
<clus scale="   98.765">  2  7  1 -1</clus>
<clus scale="   24.147">  2  5  1 -1</clus>
</clustering>
</event>
<event>
 9    1  0.1321469E-005  0.9242694E+02  0.7546771E-02  0.1315092E+00
          2   -1    0    0  502    0 -0.00000000000E+00  0.00000000000E+00  0.15507124323E+03  0.15507124323E+03  0.00000000000E+00 0. -1.
         21   -1    0    0  501  502  0.00000000000E+00 -0.00000000000E+00 -0.18050950662E+03  0.18050950662E+03  0.00000000000E+00 0.  1.
         23    2    1    2    0    0 -0.27455164658E+02  0.20630427872E+02  0.77117311497E+02  0.10538054934E+03  0.63075984539E+02 0.  0.
         23    2    1    2    0    0 -0.14784518888E+01  0.32851394942E+02  0.15840300289E+02  0.97102331264E+02  0.89980818256E+02 0.  0.
        -11    1    4    4    0    0  0.23517881897E+02 -0.52925163858E+01  0.39080789233E+02  0.45917421374E+02  0.00000000000E+00 0. -1.
         11    1    4    4    0    0 -0.24996333785E+02  0.38143911327E+02 -0.23240488944E+02  0.51184909890E+02  0.00000000000E+00 0.  1.
        -11    1    3    3    0    0 -0.17728617270E+02  0.43206187619E+02  0.56454267037E+02  0.73267747240E+02  0.00000000000E+00 0.  1.
         11    1    3    3    0    0 -0.97265473882E+01 -0.22575759747E+02  0.20663044459E+02  0.32112802098E+02  0.00000000000E+00 0. -1.
          2    1    1    2  501    0  0.28933616547E+02 -0.53481822814E+02 -0.11839587518E+03  0.13309786924E+03  0.00000000000E+00 0. -1.
<scales pt_clust_5="13000.00000" pt_clust_6="13000.00000" pt_clust_7="13000.00000" pt_clust_8="13000.00000" pt_clust_9="60.80674"></scales>
<clustering>
<clus scale="   60.807">  2  9  1 -1</clus>
<clus scale="   63.076">  7  8 -1 -1</clus>
<clus scale="   66.519">  1  7  2 -1</clus>
<clus scale="   89.981">  5  6 -1 -1</clus>
<clus scale="   60.807">  2  5  1 -1</clus>
</clustering>
</event>
<event>
 9    1  0.1321469E-005  0.1492657E+03  0.7546771E-02  0.1201686E+00
         -1   -1    0    0    0  501 -0.00000000000E+00  0.00000000000E+00  0.15914835626E+03  0.15914835626E+03  0.00000000000E+00 0.  1.
         21   -1    0    0  501  502  0.00000000000E+00 -0.00000000000E+00 -0.21937159378E+03  0.21937159378E+03  0.00000000000E+00 0. -1.
         23    2    1    2    0    0  0.76103457061E+02  0.83782205406E+02  0.61958915130E+02  0.15878559018E+03  0.92535195282E+02 0.  0.
         23    2    1    2    0    0 -0.98057307764E+02 -0.78676844580E+02 -0.11885480422E+03  0.19695042874E+03  0.94115489776E+02 0.  0.
        -13    1    4    4    0    0 -0.86145309390E+02 -0.39546568149E+02 -0.12361159248E+03  0.15577153519E+03  0.00000000000E+00 0. -1.
         13    1    4    4    0    0 -0.11911998374E+02 -0.39130276431E+02  0.47567882613E+01  0.41178893543E+02  0.00000000000E+00 0.  1.
        -13    1    3    3    0    0  0.38145128518E+02 -0.22941316233E+01 -0.10965750779E+02  0.39756276985E+02  0.00000000000E+00 0. -1.
         13    1    3    3    0    0  0.37958328544E+02  0.86076337030E+02  0.72924665909E+02  0.11902931320E+03  0.00000000000E+00 0.  1.
         -1    1    1    2    0  502  0.21953850702E+02 -0.51053608261E+01 -0.33273484383E+01  0.22783931124E+02  0.00000000000E+00 0.  1.
<scales pt_clust_5="13000.00000" pt_clust_6="13000.00000" pt_clust_7="13000.00000" pt_clust_8="13000.00000" pt_clust_9="22.53967"></scales>
<clustering>
<clus scale="   22.540">  2  9  1 -1</clus>
<clus scale="   92.535">  7  8 -1 -1</clus>
<clus scale="   94.115">  5  6 -1 -1</clus>
<clus scale="  148.274">  1  7  2 -1</clus>
<clus scale="   22.540">  2  5  1 -1</clus>
</clustering>
</event>
<event>
 9    1  0.1321469E-005  0.2475619E+03  0.7546771E-02  0.1115041E+00
         21   -1    0    0  501  502  0.00000000000E+00  0.00000000000E+00  0.63737431382E+02  0.63737431382E+02  0.00000000000E+00 0.  1.
          1   -1    0    0  502    0 -0.00000000000E+00 -0.00000000000E+00 -0.14789005466E+04  0.14789005466E+04  0.00000000000E+00 0. -1.
         23    2    1    2    0    0 -0.67039432555E+02  0.20595427947E+03 -0.67191877377E+03  0.71205414191E+03  0.92923687551E+02 0.  0.
         23    2    1    2    0    0 -0.28089307898E+01 -0.26082662116E+03 -0.49145325949E+03  0.56358474115E+03  0.89794419591E+02 0.  0.
        -11    1    3    3    0    0 -0.54529175981E+02  0.13310889525E+03 -0.29800678391E+03  0.33090701456E+03  0.00000000000E+00 0. -1.
         11    1    3    3    0    0 -0.12510256575E+02  0.72845384220E+02 -0.37391198986E+03  0.38114712735E+03  0.00000000000E+00 0.  1.
        -13    1    4    4    0    0  0.31030873600E+02 -0.44671814799E+02 -0.69219599116E+02  0.88033170201E+02  0.00000000000E+00 0. -1.
         13    1    4    4    0    0 -0.33839804390E+02 -0.21615480636E+03 -0.42223366038E+03  0.47555157095E+03  0.00000000000E+00 0.  1.
          1    1    1    2  501    0  0.69848363345E+02  0.54872341684E+02 -0.25179108197E+03  0.26699909495E+03  0.00000000000E+00 0. -1.
<scales pt_clust_5="13000.00000" pt_clust_6="13000.00000" pt_clust_7="13000.00000" pt_clust_8="13000.00000" pt_clust_9="88.82441"></scales>
<clustering>
<clus scale="   88.824">  1  9  2 -1</clus>
<clus scale="   89.794">  7  8 -1 -1</clus>
<clus scale="   92.924">  5  6 -1 -1</clus>
<clus scale="  246.404">  1  7  2 -1</clus>
<clus scale="   88.824">  1  5  2 -1</clus>
</clustering>
</event>
<event>
 9    1  0.1321469E-005  0.1760322E+03  0.7546771E-02  0.1171907E+00
         21   -1    0    0  501  502  0.00000000000E+00  0.00000000000E+00  0.37864972024E+03  0.37864972024E+03  0.00000000000E+00 0. -1.
          1   -1    0    0  502    0 -0.00000000000E+00 -0.00000000000E+00 -0.17555508314E+03  0.17555508314E+03  0.00000000000E+00 0. -1.
         23    2    1    2    0    0  0.10643301430E+03  0.95291297532E+02 -0.61948040787E+02  0.18062905306E+03  0.91547130668E+02 0.  0.
         23    2    1    2    0    0 -0.13127745783E+03 -0.12646381081E+03  0.26352448881E+03  0.33368493863E+03  0.93132248375E+02 0.  0.
        -11    1    3    3    0    0  0.27979734847E+02  0.41454171690E+01 -0.52951918612E+02  0.60032955369E+02  0.00000000000E+00 0. -1.
         11    1    3    3    0    0  0.78453279455E+02  0.91145880363E+02 -0.89961221747E+01  0.12059609769E+03  0.00000000000E+00 0.  1.
        -13    1    4    4    0    0 -0.32993362150E+02 -0.63267194528E+02  0.40863119816E+02  0.82225874337E+02  0.00000000000E+00 0.  1.
         13    1    4    4    0    0 -0.98284095679E+02 -0.63196616286E+02  0.22266136900E+03  0.25145906430E+03  0.00000000000E+00 0. -1.
          1    1    1    2  501    0  0.24844443527E+02  0.31172513282E+02  0.15181890779E+01  0.39890811681E+02  0.00000000000E+00 0. -1.
<scales pt_clust_5="13000.00000" pt_clust_6="13000.00000" pt_clust_7="13000.00000" pt_clust_8="13000.00000" pt_clust_9="39.86193"></scales>
<clustering>
<clus scale="   39.862">  1  9  2 -1</clus>
<clus scale="   91.547">  5  6 -1 -1</clus>
<clus scale="   93.132">  7  8 -1 -1</clus>
<clus scale="  175.199">  2  5  1 -1</clus>
<clus scale="   39.862">  1  5  2 -1</clus>
</clustering>
</event>
<event>
 9    1  0.1321469E-005  0.9278079E+02  0.7546771E-02  0.1296919E+00
         21   -1    0    0  501  502  0.00000000000E+00  0.00000000000E+00  0.23396376278E+03  0.23396376278E+03  0.00000000000E+00 0. -1.
          2   -1    0    0  502    0 -0.00000000000E+00 -0.00000000000E+00 -0.35793498749E+03  0.35793498749E+03  0.00000000000E+00 0. -1.
         23    2    1    2    0    0  0.18106271229E+02 -0.79688001323E+01 -0.29085110072E+03  0.30523943888E+03  0.90473274654E+02 0.  0.
         23    2    1    2    0    0 -0.37425318884E+02 -0.43669693036E+02 -0.48119573740E+01  0.10633226065E+03  0.89306764232E+02 0.  0.
        -13    1    3    3    0    0  0.49587980492E+02 -0.35310509884E+01 -0.24128512166E+03  0.24635329522E+03  0.00000000000E+00 0. -1.
         13    1    3    3    0    0 -0.31481709263E+02 -0.44377491439E+01 -0.49565979055E+02  0.58886143661E+02  0.00000000000E+00 0.  1.
        -13    1    4    4    0    0 -0.22768471362E+00  0.26108195379E+02  0.52170254624E+01  0.26625308655E+02  0.00000000000E+00 0.  1.
         13    1    4    4    0    0 -0.37197634170E+02 -0.69777888415E+02 -0.10028982836E+02  0.79706951994E+02  0.00000000000E+00 0. -1.
          2    1    1    2  501    0  0.19319047655E+02  0.51638493168E+02  0.17169183338E+03  0.18032705074E+03  0.00000000000E+00 0. -1.
<scales pt_clust_5="13000.00000" pt_clust_6="13000.00000" pt_clust_7="13000.00000" pt_clust_8="13000.00000" pt_clust_9="55.13401"></scales>
<clustering>
<clus scale="   55.134">  1  9  2 -1</clus>
<clus scale="   89.307">  7  8 -1 -1</clus>
<clus scale="   90.473">  5  6 -1 -1</clus>
<clus scale="   91.644">  1  7  2 -1</clus>
<clus scale="   55.134">  1  5  2 -1</clus>
</clustering>
</event>
<event>
 9    1  0.1321469E-005  0.1075303E+03  0.7546771E-02  0.1265703E+00
          2   -1    0    0  502    0 -0.00000000000E+00  0.00000000000E+00  0.96743808719E+03  0.96743808719E+03  0.00000000000E+00 0. -1.
         21   -1    0    0  501  502  0.00000000000E+00 -0.00000000000E+00 -0.17305211879E+02  0.17305211879E+02  0.00000000000E+00 0.  1.
         23    2    1    2    0    0  0.15705808831E+02  0.64184460963E+02  0.62452526258E+03  0.63471267069E+03  0.91989419397E+02 0.  0.
         23    2    1    2    0    0 -0.31645941944E+01 -0.38039073071E+02  0.26824809248E+03  0.28575794416E+03  0.90794150662E+02 0.  0.
        -11    1    3    3    0    0  0.27602502140E+02 -0.15945651062E+02  0.15395846231E+03  0.15722394865E+03  0.00000000000E+00 0. -1.
         11    1    3    3    0    0 -0.11896693309E+02  0.80130112025E+02  0.47056680027E+03  0.47748872205E+03  0.00000000000E+00 0.  1.
        -13    1    4    4    0    0  0.34136369912E+02  0.12815724211E+01  0.17144495656E+03  0.17481506602E+03  0.00000000000E+00 0. -1.
         13    1    4    4    0    0 -0.37300964106E+02 -0.39320645492E+02  0.96803135916E+02  0.11094287813E+03  0.00000000000E+00 0.  1.
          2    1    1    2  501    0 -0.12541214637E+02 -0.26145387892E+02  0.57359520254E+02  0.64272684217E+02  0.00000000000E+00 0. -1.
<scales pt_clust_5="13000.00000" pt_clust_6="13000.00000" pt_clust_7="13000.00000" pt_clust_8="13000.00000" pt_clust_9="28.99764"></scales>
<clustering>
<clus scale="   28.998">  2  9  1 -1</clus>
<clus scale="   90.794">  7  8 -1 -1</clus>
<clus scale="   91.989">  5  6 -1 -1</clus>
<clus scale="  106.510">  2  7  1 -1</clus>
<clus scale="   28.998">  2  5  1 -1</clus>
</clustering>
</event>
<event>
 9    1  0.1321469E-005  0.9280322E+02  0.7546771E-02  0.1296785E+00
          3   -1    0    0  502    0 -0.00000000000E+00  0.00000000000E+00  0.37502335642E+03  0.37502335642E+03  0.00000000000E+00 0. -1.
         21   -1    0    0  501  502  0.00000000000E+00 -0.00000000000E+00 -0.94124562752E+02  0.94124562752E+02  0.00000000000E+00 0. -1.
         23    2    1    2    0    0 -0.28783613805E+01 -0.39883149377E+02  0.20691552862E+03  0.22931322523E+03  0.90396729556E+02 0.  0.
         23    2    1    2    0    0 -0.12108881291E+02 -0.27616202929E+01  0.13592848383E+03  0.16315090196E+03  0.89372325368E+02 0.  0.
        -11    1    3    3    0    0  0.25114488250E+02  0.93002175621E+01  0.18416135566E+02  0.32502086332E+02  0.00000000000E+00 0.  1.
         11    1    3    3    0    0 -0.27992849630E+02 -0.49183366939E+02  0.18849939305E+03  0.19681113890E+03  0.00000000000E+00 0. -1.
        -11    1    4    4    0    0 -0.13752146094E+02  0.34007687026E+02  0.11522125501E+03  0.12091973331E+03  0.00000000000E+00 0. -1.
         11    1    4    4    0    0  0.16432648025E+01 -0.36769307319E+02  0.20707228824E+02  0.42231168649E+02  0.00000000000E+00 0.  1.
          3    1    1    2  501    0  0.14987242672E+02  0.42644769670E+02 -0.61945218778E+02  0.76683791981E+02  0.00000000000E+00 0. -1.
<scales pt_clust_5="13000.00000" pt_clust_6="13000.00000" pt_clust_7="13000.00000" pt_clust_8="13000.00000" pt_clust_9="45.20170"></scales>
<clustering>
<clus scale="   45.202">  2  9  1 -1</clus>
<clus scale="   89.372">  7  8 -1 -1</clus>
<clus scale="   90.397">  5  6 -1 -1</clus>
<clus scale="   91.806">  2  7  1 -1</clus>
<clus scale="   45.202">  2  5  1 -1</clus>
</clustering>
</event>
<event>
 9    1  0.1321469E-005  0.1296509E+03  0.7546771E-02  0.1230852E+00
          2   -1    0    0  502    0 -0.00000000000E+00  0.00000000000E+00  0.91311180232E+03  0.91311180232E+03  0.00000000000E+00 0. -1.
         21   -1    0    0  501  502  0.00000000000E+00 -0.00000000000E+00 -0.25785556500E+02  0.25785556500E+02  0.00000000000E+00 0.  1.
         23    2    1    2    0    0 -0.61955157190E+02 -0.40908817766E+02  0.42412830068E+03  0.44153202751E+03  0.97743250432E+02 0.  0.
         23    2    1    2    0    0  0.89361148498E+02  0.39423008441E+02  0.44619549488E+03  0.46507943185E+03  0.87572083594E+02 0.  0.
        -13    1    4    4    0    0  0.51416738967E+02  0.66864432601E+02  0.28901317451E+03  0.30107000587E+03  0.00000000000E+00 0.  1.
         13    1    4    4    0    0  0.37944409530E+02 -0.27441424161E+02  0.15718232037E+03  0.16400942598E+03  0.00000000000E+00 0. -1.
        -13    1    3    3    0    0  0.18144317613E+02 -0.30143504812E+02  0.70570419325E+02  0.78854494024E+02  0.00000000000E+00 0.  1.
         13    1    3    3    0    0 -0.80099474803E+02 -0.10765312954E+02  0.35355788136E+03  0.36267753349E+03  0.00000000000E+00 0. -1.
          2    1    1    2  501    0 -0.27405991308E+02  0.14858093248E+01  0.17002450253E+02  0.32285899453E+02  0.00000000000E+00 0. -1.
<scales pt_clust_5="13000.00000" pt_clust_6="13000.00000" pt_clust_7="13000.00000" pt_clust_8="13000.00000" pt_clust_9="27.44624"></scales>
<clustering>
<clus scale="   27.446">  2  9  1 -1</clus>
<clus scale="   87.572">  5  6 -1 -1</clus>
<clus scale="   97.743">  7  8 -1 -1</clus>
<clus scale="  122.166">  2  5  1 -1</clus>
<clus scale="   27.446">  2  5  1 -1</clus>
</clustering>
</event>
<event>
 9    1  0.1321469E-005  0.1661566E+03  0.7546771E-02  0.1194554E+00
         21   -1    0    0  501  502  0.00000000000E+00  0.00000000000E+00  0.14826782217E+03  0.14826782217E+03  0.00000000000E+00 0.  1.
          1   -1    0    0  502    0 -0.00000000000E+00 -0.00000000000E+00 -0.33717215650E+03  0.33717215650E+03  0.00000000000E+00 0. -1.
         23    2    1    2    0    0  0.18709785326E+02  0.82334544731E+02 -0.33094266072E+02  0.12985544499E+03  0.92941771144E+02 0.  0.
         23    2    1    2    0    0 -0.14258939211E+03 -0.54947165399E+00 -0.62402085577E+02  0.18019922534E+03  0.90805858110E+02 0.  0.
        -13    1    4    4    0    0 -0.47704327055E+02 -0.39217424207E+02 -0.31427611701E+01  0.61835152858E+02  0.00000000000E+00 0.  1.
         13    1    4    4    0    0 -0.94885065052E+02  0.38667952553E+02 -0.59259324407E+02  0.11836407248E+03  0.00000000000E+00 0. -1.
        -13    1    3    3    0    0 -0.25623582233E+02  0.62153532644E+01  0.14122349592E+02  0.29910522239E+02  0.00000000000E+00 0.  1.
         13    1    3    3    0    0  0.44333367559E+02  0.76119191467E+02 -0.47216615664E+02  0.99944922749E+02  0.00000000000E+00 0. -1.
          1    1    1    2  501    0  0.12387960678E+03 -0.81785073077E+02 -0.93407982680E+02  0.17538530834E+03  0.00000000000E+00 0. -1.
<scales pt_clust_5="13000.00000" pt_clust_6="13000.00000" pt_clust_7="13000.00000" pt_clust_8="13000.00000" pt_clust_9="139.14856"></scales>
<clustering>
<clus scale="   90.806">  5  6 -1 -1</clus>
<clus scale="   92.942">  7  8 -1 -1</clus>
<clus scale="  125.568">  2  7  1 -1</clus>
<clus scale="  139.149">  1  9  2 -1</clus>
<clus scale="  139.149">  1  5  2 -1</clus>
</clustering>
</event>
<event>
 9    1  0.1321469E-005  0.1068974E+03  0.7546771E-02  0.1266792E+00
         21   -1    0    0  501  502  0.00000000000E+00  0.00000000000E+00  0.36523894492E+03  0.36523894492E+03  0.00000000000E+00 0. -1.
         -2   -1    0    0    0  501 -0.00000000000E+00 -0.00000000000E+00 -0.45747303075E+02  0.45747303075E+02  0.00000000000E+00 0.  1.
         23    2    1    2    0    0 -0.14166720768E+02  0.63088554471E+02  0.76327993001E+02  0.13524819108E+03  0.91023343115E+02 0.  0.
         23    2    1    2    0    0  0.19992104243E+02 -0.38053652486E+02  0.15917593942E+03  0.18790516590E+03  0.90131054480E+02 0.  0.
        -13    1    4    4    0    0 -0.42669897537E+01 -0.61335848984E+02  0.73245333768E+02  0.95630395225E+02  0.00000000000E+00 0.  1.
         13    1    4    4    0    0  0.24259093997E+02  0.23282196497E+02  0.85930605651E+02  0.92274770673E+02  0.00000000000E+00 0. -1.
        -13    1    3    3    0    0  0.99656447464E+01  0.46422686540E+02  0.90859662490E+02  0.10251759931E+03  0.00000000000E+00 0. -1.
         13    1    3    3    0    0 -0.24132365515E+02  0.16665867931E+02 -0.14531669489E+02  0.32730591767E+02  0.00000000000E+00 0.  1.
         -2    1    1    2    0  502 -0.58253834744E+01 -0.25034901985E+02  0.83987709426E+02  0.87832891018E+02  0.00000000000E+00 0.  1.
<scales pt_clust_5="13000.00000" pt_clust_6="13000.00000" pt_clust_7="13000.00000" pt_clust_8="13000.00000" pt_clust_9="25.70372"></scales>
<clustering>
<clus scale="   25.704">  1  9  2 -1</clus>
<clus scale="   90.131">  5  6 -1 -1</clus>
<clus scale="   91.023">  7  8 -1 -1</clus>
<clus scale="  106.139">  1  5  2 -1</clus>
<clus scale="   25.704">  1  5  2 -1</clus>
</clustering>
</event>
<event>
 9    1  0.1321469E-005  0.1034415E+03  0.7546771E-02  0.1275560E+00
         21   -1    0    0  501  502  0.00000000000E+00  0.00000000000E+00  0.23934323174E+03  0.23934323174E+03  0.00000000000E+00 0.  1.
          4   -1    0    0  502    0 -0.00000000000E+00 -0.00000000000E+00 -0.13491608143E+03  0.13491608143E+03  0.00000000000E+00 0. -1.
         23    2    1    2    0    0 -0.36062977068E+02  0.20038046003E+02 -0.92637082506E+02  0.14009307492E+03  0.96655982649E+02 0.  0.
         23    2    1    2    0    0  0.56424606722E+01 -0.41220523538E+01  0.14785167938E+03  0.17416122107E+03  0.91777901204E+02 0.  0.
        -11    1    3    3    0    0  0.18126186114E+02 -0.17175802677E+02  0.17922415536E+01  0.25035553727E+02  0.00000000000E+00 0.  1.
         11    1    3    3    0    0 -0.54189163182E+02  0.37213848680E+02 -0.94429324059E+02  0.11505752119E+03  0.00000000000E+00 0. -1.
        -11    1    4    4    0    0 -0.20198710265E+01  0.29930791290E+02  0.94889798052E+01  0.31463834540E+02  0.00000000000E+00 0. -1.
         11    1    4    4    0    0  0.76623316987E+01 -0.34052843644E+02  0.13836269958E+03  0.14269738653E+03  0.00000000000E+00 0.  1.
          4    1    1    2  501    0  0.30420516396E+02 -0.15915993649E+02  0.49212553429E+02  0.60005017179E+02  0.00000000000E+00 0. -1.
<scales pt_clust_5="13000.00000" pt_clust_6="13000.00000" pt_clust_7="13000.00000" pt_clust_8="13000.00000" pt_clust_9="34.33259"></scales>
<clustering>
<clus scale="   34.333">  1  9  2 -1</clus>
<clus scale="   91.778">  7  8 -1 -1</clus>
<clus scale="   96.656">  5  6 -1 -1</clus>
<clus scale="   98.899">  1  7  2 -1</clus>
<clus scale="   34.333">  1  5  2 -1</clus>
</clustering>
</event>
<event>
 9    1  0.1321469E-005  0.1012691E+03  0.7546771E-02  0.1278348E+00
         21   -1    0    0  501  502  0.00000000000E+00  0.00000000000E+00  0.26066840919E+03  0.26066840919E+03  0.00000000000E+00 0.  1.
         -2   -1    0    0    0  501 -0.00000000000E+00 -0.00000000000E+00 -0.13254887163E+03  0.13254887163E+03  0.00000000000E+00 0.  1.
         23    2    1    2    0    0 -0.12613243460E+02 -0.38953528049E+02 -0.63208338944E+02  0.11768945856E+03  0.90438063253E+02 0.  0.
         23    2    1    2    0    0 -0.10310728498E+02  0.61629835895E+02  0.32478972354E+02  0.11343927307E+03  0.88932768063E+02 0.  0.
        -11    1    4    4    0    0 -0.28069063070E+02  0.48713014813E+02  0.57316129258E+02  0.80286790862E+02  0.00000000000E+00 0. -1.
         11    1    4    4    0    0  0.17758334572E+02  0.12916821082E+02 -0.24837156904E+02  0.33152482210E+02  0.00000000000E+00 0.  1.
        -13    1    3    3    0    0 -0.34481008922E+02 -0.39061531790E+02 -0.13949246689E+01  0.52121867358E+02  0.00000000000E+00 0. -1.
         13    1    3    3    0    0  0.21867765462E+02  0.10800374117E+00 -0.61813414275E+02  0.65567591197E+02  0.00000000000E+00 0.  1.
         -2    1    1    2    0  502  0.22923971958E+02 -0.22676307846E+02  0.15884890415E+03  0.16208854919E+03  0.00000000000E+00 0.  1.
<scales pt_clust_5="13000.00000" pt_clust_6="13000.00000" pt_clust_7="13000.00000" pt_clust_8="13000.00000" pt_clust_9="32.24474"></scales>
<clustering>
<clus scale="   32.245">  1  9  2 -1</clus>
<clus scale="   88.933">  5  6 -1 -1</clus>
<clus scale="   90.438">  7  8 -1 -1</clus>
<clus scale="   99.927">  1  5  2 -1</clus>
<clus scale="   32.245">  1  5  2 -1</clus>
</clustering>
</event>
<event>
 9    1  0.1321469E-005  0.9477801E+02  0.7546771E-02  0.1294356E+00
         21   -1    0    0  501  502  0.00000000000E+00  0.00000000000E+00  0.33694935316E+02  0.33694935316E+02  0.00000000000E+00 0.  1.
          2   -1    0    0  502    0 -0.00000000000E+00 -0.00000000000E+00 -0.41395982691E+03  0.41395982691E+03  0.00000000000E+00 0. -1.
         23    2    1    2    0    0 -0.10874013206E+02  0.93877852780E+00 -0.24360489998E+03  0.26149049078E+03  0.94418239787E+02 0.  0.
         23    2    1    2    0    0 -0.96972107439E+01  0.24142329935E+02 -0.93935852157E+02  0.13252110460E+03  0.89783132347E+02 0.  0.
        -11    1    4    4    0    0 -0.94503827729E+00  0.56349896950E+02 -0.76046620834E+02  0.94653539416E+02  0.00000000000E+00 0. -1.
         11    1    4    4    0    0 -0.87521724666E+01 -0.32207567016E+02 -0.17889231322E+02  0.37867565188E+02  0.00000000000E+00 0.  1.
        -13    1    3    3    0    0 -0.44086628083E+02 -0.25966125545E+02 -0.11236525883E+03  0.12346587320E+03  0.00000000000E+00 0.  1.
         13    1    3    3    0    0  0.33212614876E+02  0.26904904072E+02 -0.13123964115E+03  0.13802461759E+03  0.00000000000E+00 0. -1.
          2    1    1    2  501    0  0.20571223950E+02 -0.25081108463E+02 -0.42724139448E+02  0.53643166835E+02  0.00000000000E+00 0. -1.
<scales pt_clust_5="13000.00000" pt_clust_6="13000.00000" pt_clust_7="13000.00000" pt_clust_8="13000.00000" pt_clust_9="32.43821"></scales>
<clustering>
<clus scale="   32.438">  1  9  2 -1</clus>
<clus scale="   89.783">  5  6 -1 -1</clus>
<clus scale="   90.161">  1  5  2 -1</clus>
<clus scale="   94.418">  7  8 -1 -1</clus>
<clus scale="   32.438">  1  5  2 -1</clus>
</clustering>
</event>
<event>
 9    1  0.1321469E-005  0.1056705E+03  0.7546771E-02  0.1268986E+00
         -1   -1    0    0    0  501 -0.00000000000E+00  0.00000000000E+00  0.12221175815E+03  0.12221175815E+03  0.00000000000E+00 0.  1.
         21   -1    0    0  501  502  0.00000000000E+00 -0.00000000000E+00 -0.18586531364E+03  0.18586531364E+03  0.00000000000E+00 0.  1.
         23    2    1    2    0    0 -0.13050295591E+02 -0.73299126019E+02  0.29186444806E+02  0.12141139926E+03  0.91355389656E+02 0.  0.
         23    2    1    2    0    0 -0.14416585768E+02  0.26308377099E+02 -0.23633968056E+02  0.98620031216E+02  0.90925120072E+02 0.  0.
        -11    1    3    3    0    0  0.17732408974E+02 -0.76174651209E+02 -0.97764862181E+00  0.78217463598E+02  0.00000000000E+00 0. -1.
         11    1    3    3    0    0 -0.30782704565E+02  0.28755251899E+01  0.30164093428E+02  0.43193935660E+02  0.00000000000E+00 0.  1.
        -13    1    4    4    0    0  0.10844883962E+01 -0.32630146023E+02 -0.18342289666E+02  0.37447858881E+02  0.00000000000E+00 0.  1.
         13    1    4    4    0    0 -0.15501074164E+02  0.58938523122E+02 -0.52916783904E+01  0.61172172336E+02  0.00000000000E+00 0. -1.
         -1    1    1    2    0  502  0.27466881359E+02  0.46990748920E+02 -0.69206032239E+02  0.88045641311E+02  0.00000000000E+00 0.  1.
<scales pt_clust_5="13000.00000" pt_clust_6="13000.00000" pt_clust_7="13000.00000" pt_clust_8="13000.00000" pt_clust_9="54.42940"></scales>
<clustering>
<clus scale="   54.429">  2  9  1 -1</clus>
<clus scale="   90.925">  7  8 -1 -1</clus>
<clus scale="   91.355">  5  6 -1 -1</clus>
<clus scale="  105.299">  2  7  1 -1</clus>
<clus scale="   54.429">  2  5  1 -1</clus>
</clustering>
</event>
<event>
 9    1  0.1321469E-005  0.1771527E+03  0.7546771E-02  0.1170650E+00
         21   -1    0    0  501  502  0.00000000000E+00  0.00000000000E+00  0.67978671336E+03  0.67978671336E+03  0.00000000000E+00 0. -1.
          1   -1    0    0  502    0 -0.00000000000E+00 -0.00000000000E+00 -0.21813272885E+03  0.21813272885E+03  0.00000000000E+00 0. -1.
         23    2    1    2    0    0 -0.60190867514E+02  0.13479152861E+03 -0.11312261242E+03  0.20689628182E+03  0.90651250807E+02 0.  0.
         23    2    1    2    0    0  0.19704017119E+03 -0.11304895073E+03  0.34761227972E+03  0.42493276480E+03  0.90159099753E+02 0.  0.
        -11    1    3    3    0    0 -0.85860143813E+01  0.96634023971E+02 -0.10373923436E+03  0.14203409090E+03  0.00000000000E+00 0. -1.
         11    1    3    3    0    0 -0.51604853133E+02  0.38157504644E+02 -0.93833780583E+01  0.64862190923E+02  0.00000000000E+00 0.  1.
        -13    1    4    4    0    0  0.16133124364E+03 -0.46644128493E+02  0.25769694026E+03  0.30758926821E+03  0.00000000000E+00 0. -1.
         13    1    4    4    0    0  0.35708927544E+02 -0.66404822237E+02  0.89915339466E+02  0.11734349660E+03  0.00000000000E+00 0.  1.
          1    1    1    2  501    0 -0.13684930367E+03 -0.21742577885E+02  0.22716431721E+03  0.26609039558E+03  0.00000000000E+00 0. -1.
<scales pt_clust_5="13000.00000" pt_clust_6="13000.00000" pt_clust_7="13000.00000" pt_clust_8="13000.00000" pt_clust_9="138.56577"></scales>
<clustering>
<clus scale="   90.159">  7  8 -1 -1</clus>
<clus scale="   90.651">  5  6 -1 -1</clus>
<clus scale="  138.566">  1  9  2 -1</clus>
<clus scale="  176.901">  1  7  2 -1</clus>
<clus scale="  138.566">  1  5  2 -1</clus>
</clustering>
</event>
<event>
 9    1  0.1321469E-005  0.1102530E+03  0.7546771E-02  0.1260336E+00
         -2   -1    0    0    0  501 -0.00000000000E+00  0.00000000000E+00  0.57372089604E+03  0.57372089604E+03  0.00000000000E+00 0.  1.
         21   -1    0    0  501  502  0.00000000000E+00 -0.00000000000E+00 -0.32533024922E+02  0.32533024922E+02  0.00000000000E+00 0. -1.
         23    2    1    2    0    0  0.31110837540E+02  0.38897791218E+02  0.19525196508E+03  0.22124744428E+03  0.91357426415E+02 0.  0.
         23    2    1    2    0    0 -0.76542202570E+02 -0.23590552340E+02  0.24999157167E+03  0.27775147312E+03  0.90746195406E+02 0.  0.
        -11    1    3    3    0    0  0.16342911195E+02 -0.28800950068E+02  0.82608348782E+02  0.88998453693E+02  0.00000000000E+00 0.  1.
         11    1    3    3    0    0  0.14767926345E+02  0.67698741286E+02  0.11264361629E+03  0.13224899059E+03  0.00000000000E+00 0. -1.
        -13    1    4    4    0    0 -0.58590350046E+02 -0.48678062536E+02  0.10623411494E+03  0.13072134511E+03  0.00000000000E+00 0.  1.
         13    1    4    4    0    0 -0.17951852524E+02  0.25087510196E+02  0.14375745673E+03  0.14703012801E+03  0.00000000000E+00 0. -1.
         -2    1    1    2    0  502  0.45431365030E+02 -0.15307238878E+02  0.95944334375E+02  0.10725500356E+03  0.00000000000E+00 0.  1.
<scales pt_clust_5="13000.00000" pt_clust_6="13000.00000" pt_clust_7="13000.00000" pt_clust_8="13000.00000" pt_clust_9="47.94083"></scales>
<clustering>
<clus scale="   47.941">  2  9  1 -1</clus>
<clus scale="   90.746">  7  8 -1 -1</clus>
<clus scale="   91.357">  5  6 -1 -1</clus>
<clus scale="  109.747">  2  7  1 -1</clus>
<clus scale="   47.941">  2  5  1 -1</clus>
</clustering>
</event>
<event>
 9    1  0.1321469E-005  0.9832376E+02  0.7546771E-02  0.1293334E+00
         21   -1    0    0  501  502  0.00000000000E+00  0.00000000000E+00  0.11494590811E+03  0.11494590811E+03  0.00000000000E+00 0.  1.
          2   -1    0    0  502    0 -0.00000000000E+00 -0.00000000000E+00 -0.53598540552E+03  0.53598540552E+03  0.00000000000E+00 0. -1.
         23    2    1    2    0    0 -0.27183610572E+02 -0.38192077633E+01 -0.47124998156E+03  0.47829769676E+03  0.77062355062E+02 0.  0.
         23    2    1    2    0    0  0.48320028180E+02  0.34709852844E+01 -0.12490706323E+02  0.10646482743E+03  0.93978023353E+02 0.  0.
        -13    1    4    4    0    0  0.16472167890E+02  0.42651790347E+02 -0.28037139778E+02  0.53633839521E+02  0.00000000000E+00 0. -1.
         13    1    4    4    0    0  0.31847860290E+02 -0.39180805063E+02  0.15546433455E+02  0.52830987910E+02  0.00000000000E+00 0.  1.
        -13    1    3    3    0    0  0.21442389263E+02  0.18467567167E+02 -0.15850527433E+03  0.16101164270E+03  0.00000000000E+00 0.  1.
         13    1    3    3    0    0 -0.48625999835E+02 -0.22286774931E+02 -0.31274470724E+03  0.31728605406E+03  0.00000000000E+00 0. -1.
          2    1    1    2  501    0 -0.21136417608E+02  0.34822247893E+00  0.62701190481E+02  0.66168789439E+02  0.00000000000E+00 0. -1.
<scales pt_clust_5="13000.00000" pt_clust_6="13000.00000" pt_clust_7="13000.00000" pt_clust_8="13000.00000" pt_clust_9="21.13929"></scales>
<clustering>
<clus scale="   21.139">  1  9  2 -1</clus>
<clus scale="   77.062">  7  8 -1 -1</clus>
<clus scale="   82.306">  2  7  1 -1</clus>
<clus scale="   93.978">  5  6 -1 -1</clus>
<clus scale="   21.139">  1  5  2 -1</clus>
</clustering>
</event>
<event>
 9    1  0.1321469E-005  0.1211570E+03  0.7546771E-02  0.1241247E+00
         21   -1    0    0  501  502  0.00000000000E+00  0.00000000000E+00  0.19621673906E+03  0.19621673906E+03  0.00000000000E+00 0. -1.
          3   -1    0    0  502    0 -0.00000000000E+00 -0.00000000000E+00 -0.21098755506E+03  0.21098755506E+03  0.00000000000E+00 0. -1.
         23    2    1    2    0    0  0.70817495870E+02  0.76820569835E+02 -0.11336254523E+03  0.17969118367E+03  0.92311089031E+02 0.  0.
         23    2    1    2    0    0 -0.10239601667E+02 -0.43079838566E+02 -0.52455937461E+01  0.10265195613E+03  0.92461807850E+02 0.  0.
        -11    1    3    3    0    0  0.40687225253E+02  0.37629961114E+02 -0.11767168606E+03  0.13006955820E+03  0.00000000000E+00 0. -1.
         11    1    3    3    0    0  0.30130270617E+02  0.39190608722E+02  0.43091408285E+01  0.49621625469E+02  0.00000000000E+00 0.  1.
        -13    1    4    4    0    0 -0.44222845777E+02 -0.49682247897E+01 -0.21010244431E+02  0.49211520167E+02  0.00000000000E+00 0.  1.
         13    1    4    4    0    0  0.33983244110E+02 -0.38111613776E+02  0.15764650685E+02  0.53440435964E+02  0.00000000000E+00 0. -1.
          3    1    1    2  501    0 -0.60577894204E+02 -0.33740731270E+02  0.10383732298E+03  0.12486115431E+03  0.00000000000E+00 0. -1.
<scales pt_clust_5="13000.00000" pt_clust_6="13000.00000" pt_clust_7="13000.00000" pt_clust_8="13000.00000" pt_clust_9="69.34060"></scales>
<clustering>
<clus scale="   69.341">  1  9  2 -1</clus>
<clus scale="   92.311">  5  6 -1 -1</clus>
<clus scale="   92.462">  7  8 -1 -1</clus>
<clus scale="  121.042">  2  5  1 -1</clus>
<clus scale="   69.341">  1  5  2 -1</clus>
</clustering>
</event>
<event>
 9    1  0.1321469E-005  0.1185793E+03  0.7546771E-02  0.1256923E+00
         -3   -1    0    0    0  501 -0.00000000000E+00  0.00000000000E+00  0.33253455820E+02  0.33253455820E+02  0.00000000000E+00 0.  1.
         21   -1    0    0  501  502  0.00000000000E+00 -0.00000000000E+00 -0.69298220157E+03  0.69298220157E+03  0.00000000000E+00 0. -1.
         23    2    1    2    0    0 -0.19906884687E+02  0.96811637285E+01 -0.10648314212E+03  0.15860633047E+03  0.11544392370E+03 0.  0.
         23    2    1    2    0    0  0.43876514232E+02 -0.12441778072E+02 -0.47829422493E+03  0.48889005272E+03  0.90377938173E+02 0.  0.
        -11    1    4    4    0    0 -0.26531601911E+02 -0.13208591399E+02 -0.10984413258E+03  0.11377225606E+03  0.00000000000E+00 0.  1.
         11    1    4    4    0    0  0.70408116143E+02  0.76681332716E+00 -0.36845009235E+03  0.37511779667E+03  0.00000000000E+00 0. -1.
        -11    1    3    3    0    0 -0.57692757963E+02 -0.21940276052E+02 -0.32608360383E+02  0.69807844841E+02  0.00000000000E+00 0.  1.
         11    1    3    3    0    0  0.37785873276E+02  0.31621439780E+02 -0.73874781740E+02  0.88798485630E+02  0.00000000000E+00 0. -1.
         -3    1    1    2    0  502 -0.23969629545E+02  0.27606143437E+01 -0.74951378698E+02  0.78739274196E+02  0.00000000000E+00 0.  1.
<scales pt_clust_5="13000.00000" pt_clust_6="13000.00000" pt_clust_7="13000.00000" pt_clust_8="13000.00000" pt_clust_9="24.12808"></scales>
<clustering>
<clus scale="   24.128">  2  9  1 -1</clus>
<clus scale="   90.378">  5  6 -1 -1</clus>
<clus scale="   94.350">  2  5  1 -1</clus>
<clus scale="  115.444">  7  8 -1 -1</clus>
<clus scale="   24.128">  2  5  1 -1</clus>
</clustering>
</event>
<event>
 9    1  0.1321469E-005  0.9356686E+02  0.7546771E-02  0.1295298E+00
          1   -1    0    0  502    0 -0.00000000000E+00  0.00000000000E+00  0.44149136999E+02  0.44149136999E+02  0.00000000000E+00 0. -1.
         21   -1    0    0  501  502  0.00000000000E+00 -0.00000000000E+00 -0.25210089790E+03  0.25210089790E+03  0.00000000000E+00 0.  1.
         23    2    1    2    0    0  0.22759926039E+01  0.21975869935E+02 -0.89742409255E+02  0.13075320930E+03  0.92490987240E+02 0.  0.
         23    2    1    2    0    0  0.95430794254E+01 -0.44112361689E+01 -0.10909608399E+03  0.14244778071E+03  0.90988380128E+02 0.  0.
        -11    1    3    3    0    0 -0.17990994257E+02  0.26019895392E+02 -0.10195369729E+03  0.10674861695E+03  0.00000000000E+00 0.  1.
         11    1    3    3    0    0  0.20266986861E+02 -0.40440254572E+01  0.12211288031E+02  0.24004592346E+02  0.00000000000E+00 0. -1.
        -11    1    4    4    0    0  0.49040028906E+02 -0.11623902175E+02 -0.49922067428E+02  0.70938370106E+02  0.00000000000E+00 0.  1.
         11    1    4    4    0    0 -0.39496949481E+02  0.72126660057E+01 -0.59174016564E+02  0.71509410608E+02  0.00000000000E+00 0. -1.
          1    1    1    2  501    0 -0.11819072029E+02 -0.17564633766E+02 -0.91132676522E+01  0.23049044888E+02  0.00000000000E+00 0. -1.
<scales pt_clust_5="13000.00000" pt_clust_6="13000.00000" pt_clust_7="13000.00000" pt_clust_8="13000.00000" pt_clust_9="21.17091"></scales>
<clustering>
<clus scale="   21.171">  2  9  1 -1</clus>
<clus scale="   90.988">  7  8 -1 -1</clus>
<clus scale="   92.082">  2  7  1 -1</clus>
<clus scale="   92.491">  5  6 -1 -1</clus>
<clus scale="   21.171">  2  5  1 -1</clus>
</clustering>
</event>
<event>
 9    1  0.1321469E-005  0.1687238E+03  0.7546771E-02  0.1181868E+00
          1   -1    0    0  502    0 -0.00000000000E+00  0.00000000000E+00  0.35721887409E+03  0.35721887409E+03  0.00000000000E+00 0. -1.
         21   -1    0    0  501  502  0.00000000000E+00 -0.00000000000E+00 -0.93616358245E+02  0.93616358245E+02  0.00000000000E+00 0.  1.
         23    2    1    2    0    0  0.12334737789E+03  0.72002163090E+02  0.16569967777E+03  0.22967461844E+03  0.69965420184E+02 0.  0.
         23    2    1    2    0    0 -0.10888903301E+03 -0.93867653913E+02  0.95793208796E+02  0.19486243980E+03  0.90150283589E+02 0.  0.
        -11    1    4    4    0    0 -0.47245688037E+02 -0.45974699863E+02  0.96415729618E+02  0.11679820625E+03  0.00000000000E+00 0. -1.
         11    1    4    4    0    0 -0.61643344970E+02 -0.47892954051E+02 -0.62252082205E+00  0.78064233545E+02  0.00000000000E+00 0.  1.
        -13    1    3    3    0    0  0.58466091983E+02  0.63506185406E+00  0.88795074111E+02  0.10631675504E+03  0.00000000000E+00 0.  1.
         13    1    3    3    0    0  0.64881285903E+02  0.71367101236E+02  0.76904603656E+02  0.12335786340E+03  0.00000000000E+00 0. -1.
          1    1    1    2  501    0 -0.14458344879E+02  0.21865490823E+02  0.21096292861E+01  0.26298174106E+02  0.00000000000E+00 0. -1.
<scales pt_clust_5="13000.00000" pt_clust_6="13000.00000" pt_clust_7="13000.00000" pt_clust_8="13000.00000" pt_clust_9="26.21342"></scales>
<clustering>
<clus scale="   26.213">  2  9  1 -1</clus>
<clus scale="   69.965">  7  8 -1 -1</clus>
<clus scale="   90.150">  5  6 -1 -1</clus>
<clus scale="  158.858">  1  7  2 -1</clus>
<clus scale="   26.213">  2  5  1 -1</clus>
</clustering>
</event>
<event>
 9    1  0.1321469E-005  0.1187055E+03  0.7546771E-02  0.1245790E+00
         -1   -1    0    0    0  501 -0.00000000000E+00  0.00000000000E+00  0.58388749061E+02  0.58388749061E+02  0.00000000000E+00 0.  1.
         21   -1    0    0  501  502  0.00000000000E+00 -0.00000000000E+00 -0.33048272586E+03  0.33048272586E+03  0.00000000000E+00 0.  1.
         23    2    1    2    0    0  0.81572632469E+02 -0.29103323793E+02 -0.88261146823E+02  0.15408453992E+03  0.91928872399E+02 0.  0.
         23    2    1    2    0    0 -0.53636371764E+02  0.81384019620E+01 -0.15742843299E+03  0.19100160881E+03  0.93567136810E+02 0.  0.
        -13    1    3    3    0    0  0.29899717597E+02  0.32687268987E+01  0.15421577980E+02  0.33800928320E+02  0.00000000000E+00 0. -1.
         13    1    3    3    0    0  0.51672914872E+02 -0.32372050692E+02 -0.10368272480E+03  0.12028361160E+03  0.00000000000E+00 0.  1.
        -13    1    4    4    0    0 -0.75617218081E+02 -0.11241661856E+02 -0.94240007719E+02  0.12134874407E+03  0.00000000000E+00 0. -1.
         13    1    4    4    0    0  0.21980846317E+02  0.19380063818E+02 -0.63188425274E+02  0.69652864744E+02  0.00000000000E+00 0.  1.
         -1    1    1    2    0  502 -0.27936260706E+02  0.20964921831E+02 -0.26404396984E+02  0.43785326192E+02  0.00000000000E+00 0.  1.
<scales pt_clust_5="13000.00000" pt_clust_6="13000.00000" pt_clust_7="13000.00000" pt_clust_8="13000.00000" pt_clust_9="34.92798"></scales>
<clustering>
<clus scale="   34.928">  2  9  1 -1</clus>
<clus scale="   91.929">  5  6 -1 -1</clus>
<clus scale="   93.567">  7  8 -1 -1</clus>
<clus scale="  117.418">  1  5  2 -1</clus>
<clus scale="   34.928">  2  5  1 -1</clus>
</clustering>
</event>
<event>
 9    1  0.1321469E-005  0.1208135E+03  0.7546771E-02  0.1241841E+00
          1   -1    0    0  502    0 -0.00000000000E+00  0.00000000000E+00  0.63896935747E+03  0.63896935747E+03  0.00000000000E+00 0. -1.
         21   -1    0    0  501  502  0.00000000000E+00 -0.00000000000E+00 -0.42755930147E+02  0.42755930147E+02  0.00000000000E+00 0.  1.
         23    2    1    2    0    0  0.72281467977E+02  0.99734111537E+01  0.39155581226E+03  0.40822244735E+03  0.89473643395E+02 0.  0.
         23    2    1    2    0    0 -0.99927590608E+02 -0.38878484478E+02  0.17457806775E+03  0.22345695605E+03  0.89210142639E+02 0.  0.
        -11    1    4    4    0    0 -0.45458037205E+02  0.94436569604E+01  0.16254195145E+02  0.49191611715E+02  0.00000000000E+00 0.  1.
         11    1    4    4    0    0 -0.54469553403E+02 -0.48322141438E+02  0.15832387260E+03  0.17426534434E+03  0.00000000000E+00 0. -1.
        -13    1    3    3    0    0  0.69548424978E+02  0.41840711795E+02  0.31422782487E+03  0.32454083642E+03  0.00000000000E+00 0. -1.
         13    1    3    3    0    0  0.27330429994E+01 -0.31867300642E+02  0.77327987386E+02  0.83681610927E+02  0.00000000000E+00 0.  1.
          1    1    1    2  501    0  0.27646122631E+02  0.28905073324E+02  0.30079547320E+02  0.50045884220E+02  0.00000000000E+00 0. -1.
<scales pt_clust_5="13000.00000" pt_clust_6="13000.00000" pt_clust_7="13000.00000" pt_clust_8="13000.00000" pt_clust_9="39.99764"></scales>
<clustering>
<clus scale="   39.998">  2  9  1 -1</clus>
<clus scale="   89.210">  5  6 -1 -1</clus>
<clus scale="   89.474">  7  8 -1 -1</clus>
<clus scale="  120.618">  2  5  1 -1</clus>
<clus scale="   39.998">  2  5  1 -1</clus>
</clustering>
</event>
<event>
 9    1  0.1321469E-005  0.9989683E+02  0.7546771E-02  0.1282093E+00
         21   -1    0    0  501  502  0.00000000000E+00  0.00000000000E+00  0.66500246901E+02  0.66500246901E+02  0.00000000000E+00 0. -1.
          1   -1    0    0  502    0 -0.00000000000E+00 -0.00000000000E+00 -0.29881090764E+03  0.29881090764E+03  0.00000000000E+00 0. -1.
         23    2    1    2    0    0  0.27375573867E+02 -0.19167382699E+02 -0.14041599303E+03  0.17079485204E+03  0.91309472571E+02 0.  0.
         23    2    1    2    0    0  0.12135991473E+02  0.51913717876E+02 -0.26956535131E+02  0.11174887336E+03  0.94439607786E+02 0.  0.
        -11    1    4    4    0    0  0.26105433501E+02 -0.50290720000E+01  0.22666883787E+02  0.34936697670E+02  0.00000000000E+00 0. -1.
         11    1    4    4    0    0 -0.13969442028E+02  0.56942789876E+02 -0.49623418918E+02  0.76812175692E+02  0.00000000000E+00 0.  1.
        -13    1    3    3    0    0 -0.13001848535E+02 -0.38621904270E+02 -0.10813820606E+03  0.11556197976E+03  0.00000000000E+00 0. -1.
         13    1    3    3    0    0  0.40377422403E+02  0.19454521571E+02 -0.32277786972E+02  0.55232872289E+02  0.00000000000E+00 0.  1.
          1    1    1    2  501    0 -0.39511565341E+02 -0.32746335177E+02 -0.64938132572E+02  0.82767429132E+02  0.00000000000E+00 0. -1.
<scales pt_clust_5="13000.00000" pt_clust_6="13000.00000" pt_clust_7="13000.00000" pt_clust_8="13000.00000" pt_clust_9="51.31753"></scales>
<clustering>
<clus scale="   51.318">  1  9  2 -1</clus>
<clus scale="   91.309">  7  8 -1 -1</clus>
<clus scale="   94.440">  5  6 -1 -1</clus>
<clus scale="   96.943">  2  7  1 -1</clus>
<clus scale="   51.318">  1  5  2 -1</clus>
</clustering>
</event>
<event>
 9    1  0.1321469E-005  0.9299719E+02  0.7546771E-02  0.1296416E+00
          1   -1    0    0  502    0 -0.00000000000E+00  0.00000000000E+00  0.55763789864E+02  0.55763789864E+02  0.00000000000E+00 0. -1.
         21   -1    0    0  501  502  0.00000000000E+00 -0.00000000000E+00 -0.29562415940E+03  0.29562415940E+03  0.00000000000E+00 0.  1.
         23    2    1    2    0    0  0.10625198416E+02  0.26973756959E+02 -0.14151348174E+02  0.95638220355E+02  0.90032939148E+02 0.  0.
         23    2    1    2    0    0 -0.86736310112E+01 -0.51721854945E+01 -0.13147360382E+03  0.15900557636E+03  0.88856521616E+02 0.  0.
        -11    1    4    4    0    0  0.70199918795E+01  0.34097301330E+02 -0.10113629793E+03  0.10696007200E+03  0.00000000000E+00 0.  1.
         11    1    4    4    0    0 -0.15693622891E+02 -0.39269486825E+02 -0.30337305893E+02  0.52045504357E+02  0.00000000000E+00 0. -1.
        -13    1    3    3    0    0 -0.22423882189E+02  0.45135263270E+02 -0.25192850165E+02  0.56344495582E+02  0.00000000000E+00 0. -1.
         13    1    3    3    0    0  0.33049080605E+02 -0.18161506311E+02  0.11041501991E+02  0.39293724773E+02  0.00000000000E+00 0.  1.
          1    1    1    2  501    0 -0.19515674045E+01 -0.21801571465E+02 -0.94235417537E+02  0.96744152547E+02  0.00000000000E+00 0. -1.
<scales pt_clust_5="13000.00000" pt_clust_6="13000.00000" pt_clust_7="13000.00000" pt_clust_8="13000.00000" pt_clust_9="21.88874"></scales>
<clustering>
<clus scale="   21.889">  2  9  1 -1</clus>
<clus scale="   88.857">  5  6 -1 -1</clus>
<clus scale="   90.033">  7  8 -1 -1</clus>
<clus scale="   91.859">  2  5  1 -1</clus>
<clus scale="   21.889">  2  5  1 -1</clus>
</clustering>
</event>
<event>
 9    1  0.1321469E-005  0.9620327E+02  0.7546771E-02  0.1289811E+00
          2   -1    0    0  502    0 -0.00000000000E+00  0.00000000000E+00  0.32993681357E+03  0.32993681357E+03  0.00000000000E+00 0. -1.
         21   -1    0    0  501  502  0.00000000000E+00 -0.00000000000E+00 -0.46504889398E+02  0.46504889398E+02  0.00000000000E+00 0.  1.
         23    2    1    2    0    0 -0.62062712427E+01 -0.88546312949E+01  0.19426612734E+03  0.21529887272E+03  0.92181093860E+02 0.  0.
         23    2    1    2    0    0  0.67996923875E+01  0.31885177789E+02  0.94366713858E+02  0.13752487609E+03  0.94578615347E+02 0.  0.
        -11    1    3    3    0    0  0.38660407405E+02 -0.56864023589E+01  0.13709653680E+03  0.14255673493E+03  0.00000000000E+00 0.  1.
         11    1    3    3    0    0 -0.44866678647E+02 -0.31682289359E+01  0.57169590542E+02  0.72742137790E+02  0.00000000000E+00 0. -1.
        -11    1    4    4    0    0 -0.12547576895E+02  0.57535571415E+02  0.31166392100E+02  0.66626778854E+02  0.00000000000E+00 0. -1.
         11    1    4    4    0    0  0.19347269282E+02 -0.25650393626E+02  0.63200321758E+02  0.70898097239E+02  0.00000000000E+00 0.  1.
          2    1    1    2  501    0 -0.59342114479E+00 -0.23030546494E+02 -0.52009170272E+01  0.23617954153E+02  0.00000000000E+00 0. -1.
<scales pt_clust_5="13000.00000" pt_clust_6="13000.00000" pt_clust_7="13000.00000" pt_clust_8="13000.00000" pt_clust_9="23.03819"></scales>
<clustering>
<clus scale="   23.038">  2  9  1 -1</clus>
<clus scale="   92.181">  5  6 -1 -1</clus>
<clus scale="   93.847">  1  5  2 -1</clus>
<clus scale="   94.579">  7  8 -1 -1</clus>
<clus scale="   23.038">  2  5  1 -1</clus>
</clustering>
</event>
<event>
 9    1  0.1321469E-005  0.2569981E+03  0.7546771E-02  0.1144859E+00
          1   -1    0    0  502    0 -0.00000000000E+00  0.00000000000E+00  0.48935300430E+03  0.48935300430E+03  0.00000000000E+00 0. -1.
         21   -1    0    0  501  502  0.00000000000E+00 -0.00000000000E+00 -0.61805616653E+03  0.61805616653E+03  0.00000000000E+00 0. -1.
         23    2    1    2    0    0  0.40360166997E+02  0.37686239225E+02  0.25974205315E+03  0.28049068673E+03  0.90332139707E+02 0.  0.
         23    2    1    2    0    0 -0.27180900099E+03 -0.76262213280E+02  0.76456949950E+02  0.30615875845E+03  0.90506695795E+02 0.  0.
        -11    1    4    4    0    0 -0.22106679808E+03 -0.93027160217E+02  0.79383384365E+02  0.25263868164E+03  0.00000000000E+00 0. -1.
         11    1    4    4    0    0 -0.50742202918E+02  0.16764946938E+02 -0.29264344151E+01  0.53520076805E+02  0.00000000000E+00 0.  1.
        -13    1    3    3    0    0 -0.14512395126E+02  0.47324782275E+02  0.13791063352E+03  0.14652504041E+03  0.00000000000E+00 0.  1.
         13    1    3    3    0    0  0.54872562123E+02 -0.96385430501E+01  0.12183141963E+03  0.13396564632E+03  0.00000000000E+00 0. -1.
          1    1    1    2  501    0  0.23144883400E+03  0.38575974055E+02 -0.46490216533E+03  0.52075972565E+03  0.00000000000E+00 0. -1.
<scales pt_clust_5="13000.00000" pt_clust_6="13000.00000" pt_clust_7="13000.00000" pt_clust_8="13000.00000" pt_clust_9="240.53388"></scales>
<clustering>
<clus scale="   90.332">  7  8 -1 -1</clus>
<clus scale="   90.507">  5  6 -1 -1</clus>
<clus scale="  105.873">  1  7  2 -1</clus>
<clus scale="  240.534">  2  9  1 -1</clus>
<clus scale="  240.534">  2  5  1 -1</clus>
</clustering>
</event>
<event>
 9    1  0.1321469E-005  0.1377157E+03  0.7546771E-02  0.1222058E+00
          1   -1    0    0  502    0 -0.00000000000E+00  0.00000000000E+00  0.62577792827E+03  0.62577792827E+03  0.00000000000E+00 0. -1.
         21   -1    0    0  501  502  0.00000000000E+00 -0.00000000000E+00 -0.39959489426E+02  0.39959489426E+02  0.00000000000E+00 0.  1.
         23    2    1    2    0    0 -0.34531110053E+02  0.82744175994E+02  0.42660638832E+03  0.44965557472E+03  0.11026390661E+03 0.  0.
         23    2    1    2    0    0  0.41964858821E+02 -0.57976735625E+02  0.14874785284E+03  0.18818585480E+03  0.90363936231E+02 0.  0.
        -11    1    4    4    0    0  0.57568974610E+02 -0.64753832176E+01  0.10003635099E+03  0.11560012520E+03  0.00000000000E+00 0.  1.
         11    1    4    4    0    0 -0.15604115789E+02 -0.51501352407E+02  0.48711501852E+02  0.72585729603E+02  0.00000000000E+00 0. -1.
        -11    1    3    3    0    0 -0.82689889810E+00  0.10151105344E+03  0.34033087056E+03  0.35514824959E+03  0.00000000000E+00 0.  1.
         11    1    3    3    0    0 -0.33704211155E+02 -0.18766877443E+02  0.86275517757E+02  0.94507325127E+02  0.00000000000E+00 0. -1.
          1    1    1    2  501    0 -0.74337487685E+01 -0.24767440369E+02  0.10464197679E+02  0.27895988175E+02  0.00000000000E+00 0. -1.
<scales pt_clust_5="13000.00000" pt_clust_6="13000.00000" pt_clust_7="13000.00000" pt_clust_8="13000.00000" pt_clust_9="25.85898"></scales>
<clustering>
<clus scale="   25.859">  2  9  1 -1</clus>
<clus scale="   90.364">  5  6 -1 -1</clus>
<clus scale="  110.264">  7  8 -1 -1</clus>
<clus scale="  122.365">  2  5  1 -1</clus>
<clus scale="   25.859">  2  5  1 -1</clus>
</clustering>
</event>
<event>
 9    1  0.1321469E-005  0.1230792E+03  0.7546771E-02  0.1238553E+00
          4   -1    0    0  502    0 -0.00000000000E+00  0.00000000000E+00  0.14277929469E+03  0.14277929469E+03  0.00000000000E+00 0. -1.
         21   -1    0    0  501  502  0.00000000000E+00 -0.00000000000E+00 -0.17417328249E+03  0.17417328249E+03  0.00000000000E+00 0. -1.
         23    2    1    2    0    0  0.50555722338E+02  0.65451699083E+02  0.60240044095E+02  0.13650019879E+03  0.90352838262E+02 0.  0.
         23    2    1    2    0    0 -0.28768611035E+02 -0.77462012260E+02 -0.52882051758E+02  0.13440195163E+03  0.91866081218E+02 0.  0.
        -11    1    3    3    0    0  0.12826283229E+02  0.34835822322E+02 -0.20396335982E+02  0.42356328687E+02  0.00000000000E+00 0.  1.
         11    1    3    3    0    0  0.37729439109E+02  0.30615876761E+02  0.80636380077E+02  0.94143870099E+02  0.00000000000E+00 0. -1.
        -13    1    4    4    0    0 -0.19145805964E+01 -0.59020229817E+02  0.13395056889E+02  0.60551471457E+02  0.00000000000E+00 0. -1.
         13    1    4    4    0    0 -0.26854030438E+02 -0.18441782443E+02 -0.66277108647E+02  0.73850480168E+02  0.00000000000E+00 0.  1.
          4    1    1    2  501    0 -0.21787111303E+02  0.12010313177E+02 -0.38751980135E+02  0.46050426772E+02  0.00000000000E+00 0. -1.
<scales pt_clust_5="13000.00000" pt_clust_6="13000.00000" pt_clust_7="13000.00000" pt_clust_8="13000.00000" pt_clust_9="24.87822"></scales>
<clustering>
<clus scale="   24.878">  2  9  1 -1</clus>
<clus scale="   90.353">  5  6 -1 -1</clus>
<clus scale="   91.866">  7  8 -1 -1</clus>
<clus scale="  121.954">  1  5  2 -1</clus>
<clus scale="   24.878">  2  5  1 -1</clus>
</clustering>
</event>
<event>
 9    1  0.1321469E-005  0.1291710E+03  0.7546771E-02  0.1229097E+00
         21   -1    0    0  501  502  0.00000000000E+00  0.00000000000E+00  0.27515906973E+03  0.27515906973E+03  0.00000000000E+00 0. -1.
          2   -1    0    0  502    0 -0.00000000000E+00 -0.00000000000E+00 -0.19264367535E+03  0.19264367535E+03  0.00000000000E+00 0. -1.
         23    2    1    2    0    0  0.69523229938E+02  0.52434164724E+02 -0.56304188962E+02  0.13890646585E+03  0.92423067621E+02 0.  0.
         23    2    1    2    0    0 -0.40331017819E+02 -0.92436639317E+02 -0.41439755287E+02  0.14195828849E+03  0.90905330239E+02 0.  0.
        -13    1    4    4    0    0 -0.22956715459E+02  0.13998555050E+02 -0.15510390776E+02  0.31040981785E+02  0.00000000000E+00 0.  1.
         13    1    4    4    0    0 -0.17374302360E+02 -0.10643519437E+03 -0.25929364511E+02  0.11091730670E+03  0.00000000000E+00 0. -1.
        -13    1    3    3    0    0 -0.31479026388E+01  0.53880203940E+02 -0.19094501105E+02  0.57250202097E+02  0.00000000000E+00 0.  1.
         13    1    3    3    0    0  0.72671132577E+02 -0.14460392169E+01 -0.37209687858E+02  0.81656263752E+02  0.00000000000E+00 0. -1.
          2    1    1    2  501    0 -0.29192212120E+02  0.40002474593E+02  0.18025933863E+03  0.18693799075E+03  0.00000000000E+00 0. -1.
<scales pt_clust_5="13000.00000" pt_clust_6="13000.00000" pt_clust_7="13000.00000" pt_clust_8="13000.00000" pt_clust_9="49.52154"></scales>
<clustering>
<clus scale="   49.522">  1  9  2 -1</clus>
<clus scale="   90.905">  5  6 -1 -1</clus>
<clus scale="   92.423">  7  8 -1 -1</clus>
<clus scale="  128.089">  1  5  2 -1</clus>
<clus scale="   49.522">  1  5  2 -1</clus>
</clustering>
</event>
<event>
 9    1  0.1321469E-005  0.9129770E+02  0.7546771E-02  0.1300026E+00
          1   -1    0    0  502    0 -0.00000000000E+00  0.00000000000E+00  0.73202615997E+03  0.73202615997E+03  0.00000000000E+00 0. -1.
         21   -1    0    0  501  502  0.00000000000E+00 -0.00000000000E+00 -0.42699095721E+02  0.42699095721E+02  0.00000000000E+00 0. -1.
         23    2    1    2    0    0 -0.13811645947E+02  0.76206679742E+01  0.42400552412E+03  0.43397857606E+03  0.91147593791E+02 0.  0.
         23    2    1    2    0    0 -0.14876775743E+02 -0.84644065405E+00  0.28879879172E+03  0.30306250475E+03  0.90664793434E+02 0.  0.
        -11    1    4    4    0    0  0.33273314267E+02 -0.15779602896E+01  0.19286747247E+03  0.19572293003E+03  0.00000000000E+00 0. -1.
         11    1    4    4    0    0 -0.48150090010E+02  0.73151963551E+00  0.95931319247E+02  0.10733957472E+03  0.00000000000E+00 0.  1.
        -13    1    3    3    0    0 -0.20711653951E+02  0.45470712034E+02  0.30029468201E+03  0.30442315008E+03  0.00000000000E+00 0.  1.
         13    1    3    3    0    0  0.69000080044E+01 -0.37850044060E+02  0.12371084211E+03  0.12955542598E+03  0.00000000000E+00 0. -1.
          1    1    1    2  501    0  0.28688421690E+02 -0.67742273201E+01 -0.23477251583E+02  0.37684174884E+02  0.00000000000E+00 0. -1.
<scales pt_clust_5="13000.00000" pt_clust_6="13000.00000" pt_clust_7="13000.00000" pt_clust_8="13000.00000" pt_clust_9="29.47738"></scales>
<clustering>
<clus scale="   29.477">  2  9  1 -1</clus>
<clus scale="   90.665">  5  6 -1 -1</clus>
<clus scale="   90.816">  2  5  1 -1</clus>
<clus scale="   91.148">  7  8 -1 -1</clus>
<clus scale="   29.477">  2  5  1 -1</clus>
</clustering>
</event>
<event>
 9    1  0.1321469E-005  0.1399596E+03  0.7546771E-02  0.1213778E+00
         -2   -1    0    0    0  501 -0.00000000000E+00  0.00000000000E+00  0.54225909450E+02  0.54225909450E+02  0.00000000000E+00 0.  1.
         21   -1    0    0  501  502  0.00000000000E+00 -0.00000000000E+00 -0.61606651838E+03  0.61606651838E+03  0.00000000000E+00 0. -1.
         23    2    1    2    0    0  0.32638958136E+01 -0.12795631637E+03 -0.13548709487E+03  0.20751167519E+03  0.91218805901E+02 0.  0.
         23    2    1    2    0    0  0.98413479025E+01  0.70675377985E+02 -0.23500856560E+03  0.26261646358E+03  0.92986664918E+02 0.  0.
        -11    1    3    3    0    0 -0.35356374717E+02 -0.10508671053E+03 -0.10854744597E+03  0.15516390686E+03  0.00000000000E+00 0. -1.
         11    1    3    3    0    0  0.38620270530E+02 -0.22869605837E+02 -0.26939648894E+02  0.52347768334E+02  0.00000000000E+00 0.  1.
        -13    1    4    4    0    0 -0.31961243604E+02  0.28757466411E+02 -0.16702684385E+03  0.17247167748E+03  0.00000000000E+00 0. -1.
         13    1    4    4    0    0  0.41802591507E+02  0.41917911573E+02 -0.67981721753E+02  0.90144786094E+02  0.00000000000E+00 0.  1.
         -2    1    1    2    0  502 -0.13105243716E+02  0.57280938385E+02 -0.19134494846E+03  0.20016428907E+03  0.00000000000E+00 0.  1.
<scales pt_clust_5="13000.00000" pt_clust_6="13000.00000" pt_clust_7="13000.00000" pt_clust_8="13000.00000" pt_clust_9="58.76098"></scales>
<clustering>
<clus scale="   58.761">  2  9  1 -1</clus>
<clus scale="   91.219">  5  6 -1 -1</clus>
<clus scale="   92.987">  7  8 -1 -1</clus>
<clus scale="  138.791">  1  5  2 -1</clus>
<clus scale="   58.761">  2  5  1 -1</clus>
</clustering>
</event>
<event>
 9    1  0.1321469E-005  0.1004994E+03  0.7546771E-02  0.1287171E+00
          1   -1    0    0  502    0 -0.00000000000E+00  0.00000000000E+00  0.17278360357E+03  0.17278360357E+03  0.00000000000E+00 0. -1.
         21   -1    0    0  501  502  0.00000000000E+00 -0.00000000000E+00 -0.10025451713E+03  0.10025451713E+03  0.00000000000E+00 0.  1.
         23    2    1    2    0    0 -0.25725862715E+02 -0.41757641792E+02  0.93845655065E+02  0.13999579717E+03  0.91576719703E+02 0.  0.
         23    2    1    2    0    0 -0.88276511407E+01  0.35838265897E+02  0.11250869821E+02  0.85192324807E+02  0.75952889392E+02 0.  0.
        -11    1    3    3    0    0 -0.87469042273E+01 -0.24108653981E+02  0.10847721061E+03  0.11146766685E+03  0.00000000000E+00 0. -1.
         11    1    3    3    0    0 -0.16978958487E+02 -0.17648987810E+02 -0.14631555549E+02  0.28528130325E+02  0.00000000000E+00 0.  1.
        -11    1    4    4    0    0 -0.38989004267E+02  0.20243740205E+01  0.72078899456E+01  0.39701312590E+02  0.00000000000E+00 0.  1.
         11    1    4    4    0    0  0.30161353126E+02  0.33813891877E+02  0.40429798756E+01  0.45491012217E+02  0.00000000000E+00 0. -1.
          1    1    1    2  501    0  0.34553513855E+02  0.59193758943E+01 -0.32567438440E+02  0.47849998718E+02  0.00000000000E+00 0. -1.
<scales pt_clust_5="13000.00000" pt_clust_6="13000.00000" pt_clust_7="13000.00000" pt_clust_8="13000.00000" pt_clust_9="35.05687"></scales>
<clustering>
<clus scale="   35.057">  2  9  1 -1</clus>
<clus scale="   75.953">  7  8 -1 -1</clus>
<clus scale="   86.502">  2  7  1 -1</clus>
<clus scale="   91.577">  5  6 -1 -1</clus>
<clus scale="   35.057">  2  5  1 -1</clus>
</clustering>
</event>
<event>
 9    1  0.1321469E-005  0.1383207E+03  0.7546771E-02  0.1215681E+00
         21   -1    0    0  501  502  0.00000000000E+00  0.00000000000E+00  0.10907421456E+03  0.10907421456E+03  0.00000000000E+00 0. -1.
          1   -1    0    0  502    0 -0.00000000000E+00 -0.00000000000E+00 -0.34168203041E+03  0.34168203041E+03  0.00000000000E+00 0. -1.
         23    2    1    2    0    0  0.11929937066E+02  0.86048295401E+02 -0.14936347339E+03  0.19514766463E+03  0.90700227622E+02 0.  0.
         23    2    1    2    0    0  0.21745973427E+01 -0.14041722449E+03 -0.10247488688E+03  0.19623912540E+03  0.91032774792E+02 0.  0.
        -11    1    4    4    0    0 -0.53058378391E+01 -0.31854614012E+02  0.15431153270E+02  0.35790904435E+02  0.00000000000E+00 0.  1.
         11    1    4    4    0    0  0.74804351818E+01 -0.10856261048E+03 -0.11790604015E+03  0.16044822096E+03  0.00000000000E+00 0. -1.
        -13    1    3    3    0    0 -0.36102935857E+02  0.13705320174E+02 -0.41825299775E+02  0.56926386499E+02  0.00000000000E+00 0.  1.
         13    1    3    3    0    0  0.48032872923E+02  0.72342975227E+02 -0.10753817361E+03  0.13822127814E+03  0.00000000000E+00 0. -1.
          1    1    1    2  501    0 -0.14104534409E+02  0.54368929092E+02  0.19230544420E+02  0.59369454943E+02  0.00000000000E+00 0. -1.
<scales pt_clust_5="13000.00000" pt_clust_6="13000.00000" pt_clust_7="13000.00000" pt_clust_8="13000.00000" pt_clust_9="56.16866"></scales>
<clustering>
<clus scale="   56.169">  1  9  2 -1</clus>
<clus scale="   90.700">  7  8 -1 -1</clus>
<clus scale="   91.033">  5  6 -1 -1</clus>
<clus scale="  138.102">  2  7  1 -1</clus>
<clus scale="   56.169">  1  5  2 -1</clus>
</clustering>
</event>
<event>
 9    1  0.1321469E-005  0.1649066E+03  0.7546771E-02  0.1183776E+00
         21   -1    0    0  501  502  0.00000000000E+00  0.00000000000E+00  0.46964753783E+02  0.46964753783E+02  0.00000000000E+00 0. -1.
          2   -1    0    0  502    0 -0.00000000000E+00 -0.00000000000E+00 -0.10069840177E+04  0.10069840177E+04  0.00000000000E+00 0. -1.
         23    2    1    2    0    0 -0.88479368501E+02 -0.10386545709E+03 -0.54578607240E+03  0.57044807776E+03  0.94403076053E+02 0.  0.
         23    2    1    2    0    0  0.10213833349E+03  0.87698211916E+02 -0.42828625641E+03  0.45809526572E+03  0.91098515406E+02 0.  0.
        -11    1    3    3    0    0 -0.10136357526E+03 -0.54943618282E+02 -0.37426836250E+03  0.39162505378E+03  0.00000000000E+00 0. -1.
         11    1    3    3    0    0  0.12884206760E+02 -0.48921838813E+02 -0.17151770990E+03  0.17882302398E+03  0.00000000000E+00 0.  1.
        -11    1    4    4    0    0  0.11701497007E+03  0.65737731285E+02 -0.32892129666E+03  0.35525085775E+03  0.00000000000E+00 0.  1.
         11    1    4    4    0    0 -0.14876636585E+02  0.21960480631E+02 -0.99364959750E+02  0.10284440798E+03  0.00000000000E+00 0. -1.
          2    1    1    2  501    0 -0.13658964989E+02  0.16167245178E+02  0.14053064862E+02  0.25405428027E+02  0.00000000000E+00 0. -1.
<scales pt_clust_5="13000.00000" pt_clust_6="13000.00000" pt_clust_7="13000.00000" pt_clust_8="13000.00000" pt_clust_9="21.16476"></scales>
<clustering>
<clus scale="   21.165">  1  9  2 -1</clus>
<clus scale="   91.099">  7  8 -1 -1</clus>
<clus scale="   94.403">  5  6 -1 -1</clus>
<clus scale="  163.037">  1  7  2 -1</clus>
<clus scale="   21.165">  1  5  2 -1</clus>
</clustering>
</event>
<event>
 9    1  0.1321469E-005  0.9822732E+02  0.7546771E-02  0.1286439E+00
         21   -1    0    0  501  502  0.00000000000E+00  0.00000000000E+00  0.14823337049E+03  0.14823337049E+03  0.00000000000E+00 0. -1.
          2   -1    0    0  502    0 -0.00000000000E+00 -0.00000000000E+00 -0.12633361294E+03  0.12633361294E+03  0.00000000000E+00 0. -1.
         23    2    1    2    0    0  0.98137444731E+01 -0.20077538936E+02 -0.59862312187E+02  0.10982676284E+03  0.89325272264E+02 0.  0.
         23    2    1    2    0    0 -0.12830544784E+02  0.53929637633E+02  0.64117551424E+02  0.12644668724E+03  0.93833233018E+02 0.  0.
        -13    1    3    3    0    0  0.19599690877E+02 -0.52839327257E+02 -0.46689132004E+02  0.73184816969E+02  0.00000000000E+00 0. -1.
         13    1    3    3    0    0 -0.97859464037E+01  0.32761788322E+02 -0.13173180183E+02  0.36641945871E+02  0.00000000000E+00 0.  1.
        -13    1    4    4    0    0  0.19399741248E+02 -0.15707924418E+02 -0.21558222226E+01  0.25054668616E+02  0.00000000000E+00 0.  1.
         13    1    4    4    0    0 -0.32230286032E+02  0.69637562051E+02  0.66273373647E+02  0.10139201862E+03  0.00000000000E+00 0. -1.
          2    1    1    2  501    0  0.30168003110E+01 -0.33852098698E+02  0.17644518315E+02  0.38293533357E+02  0.00000000000E+00 0. -1.
<scales pt_clust_5="13000.00000" pt_clust_6="13000.00000" pt_clust_7="13000.00000" pt_clust_8="13000.00000" pt_clust_9="33.98626"></scales>
<clustering>
<clus scale="   33.986">  1  9  2 -1</clus>
<clus scale="   89.325">  5  6 -1 -1</clus>
<clus scale="   93.833">  7  8 -1 -1</clus>
<clus scale="   93.930">  2  5  1 -1</clus>
<clus scale="   33.986">  1  5  2 -1</clus>
</clustering>
</event>
<event>
 9    1  0.1321469E-005  0.1077827E+03  0.7546771E-02  0.1265067E+00
         21   -1    0    0  501  502  0.00000000000E+00  0.00000000000E+00  0.18141392843E+03  0.18141392843E+03  0.00000000000E+00 0.  1.
         -3   -1    0    0    0  501 -0.00000000000E+00 -0.00000000000E+00 -0.29953134138E+03  0.29953134138E+03  0.00000000000E+00 0.  1.
         23    2    1    2    0    0 -0.55785946693E+02 -0.37411603524E+02 -0.23536246886E+03  0.26155709822E+03  0.92222144608E+02 0.  0.
         23    2    1    2    0    0  0.80061647275E+01 -0.20448779107E+02  0.21921584738E+02  0.98073310168E+02  0.93035300017E+02 0.  0.
        -13    1    3    3    0    0 -0.40440772019E+02 -0.62272334956E+02 -0.21044165464E+03  0.22315687252E+03  0.00000000000E+00 0.  1.
         13    1    3    3    0    0 -0.15345174673E+02  0.24860731432E+02 -0.24920814217E+02  0.38400225707E+02  0.00000000000E+00 0. -1.
        -13    1    4    4    0    0  0.38973798644E+02  0.67835080028E+01  0.36998750376E+02  0.54165307079E+02  0.00000000000E+00 0. -1.
         13    1    4    4    0    0 -0.30967633916E+02 -0.27232287110E+02 -0.15077165638E+02  0.43908003089E+02  0.00000000000E+00 0.  1.
         -3    1    1    2    0  502  0.47779781965E+02  0.57860382631E+02  0.95323471177E+02  0.12131486141E+03  0.00000000000E+00 0.  1.
<scales pt_clust_5="13000.00000" pt_clust_6="13000.00000" pt_clust_7="13000.00000" pt_clust_8="13000.00000" pt_clust_9="75.03820"></scales>
<clustering>
<clus scale="   75.038">  1  9  2 -1</clus>
<clus scale="   92.222">  5  6 -1 -1</clus>
<clus scale="   93.035">  7  8 -1 -1</clus>
<clus scale="  107.082">  2  5  1 -1</clus>
<clus scale="   75.038">  1  5  2 -1</clus>
</clustering>
</event>
<event>
 9    1  0.1321469E-005  0.2257308E+03  0.7546771E-02  0.1130194E+00
         21   -1    0    0  501  502  0.00000000000E+00  0.00000000000E+00  0.40511558289E+02  0.40511558289E+02  0.00000000000E+00 0.  1.
          2   -1    0    0  502    0 -0.00000000000E+00 -0.00000000000E+00 -0.16084300779E+04  0.16084300779E+04  0.00000000000E+00 0. -1.
         23    2    1    2    0    0 -0.56075062138E+01 -0.20134657310E+03 -0.89742782649E+03  0.92483583255E+03  0.96812844142E+02 0.  0.
         23    2    1    2    0    0 -0.38181650086E+02  0.20733892956E+03 -0.56322766053E+03  0.60809392189E+03  0.90030828808E+02 0.  0.
        -11    1    4    4    0    0  0.27695271871E+02  0.80016822489E+02 -0.24012645558E+03  0.25461821348E+03  0.00000000000E+00 0. -1.
         11    1    4    4    0    0 -0.65876921957E+02  0.12732210707E+03 -0.32310120496E+03  0.35347570842E+03  0.00000000000E+00 0.  1.
        -13    1    3    3    0    0  0.11618698555E+02 -0.13449399019E+03 -0.74990303326E+03  0.76195681429E+03  0.00000000000E+00 0. -1.
         13    1    3    3    0    0 -0.17226204769E+02 -0.66852582907E+02 -0.14752479323E+03  0.16287901826E+03  0.00000000000E+00 0.  1.
          2    1    1    2  501    0  0.43789156300E+02 -0.59923564667E+01 -0.10726303255E+03  0.11601188171E+03  0.00000000000E+00 0. -1.
<scales pt_clust_5="13000.00000" pt_clust_6="13000.00000" pt_clust_7="13000.00000" pt_clust_8="13000.00000" pt_clust_9="44.19727"></scales>
<clustering>
<clus scale="   44.197">  1  9  2 -1</clus>
<clus scale="   90.031">  5  6 -1 -1</clus>
<clus scale="   96.813">  7  8 -1 -1</clus>
<clus scale="  222.906">  1  5  2 -1</clus>
<clus scale="   44.197">  1  5  2 -1</clus>
</clustering>
</event>
<event>
 9    1  0.1321469E-005  0.1623791E+03  0.7546771E-02  0.1186150E+00
         21   -1    0    0  501  502  0.00000000000E+00  0.00000000000E+00  0.12135829368E+03  0.12135829368E+03  0.00000000000E+00 0.  1.
         -3   -1    0    0    0  501 -0.00000000000E+00 -0.00000000000E+00 -0.89394405421E+03  0.89394405421E+03  0.00000000000E+00 0.  1.
         23    2    1    2    0    0  0.13607676730E+03 -0.62830576768E+02 -0.58115929594E+03  0.60706150395E+03  0.91175513909E+02 0.  0.
         23    2    1    2    0    0 -0.85003166662E+02  0.76621455666E+02 -0.27361662401E+03  0.31049667108E+03  0.91900707307E+02 0.  0.
        -11    1    3    3    0    0  0.82160772581E+02 -0.71472087411E+02 -0.47902396672E+03  0.49124597965E+03  0.00000000000E+00 0.  1.
         11    1    3    3    0    0  0.53915994715E+02  0.86415106433E+01 -0.10213532922E+03  0.11581552429E+03  0.00000000000E+00 0. -1.
        -11    1    4    4    0    0 -0.17974691150E+02  0.28109457355E+02 -0.18983363102E+03  0.19274345276E+03  0.00000000000E+00 0.  1.
         11    1    4    4    0    0 -0.67028475512E+02  0.48511998311E+02 -0.83782992985E+02  0.11775321831E+03  0.00000000000E+00 0. -1.
         -3    1    1    2    0  502 -0.51073600634E+02 -0.13790878898E+02  0.82190159428E+02  0.97744172866E+02  0.00000000000E+00 0.  1.
<scales pt_clust_5="13000.00000" pt_clust_6="13000.00000" pt_clust_7="13000.00000" pt_clust_8="13000.00000" pt_clust_9="52.90275"></scales>
<clustering>
<clus scale="   52.903">  1  9  2 -1</clus>
<clus scale="   91.176">  5  6 -1 -1</clus>
<clus scale="   91.901">  7  8 -1 -1</clus>
<clus scale="  161.970">  2  5  1 -1</clus>
<clus scale="   52.903">  1  5  2 -1</clus>
</clustering>
</event>
<event>
 9    1  0.1321469E-005  0.9195444E+02  0.7546771E-02  0.1299919E+00
         21   -1    0    0  501  502  0.00000000000E+00  0.00000000000E+00  0.93747996871E+02  0.93747996871E+02  0.00000000000E+00 0.  1.
         -3   -1    0    0    0  501 -0.00000000000E+00 -0.00000000000E+00 -0.19642208494E+03  0.19642208494E+03  0.00000000000E+00 0.  1.
         23    2    1    2    0    0 -0.11737881310E+02  0.19706322687E+01 -0.78025591876E+02  0.12036080071E+03  0.90868410968E+02 0.  0.
         23    2    1    2    0    0 -0.13872237626E+02 -0.27866600997E+02 -0.66326140797E+02  0.11446033848E+03  0.87937623941E+02 0.  0.
        -11    1    4    4    0    0  0.22685848075E+02  0.21805926529E+02 -0.19447372423E+02  0.36991166903E+02  0.00000000000E+00 0. -1.
         11    1    4    4    0    0 -0.36558085701E+02 -0.49672527526E+02 -0.46878768374E+02  0.77469171579E+02  0.00000000000E+00 0.  1.
        -11    1    3    3    0    0 -0.45555682010E+02  0.20476349712E+02 -0.59215011926E+02  0.77466242314E+02  0.00000000000E+00 0.  1.
         11    1    3    3    0    0  0.33817800700E+02 -0.18505717443E+02 -0.18810579950E+02  0.42894558400E+02  0.00000000000E+00 0. -1.
         -3    1    1    2    0  502  0.25610118936E+02  0.25895968728E+02  0.41677644607E+02  0.55348942612E+02  0.00000000000E+00 0.  1.
<scales pt_clust_5="13000.00000" pt_clust_6="13000.00000" pt_clust_7="13000.00000" pt_clust_8="13000.00000" pt_clust_9="36.42086"></scales>
<clustering>
<clus scale="   36.421">  1  9  2 -1</clus>
<clus scale="   87.938">  5  6 -1 -1</clus>
<clus scale="   89.059">  1  5  2 -1</clus>
<clus scale="   90.868">  7  8 -1 -1</clus>
<clus scale="   36.421">  1  5  2 -1</clus>
</clustering>
</event>
<event>
 9    1  0.1537696E-005  0.9960912E+02  0.7546771E-02  0.1281481E+00
          2   -1    0    0  502    0 -0.00000000000E+00  0.00000000000E+00  0.12361989813E+03  0.12361989813E+03  0.00000000000E+00 0. -1.
         21   -1    0    0  501  502  0.00000000000E+00 -0.00000000000E+00 -0.38640422306E+03  0.38640422306E+03  0.00000000000E+00 0. -1.
         23    2    1    2    0    0  0.30220496938E+02  0.46286069183E+02  0.65296784255E+02  0.12422400971E+03  0.90068062706E+02 0.  0.
         23    2    1    2    0    0  0.11120836058E+01 -0.12377009024E+02 -0.48417516982E+02  0.10235120996E+03  0.89314540509E+02 0.  0.
        -11    1    3    3    0    0 -0.19764913158E+02 -0.12886469680E+02  0.11005854634E+01  0.23620418737E+02  0.00000000000E+00 0.  1.
         11    1    3    3    0    0  0.49985410096E+02  0.59172538863E+02  0.64196198792E+02  0.10060359098E+03  0.00000000000E+00 0. -1.
        -13    1    4    4    0    0 -0.34308503689E+02  0.21865200153E+02 -0.25508239013E+02  0.48019065596E+02  0.00000000000E+00 0. -1.
         13    1    4    4    0    0  0.35420587295E+02 -0.34242209177E+02 -0.22909277969E+02  0.54332144360E+02  0.00000000000E+00 0.  1.
          2    1    1    2  501    0 -0.31332580544E+02 -0.33909060159E+02 -0.27966359221E+03  0.28344890152E+03  0.00000000000E+00 0. -1.
<scales pt_clust_5="13000.00000" pt_clust_6="13000.00000" pt_clust_7="13000.00000" pt_clust_8="13000.00000" pt_clust_9="46.16877"></scales>
<clustering>
<clus scale="   46.169">  2  9  1 -1</clus>
<clus scale="   89.315">  7  8 -1 -1</clus>
<clus scale="   90.068">  5  6 -1 -1</clus>
<clus scale="   98.928">  2  7  1 -1</clus>
<clus scale="   46.169">  2  5  1 -1</clus>
</clustering>
</event>
<event>
 9    1  0.1321469E-005  0.1403196E+03  0.7546771E-02  0.1213058E+00
         21   -1    0    0  501  502  0.00000000000E+00  0.00000000000E+00  0.29509464953E+03  0.29509464953E+03  0.00000000000E+00 0. -1.
         -2   -1    0    0    0  501 -0.00000000000E+00 -0.00000000000E+00 -0.10997011680E+03  0.10997011680E+03  0.00000000000E+00 0.  1.
         23    2    1    2    0    0 -0.24078828519E+02  0.81886864782E+02  0.43152482264E+02  0.13168791629E+03  0.90522494241E+02 0.  0.
         23    2    1    2    0    0  0.71274758374E+02 -0.12172690487E+03  0.80701605115E+02  0.18637827498E+03  0.91250105565E+02 0.  0.
        -11    1    3    3    0    0 -0.28915975540E-01  0.20084533102E+02  0.59993425492E+02  0.63266107896E+02  0.00000000000E+00 0. -1.
         11    1    3    3    0    0 -0.24049912544E+02  0.61802331680E+02 -0.16840943229E+02  0.68421808390E+02  0.00000000000E+00 0.  1.
        -13    1    4    4    0    0  0.83519035575E+02 -0.74805144859E+02  0.29669928786E+02  0.11598079011E+03  0.00000000000E+00 0. -1.
         13    1    4    4    0    0 -0.12244277202E+02 -0.46921760013E+02  0.51031676328E+02  0.70397484868E+02  0.00000000000E+00 0.  1.
         -2    1    1    2    0  502 -0.47195929854E+02  0.39840040090E+02  0.61270445354E+02  0.86998575063E+02  0.00000000000E+00 0.  1.
<scales pt_clust_5="13000.00000" pt_clust_6="13000.00000" pt_clust_7="13000.00000" pt_clust_8="13000.00000" pt_clust_9="61.76313"></scales>
<clustering>
<clus scale="   61.763">  1  9  2 -1</clus>
<clus scale="   90.522">  5  6 -1 -1</clus>
<clus scale="   91.250">  7  8 -1 -1</clus>
<clus scale="  139.848">  2  5  1 -1</clus>
<clus scale="   61.763">  1  5  2 -1</clus>
</clustering>
</event>
<event>
 9    1  0.1321469E-005  0.1361125E+03  0.7546771E-02  0.1219950E+00
          1   -1    0    0  502    0 -0.00000000000E+00  0.00000000000E+00  0.62099572132E+02  0.62099572132E+02  0.00000000000E+00 0. -1.
         21   -1    0    0  501  502  0.00000000000E+00 -0.00000000000E+00 -0.99625335378E+03  0.99625335378E+03  0.00000000000E+00 0. -1.
         23    2    1    2    0    0 -0.88928014414E+02 -0.12372316727E+02 -0.68966983393E+02  0.14546245972E+03  0.91332449987E+02 0.  0.
         23    2    1    2    0    0  0.17461684203E+03  0.15380170895E+02 -0.70103616278E+03  0.72769582941E+03  0.85801675060E+02 0.  0.
        -11    1    3    3    0    0 -0.97315217819E+02 -0.35302926197E+02 -0.58400810273E+02  0.11885791037E+03  0.00000000000E+00 0. -1.
         11    1    3    3    0    0  0.83872034055E+01  0.22930609470E+02 -0.10566173120E+02  0.26604549349E+02  0.00000000000E+00 0.  1.
        -11    1    4    4    0    0  0.73122312480E+02 -0.33365724849E+02 -0.23961339867E+03  0.25273449507E+03  0.00000000000E+00 0.  1.
         11    1    4    4    0    0  0.10149452955E+03  0.48745895744E+02 -0.46142276411E+03  0.47496133434E+03  0.00000000000E+00 0. -1.
          1    1    1    2  501    0 -0.85688827615E+02 -0.30078541687E+01 -0.16415063547E+03  0.18519463678E+03  0.00000000000E+00 0. -1.
<scales pt_clust_5="13000.00000" pt_clust_6="13000.00000" pt_clust_7="13000.00000" pt_clust_8="13000.00000" pt_clust_9="85.74160"></scales>
<clustering>
<clus scale="   85.742">  2  9  1 -1</clus>
<clus scale="   85.802">  7  8 -1 -1</clus>
<clus scale="   91.332">  5  6 -1 -1</clus>
<clus scale="  132.465">  2  7  1 -1</clus>
<clus scale="   85.742">  2  5  1 -1</clus>
</clustering>
</event>
<event>
 9    1  0.1321469E-005  0.3236656E+03  0.7546771E-02  0.1121350E+00
         21   -1    0    0  501  502  0.00000000000E+00  0.00000000000E+00  0.15792402775E+03  0.15792402775E+03  0.00000000000E+00 0. -1.
          2   -1    0    0  502    0 -0.00000000000E+00 -0.00000000000E+00 -0.84793057340E+03  0.84793057340E+03  0.00000000000E+00 0. -1.
         23    2    1    2    0    0 -0.14268897579E+02  0.36248789287E+02 -0.94019415578E+02  0.13303150065E+03  0.85674695774E+02 0.  0.
         23    2    1    2    0    0  0.24943976778E+03  0.17557133839E+03 -0.34119463611E+03  0.46650755851E+03  0.90388217309E+02 0.  0.
        -13    1    3    3    0    0  0.30222002110E+02 -0.35044985300E+01 -0.51326793337E+02  0.59666495085E+02  0.00000000000E+00 0.  1.
         13    1    3    3    0    0 -0.44490899689E+02  0.39753287817E+02 -0.42692622241E+02  0.73365005563E+02  0.00000000000E+00 0. -1.
        -13    1    4    4    0    0  0.79659904955E+02  0.88104363487E+01 -0.83789426170E+02  0.11594823062E+03  0.00000000000E+00 0.  1.
         13    1    4    4    0    0  0.16977986282E+03  0.16676090204E+03 -0.25740520994E+03  0.35055932789E+03  0.00000000000E+00 0. -1.
          2    1    1    2  501    0 -0.23517087020E+03 -0.21182012768E+03 -0.25479249397E+03  0.40631554199E+03  0.00000000000E+00 0. -1.
<scales pt_clust_5="13000.00000" pt_clust_6="13000.00000" pt_clust_7="13000.00000" pt_clust_8="13000.00000" pt_clust_9="310.78830"></scales>
<clustering>
<clus scale="   85.675">  5  6 -1 -1</clus>
<clus scale="   90.388">  7  8 -1 -1</clus>
<clus scale="   94.116">  2  5  1 -1</clus>
<clus scale="  310.788">  1  9  2 -1</clus>
<clus scale="  310.788">  1  5  2 -1</clus>
</clustering>
</event>
<event>
 9    1  0.1321469E-005  0.1257535E+03  0.7546771E-02  0.1234984E+00
         21   -1    0    0  501  502  0.00000000000E+00  0.00000000000E+00  0.32835313846E+03  0.32835313846E+03  0.00000000000E+00 0. -1.
         -2   -1    0    0    0  501 -0.00000000000E+00 -0.00000000000E+00 -0.58293247776E+02  0.58293247776E+02  0.00000000000E+00 0.  1.
         23    2    1    2    0    0  0.49329166106E+02 -0.57128207901E+02  0.11914125549E+03  0.16861441346E+03  0.92407699349E+02 0.  0.
         23    2    1    2    0    0 -0.48837106668E+02  0.82304348906E+02  0.11327511618E+03  0.17274273871E+03  0.88598718932E+02 0.  0.
        -13    1    4    4    0    0 -0.71659280855E+02  0.59975728159E+02  0.61345468693E+02  0.11178285660E+03  0.00000000000E+00 0.  1.
         13    1    4    4    0    0  0.22822174187E+02  0.22328620748E+02  0.51929647485E+02  0.60959882111E+02  0.00000000000E+00 0. -1.
        -13    1    3    3    0    0 -0.18254442425E+02 -0.47621224858E+02  0.48180642098E+02  0.70159675015E+02  0.00000000000E+00 0.  1.
         13    1    3    3    0    0  0.67583608531E+02 -0.95069830425E+01  0.70960613397E+02  0.98454738445E+02  0.00000000000E+00 0. -1.
         -2    1    1    2    0  502 -0.49205943834E+00 -0.25176141006E+02  0.37643519014E+02  0.45289234065E+02  0.00000000000E+00 0.  1.
<scales pt_clust_5="13000.00000" pt_clust_6="13000.00000" pt_clust_7="13000.00000" pt_clust_8="13000.00000" pt_clust_9="25.18095"></scales>
<clustering>
<clus scale="   25.181">  1  9  2 -1</clus>
<clus scale="   88.599">  5  6 -1 -1</clus>
<clus scale="   92.408">  7  8 -1 -1</clus>
<clus scale="  122.982">  1  5  2 -1</clus>
<clus scale="   25.181">  1  5  2 -1</clus>
</clustering>
</event>
<event>
 9    1  0.1321469E-005  0.1723735E+03  0.7546771E-02  0.1176125E+00
         -1   -1    0    0    0  501 -0.00000000000E+00  0.00000000000E+00  0.38777288927E+03  0.38777288927E+03  0.00000000000E+00 0.  1.
         21   -1    0    0  501  502  0.00000000000E+00 -0.00000000000E+00 -0.12348899357E+03  0.12348899357E+03  0.00000000000E+00 0. -1.
         23    2    1    2    0    0 -0.31688718009E+02 -0.13137319237E+03  0.20611496722E+03  0.26263037728E+03  0.90709673315E+02 0.  0.
         23    2    1    2    0    0  0.53616158239E+02  0.15167685539E+03  0.87538556426E+02  0.20673130971E+03  0.95886780466E+02 0.  0.
        -11    1    3    3    0    0 -0.30571904426E+02 -0.13674355992E+02  0.11919562832E+02  0.35548633308E+02  0.00000000000E+00 0. -1.
         11    1    3    3    0    0 -0.11168135836E+01 -0.11769883638E+03  0.19419540439E+03  0.22708174397E+03  0.00000000000E+00 0.  1.
        -13    1    4    4    0    0  0.26705101956E+02 -0.58005048728E+01  0.16183523903E+02  0.31760270358E+02  0.00000000000E+00 0.  1.
         13    1    4    4    0    0  0.26911056283E+02  0.15747736027E+03  0.71355032523E+02  0.17497103936E+03  0.00000000000E+00 0. -1.
         -1    1    1    2    0  502 -0.21927440230E+02 -0.20303663023E+02 -0.29369627938E+02  0.41900195852E+02  0.00000000000E+00 0.  1.
<scales pt_clust_5="13000.00000" pt_clust_6="13000.00000" pt_clust_7="13000.00000" pt_clust_8="13000.00000" pt_clust_9="29.88397"></scales>
<clustering>
<clus scale="   29.884">  2  9  1 -1</clus>
<clus scale="   90.710">  5  6 -1 -1</clus>
<clus scale="   95.887">  7  8 -1 -1</clus>
<clus scale="  169.548">  1  5  2 -1</clus>
<clus scale="   29.884">  2  5  1 -1</clus>
</clustering>
</event>
<event>
 9    1  0.1321469E-005  0.1110072E+03  0.7546771E-02  0.1260235E+00
         -1   -1    0    0    0  501 -0.00000000000E+00  0.00000000000E+00  0.18694072897E+03  0.18694072897E+03  0.00000000000E+00 0.  1.
         21   -1    0    0  501  502  0.00000000000E+00 -0.00000000000E+00 -0.11168614618E+03  0.11168614618E+03  0.00000000000E+00 0. -1.
         23    2    1    2    0    0 -0.45667658141E+02  0.34991623705E+02  0.99160057654E+02  0.14964657380E+03  0.96184360929E+02 0.  0.
         23    2    1    2    0    0  0.18935380900E+02 -0.52566892063E+02 -0.37388012085E+02  0.11426310799E+03  0.92392465113E+02 0.  0.
        -13    1    4    4    0    0  0.42663403177E+02 -0.49562670896E+02  0.50064851299E+01  0.65587264086E+02  0.00000000000E+00 0.  1.
         13    1    4    4    0    0 -0.23728022277E+02 -0.30042211668E+01 -0.42394497215E+02  0.48675843907E+02  0.00000000000E+00 0. -1.
        -13    1    3    3    0    0  0.30298735349E+02  0.69448323178E+01  0.28592892663E+02  0.42235027767E+02  0.00000000000E+00 0.  1.
         13    1    3    3    0    0 -0.75966393490E+02  0.28046791387E+02  0.70567164991E+02  0.10741154604E+03  0.00000000000E+00 0. -1.
         -1    1    1    2    0  502  0.26732277241E+02  0.17575268358E+02  0.13482537227E+02  0.34717193355E+02  0.00000000000E+00 0.  1.
<scales pt_clust_5="13000.00000" pt_clust_6="13000.00000" pt_clust_7="13000.00000" pt_clust_8="13000.00000" pt_clust_9="31.99228"></scales>
<clustering>
<clus scale="   31.992">  2  9  1 -1</clus>
<clus scale="   92.392">  5  6 -1 -1</clus>
<clus scale="   96.184">  7  8 -1 -1</clus>
<clus scale="  107.738">  2  5  1 -1</clus>
<clus scale="   31.992">  2  5  1 -1</clus>
</clustering>
</event>
<event>
 9    1  0.1321469E-005  0.1016863E+03  0.7546771E-02  0.1278196E+00
         -2   -1    0    0    0  501 -0.00000000000E+00  0.00000000000E+00  0.38504269217E+03  0.38504269217E+03  0.00000000000E+00 0.  1.
         21   -1    0    0  501  502  0.00000000000E+00 -0.00000000000E+00 -0.38630063892E+02  0.38630063892E+02  0.00000000000E+00 0.  1.
         23    2    1    2    0    0 -0.34618111880E+02  0.30720046361E+02  0.19201505322E+03  0.21618254290E+03  0.87880465824E+02 0.  0.
         23    2    1    2    0    0  0.49303401350E+02 -0.59570367180E+01  0.14288510098E+03  0.17648373912E+03  0.90906800735E+02 0.  0.
        -13    1    4    4    0    0  0.15689827208E+02  0.17338498262E+02  0.13214794771E+03  0.13420087289E+03  0.00000000000E+00 0. -1.
         13    1    4    4    0    0  0.33613574141E+02 -0.23295534980E+02  0.10737153275E+02  0.42282866235E+02  0.00000000000E+00 0.  1.
        -13    1    3    3    0    0  0.18292247501E+02 -0.18646691331E+02  0.39284491314E+02  0.47176017996E+02  0.00000000000E+00 0.  1.
         13    1    3    3    0    0 -0.52910359381E+02  0.49366737692E+02  0.15273056190E+03  0.16900652490E+03  0.00000000000E+00 0. -1.
         -2    1    1    2    0  502 -0.14685289470E+02 -0.24763009643E+02  0.11512474084E+02  0.31006474049E+02  0.00000000000E+00 0.  1.
<scales pt_clust_5="13000.00000" pt_clust_6="13000.00000" pt_clust_7="13000.00000" pt_clust_8="13000.00000" pt_clust_9="28.79000"></scales>
<clustering>
<clus scale="   28.790">  2  9  1 -1</clus>
<clus scale="   87.880">  7  8 -1 -1</clus>
<clus scale="   90.907">  5  6 -1 -1</clus>
<clus scale="   98.990">  1  7  2 -1</clus>
<clus scale="   28.790">  2  5  1 -1</clus>
</clustering>
</event>
<event>
 9    1  0.1321469E-005  0.1149778E+03  0.7546771E-02  0.1252629E+00
         21   -1    0    0  501  502  0.00000000000E+00  0.00000000000E+00  0.36982124036E+03  0.36982124036E+03  0.00000000000E+00 0.  1.
          3   -1    0    0  502    0 -0.00000000000E+00 -0.00000000000E+00 -0.46432081964E+02  0.46432081964E+02  0.00000000000E+00 0. -1.
         23    2    1    2    0    0 -0.68107584105E+02  0.37486477912E+02  0.12338985892E+03  0.17335433444E+03  0.93716535077E+02 0.  0.
         23    2    1    2    0    0  0.53695772557E+02 -0.10292074332E+02  0.16641427694E+03  0.19734473850E+03  0.90895937524E+02 0.  0.
        -11    1    3    3    0    0 -0.13583663319E+02  0.60295012189E+02  0.73313996707E+02  0.95890283747E+02  0.00000000000E+00 0.  1.
         11    1    3    3    0    0 -0.54523920785E+02 -0.22808534277E+02  0.50075862213E+02  0.77464050695E+02  0.00000000000E+00 0. -1.
        -13    1    4    4    0    0  0.54774907690E+02  0.14935698413E+02  0.16206514558E+03  0.17172209238E+03  0.00000000000E+00 0.  1.
         13    1    4    4    0    0 -0.10791351326E+01 -0.25227772744E+02  0.43491313561E+01  0.25622646113E+02  0.00000000000E+00 0. -1.
          3    1    1    2  501    0  0.14411811547E+02 -0.27194403580E+02  0.33585022532E+02  0.45554249381E+02  0.00000000000E+00 0. -1.
<scales pt_clust_5="13000.00000" pt_clust_6="13000.00000" pt_clust_7="13000.00000" pt_clust_8="13000.00000" pt_clust_9="30.77721"></scales>
<clustering>
<clus scale="   30.777">  1  9  2 -1</clus>
<clus scale="   90.896">  7  8 -1 -1</clus>
<clus scale="   93.717">  5  6 -1 -1</clus>
<clus scale="  112.691">  1  7  2 -1</clus>
<clus scale="   30.777">  1  5  2 -1</clus>
</clustering>
</event>
<event>
 9    1  0.1321469E-005  0.9759320E+02  0.7546771E-02  0.1286040E+00
         -1   -1    0    0    0  501 -0.00000000000E+00  0.00000000000E+00  0.33950102507E+03  0.33950102507E+03  0.00000000000E+00 0.  1.
         21   -1    0    0  501  502  0.00000000000E+00 -0.00000000000E+00 -0.50461831052E+02  0.50461831052E+02  0.00000000000E+00 0. -1.
         23    2    1    2    0    0  0.32587506385E+00 -0.44898874626E+02  0.16427746090E+03  0.19314775732E+03  0.91120562231E+02 0.  0.
         23    2    1    2    0    0 -0.14767320159E+02  0.23331120506E+02  0.13850904973E+03  0.16744313822E+03  0.89944609342E+02 0.  0.
        -11    1    4    4    0    0 -0.34975592924E+02 -0.62695626414E+01  0.14532835446E+02  0.38390139648E+02  0.00000000000E+00 0. -1.
         11    1    4    4    0    0  0.20208272765E+02  0.29600683147E+02  0.12397621429E+03  0.12905299857E+03  0.00000000000E+00 0.  1.
        -13    1    3    3    0    0 -0.33042758498E+02  0.97946486807E+01  0.36453464322E+02  0.50165865815E+02  0.00000000000E+00 0. -1.
         13    1    3    3    0    0  0.33368633562E+02 -0.54693523307E+02  0.12782399658E+03  0.14298189150E+03  0.00000000000E+00 0.  1.
         -1    1    1    2    0  502  0.14441445095E+02  0.21567754120E+02 -0.13747316616E+02  0.29371960581E+02  0.00000000000E+00 0.  1.
<scales pt_clust_5="13000.00000" pt_clust_6="13000.00000" pt_clust_7="13000.00000" pt_clust_8="13000.00000" pt_clust_9="25.95618"></scales>
<clustering>
<clus scale="   25.956">  2  9  1 -1</clus>
<clus scale="   89.945">  5  6 -1 -1</clus>
<clus scale="   91.121">  7  8 -1 -1</clus>
<clus scale="   96.496">  2  5  1 -1</clus>
<clus scale="   25.956">  2  5  1 -1</clus>
</clustering>
</event>
<event>
 9    1  0.1321469E-005  0.9938803E+02  0.7546771E-02  0.1282560E+00
          2   -1    0    0  502    0 -0.00000000000E+00  0.00000000000E+00  0.35848704315E+03  0.35848704315E+03  0.00000000000E+00 0. -1.
         21   -1    0    0  501  502  0.00000000000E+00 -0.00000000000E+00 -0.20622346383E+03  0.20622346383E+03  0.00000000000E+00 0. -1.
         23    2    1    2    0    0  0.31944594624E+01  0.33395863740E+02  0.20006873921E+03  0.22175073429E+03  0.89556682960E+02 0.  0.
         23    2    1    2    0    0  0.51691596154E+02 -0.57025358529E+02  0.11851473652E+03  0.16623077091E+03  0.87538641736E+02 0.  0.
        -11    1    4    4    0    0  0.60398331506E+02 -0.31523172122E+01  0.48902720064E+02  0.77777706202E+02  0.00000000000E+00 0. -1.
         11    1    4    4    0    0 -0.87067353516E+01 -0.53873041317E+02  0.69612016457E+02  0.88453064709E+02  0.00000000000E+00 0.  1.
        -13    1    3    3    0    0 -0.41828047573E+02  0.47382967021E+01  0.81715005156E+02  0.91920504171E+02  0.00000000000E+00 0.  1.
         13    1    3    3    0    0  0.45022507035E+02  0.28657567038E+02  0.11835373405E+03  0.12983023012E+03  0.00000000000E+00 0. -1.
          2    1    1    2  501    0 -0.54886055616E+02  0.23629494789E+02 -0.16631989642E+03  0.17672900178E+03  0.00000000000E+00 0. -1.
<scales pt_clust_5="13000.00000" pt_clust_6="13000.00000" pt_clust_7="13000.00000" pt_clust_8="13000.00000" pt_clust_9="59.75644"></scales>
<clustering>
<clus scale="   59.756">  2  9  1 -1</clus>
<clus scale="   87.539">  5  6 -1 -1</clus>
<clus scale="   89.557">  7  8 -1 -1</clus>
<clus scale="   97.574">  2  5  1 -1</clus>
<clus scale="   59.756">  2  5  1 -1</clus>
</clustering>
</event>
<event>
 9    1  0.1321469E-005  0.9967469E+02  0.7546771E-02  0.1283171E+00
          1   -1    0    0  502    0 -0.00000000000E+00  0.00000000000E+00  0.30459516894E+03  0.30459516894E+03  0.00000000000E+00 0. -1.
         21   -1    0    0  501  502  0.00000000000E+00 -0.00000000000E+00 -0.66048294594E+02  0.66048294594E+02  0.00000000000E+00 0.  1.
         23    2    1    2    0    0  0.10925568761E+02  0.43156200083E+02  0.22966007984E+03  0.25127688072E+03  0.91730544820E+02 0.  0.
         23    2    1    2    0    0 -0.14869370817E+02 -0.16086748133E+02  0.15211767788E+02  0.91289651171E+02  0.87307049415E+02 0.  0.
        -11    1    3    3    0    0  0.82896363425E+01 -0.22961153757E+02  0.20429328625E+02  0.31832218280E+02  0.00000000000E+00 0.  1.
         11    1    3    3    0    0  0.26359324189E+01  0.66117353840E+02  0.20923075121E+03  0.21944466243E+03  0.00000000000E+00 0. -1.
        -11    1    4    4    0    0 -0.40702818037E+02  0.90284168686E+01  0.30998425522E+02  0.51953191357E+02  0.00000000000E+00 0. -1.
         11    1    4    4    0    0  0.25833447220E+02 -0.25115165002E+02 -0.15786657734E+02  0.39336459814E+02  0.00000000000E+00 0.  1.
          1    1    1    2  501    0  0.39438020561E+01 -0.27069451950E+02 -0.63249732826E+01  0.28076931644E+02  0.00000000000E+00 0. -1.
<scales pt_clust_5="13000.00000" pt_clust_6="13000.00000" pt_clust_7="13000.00000" pt_clust_8="13000.00000" pt_clust_9="27.35523"></scales>
<clustering>
<clus scale="   27.355">  2  9  1 -1</clus>
<clus scale="   87.307">  7  8 -1 -1</clus>
<clus scale="   91.731">  5  6 -1 -1</clus>
<clus scale="   95.619">  2  7  1 -1</clus>
<clus scale="   27.355">  2  5  1 -1</clus>
</clustering>
</event>
<event>
 9    1  0.1321469E-005  0.1012137E+03  0.7546771E-02  0.1280968E+00
         21   -1    0    0  501  502  0.00000000000E+00  0.00000000000E+00  0.17806343942E+03  0.17806343942E+03  0.00000000000E+00 0. -1.
          1   -1    0    0  502    0 -0.00000000000E+00 -0.00000000000E+00 -0.19552959703E+03  0.19552959703E+03  0.00000000000E+00 0. -1.
         23    2    1    2    0    0 -0.29964103499E+02 -0.97842248944E+01 -0.13758668952E+03  0.17163240531E+03  0.97642239134E+02 0.  0.
         23    2    1    2    0    0  0.95705805134E+01  0.72637888691E+01  0.13270427809E+02  0.93152574797E+02  0.91416296671E+02 0.  0.
        -13    1    4    4    0    0 -0.25582931864E+02  0.14906862259E+01  0.40765880254E+02  0.48151485347E+02  0.00000000000E+00 0.  1.
         13    1    4    4    0    0  0.35153512377E+02  0.57731026432E+01 -0.27495452445E+02  0.45001089451E+02  0.00000000000E+00 0. -1.
        -13    1    3    3    0    0  0.20120803054E+02 -0.44759705097E+01 -0.11430072405E+03  0.11614446413E+03  0.00000000000E+00 0.  1.
         13    1    3    3    0    0 -0.50084906554E+02 -0.53082543847E+01 -0.23285965471E+02  0.55487941186E+02  0.00000000000E+00 0. -1.
          1    1    1    2  501    0  0.20393522986E+02  0.25204360253E+01  0.10685010410E+03  0.10880805634E+03  0.00000000000E+00 0. -1.
<scales pt_clust_5="13000.00000" pt_clust_6="13000.00000" pt_clust_7="13000.00000" pt_clust_8="13000.00000" pt_clust_9="20.54868"></scales>
<clustering>
<clus scale="   20.549">  1  9  2 -1</clus>
<clus scale="   91.416">  5  6 -1 -1</clus>
<clus scale="   95.222">  1  5  2 -1</clus>
<clus scale="   97.642">  7  8 -1 -1</clus>
<clus scale="   20.549">  1  5  2 -1</clus>
</clustering>
</event>
<event>
 9    1  0.1321469E-005  0.1198578E+03  0.7546771E-02  0.1243412E+00
         21   -1    0    0  501  502  0.00000000000E+00  0.00000000000E+00  0.58563610118E+03  0.58563610118E+03  0.00000000000E+00 0.  1.
          2   -1    0    0  502    0 -0.00000000000E+00 -0.00000000000E+00 -0.41416165592E+02  0.41416165592E+02  0.00000000000E+00 0. -1.
         23    2    1    2    0    0  0.45693747393E+02  0.67785140486E+02  0.85767897309E+02  0.14942541790E+03  0.91044381950E+02 0.  0.
         23    2    1    2    0    0 -0.26267460508E+02 -0.59973644632E+02  0.40606507703E+03  0.42121059413E+03  0.90789318176E+02 0.  0.
        -11    1    4    4    0    0 -0.50384929744E+02 -0.39376569165E+02  0.35772054469E+03  0.36339117138E+03  0.00000000000E+00 0.  1.
         11    1    4    4    0    0  0.24117469236E+02 -0.20597075467E+02  0.48344532336E+02  0.57819422748E+02  0.00000000000E+00 0. -1.
        -13    1    3    3    0    0  0.19439652278E+02 -0.20485437097E+02  0.93257147183E+01  0.29740917416E+02  0.00000000000E+00 0.  1.
         13    1    3    3    0    0  0.26254095115E+02  0.88270577583E+02  0.76442182591E+02  0.11968450049E+03  0.00000000000E+00 0. -1.
          2    1    1    2  501    0 -0.19426286885E+02 -0.78114958536E+01  0.52386961247E+02  0.56416254735E+02  0.00000000000E+00 0. -1.
<scales pt_clust_5="13000.00000" pt_clust_6="13000.00000" pt_clust_7="13000.00000" pt_clust_8="13000.00000" pt_clust_9="20.93801"></scales>
<clustering>
<clus scale="   20.938">  1  9  2 -1</clus>
<clus scale="   90.789">  5  6 -1 -1</clus>
<clus scale="   91.044">  7  8 -1 -1</clus>
<clus scale="  119.664">  1  5  2 -1</clus>
<clus scale="   20.938">  1  5  2 -1</clus>
</clustering>
</event>
<event>
 9    1  0.1321469E-005  0.1392518E+03  0.7546771E-02  0.1215208E+00
         -1   -1    0    0    0  501 -0.00000000000E+00  0.00000000000E+00  0.77759080377E+02  0.77759080377E+02  0.00000000000E+00 0.  1.
         21   -1    0    0  501  502  0.00000000000E+00 -0.00000000000E+00 -0.34357930586E+03  0.34357930586E+03  0.00000000000E+00 0.  1.
         23    2    1    2    0    0 -0.11436051670E+03  0.49025788911E+02 -0.89623049563E+02  0.17868803994E+03  0.91734774480E+02 0.  0.
         23    2    1    2    0    0  0.82441183776E+02 -0.18280014775E+02 -0.11921147347E+03  0.17045951083E+03  0.87831439146E+02 0.  0.
        -11    1    3    3    0    0 -0.80031464696E+02  0.66872599988E+01 -0.94437619338E+02  0.12396861996E+03  0.00000000000E+00 0.  1.
         11    1    3    3    0    0 -0.34329052000E+02  0.42338528912E+02  0.48145697753E+01  0.54719419988E+02  0.00000000000E+00 0. -1.
        -11    1    4    4    0    0  0.76987837021E+02  0.16313377671E+02 -0.10811297574E+03  0.13372235738E+03  0.00000000000E+00 0.  1.
         11    1    4    4    0    0  0.54533467546E+01 -0.34593392446E+02 -0.11098497736E+02  0.36737153451E+02  0.00000000000E+00 0. -1.
         -1    1    1    2    0  502  0.31919332920E+02 -0.30745774136E+02 -0.56985702445E+02  0.72190835460E+02  0.00000000000E+00 0.  1.
<scales pt_clust_5="13000.00000" pt_clust_6="13000.00000" pt_clust_7="13000.00000" pt_clust_8="13000.00000" pt_clust_9="44.31869"></scales>
<clustering>
<clus scale="   44.319">  2  9  1 -1</clus>
<clus scale="   87.831">  7  8 -1 -1</clus>
<clus scale="   91.735">  5  6 -1 -1</clus>
<clus scale="  136.712">  2  7  1 -1</clus>
<clus scale="   44.319">  2  5  1 -1</clus>
</clustering>
</event>
<event>
 9    1  0.1321469E-005  0.1063519E+03  0.7546771E-02  0.1272975E+00
         21   -1    0    0  501  502  0.00000000000E+00  0.00000000000E+00  0.14785268966E+03  0.14785268966E+03  0.00000000000E+00 0.  1.
          2   -1    0    0  502    0 -0.00000000000E+00 -0.00000000000E+00 -0.32975043620E+03  0.32975043620E+03  0.00000000000E+00 0. -1.
         23    2    1    2    0    0  0.33430081933E+02  0.46795793542E+02 -0.22185862305E+03  0.24229333829E+03  0.78596415240E+02 0.  0.
         23    2    1    2    0    0  0.37317955683E+02 -0.67340579250E+02 -0.40575572463E+02  0.12616084044E+03  0.91338913660E+02 0.  0.
        -13    1    3    3    0    0 -0.17046015161E+02  0.43411698160E+02 -0.99453847618E+02  0.10984630160E+03  0.00000000000E+00 0.  1.
         13    1    3    3    0    0  0.50476097094E+02  0.33840953818E+01 -0.12240477543E+03  0.13244703669E+03  0.00000000000E+00 0. -1.
        -13    1    4    4    0    0  0.63539668755E+02 -0.65929037225E+02 -0.22519235944E+02  0.94292329711E+02  0.00000000000E+00 0.  1.
         13    1    4    4    0    0 -0.26221713072E+02 -0.14115420254E+01 -0.18056336519E+02  0.31868510725E+02  0.00000000000E+00 0. -1.
          2    1    1    2  501    0 -0.70748037616E+02  0.20544785708E+02  0.80536448970E+02  0.10914894713E+03  0.00000000000E+00 0. -1.
<scales pt_clust_5="13000.00000" pt_clust_6="13000.00000" pt_clust_7="13000.00000" pt_clust_8="13000.00000" pt_clust_9="73.67071"></scales>
<clustering>
<clus scale="   73.671">  1  9  2 -1</clus>
<clus scale="   78.596">  5  6 -1 -1</clus>
<clus scale="   91.339">  7  8 -1 -1</clus>
<clus scale="   95.631">  2  5  1 -1</clus>
<clus scale="   73.671">  1  5  2 -1</clus>
</clustering>
</event>
<event>
 9    1  0.1321469E-005  0.9310712E+02  0.7546771E-02  0.1296202E+00
          1   -1    0    0  502    0 -0.00000000000E+00  0.00000000000E+00  0.28275669186E+03  0.28275669186E+03  0.00000000000E+00 0. -1.
         21   -1    0    0  501  502  0.00000000000E+00 -0.00000000000E+00 -0.15746985897E+03  0.15746985897E+03  0.00000000000E+00 0.  1.
         23    2    1    2    0    0  0.54574825274E+01  0.76805867719E+01  0.13425288906E+03  0.16194839700E+03  0.90081460596E+02 0.  0.
         23    2    1    2    0    0 -0.52920209644E+01 -0.29440410265E+02  0.11645710088E+03  0.15098131325E+03  0.91314606508E+02 0.  0.
        -11    1    4    4    0    0 -0.47842362372E+02 -0.17819993671E+02  0.72830377176E+02  0.88942159022E+02  0.00000000000E+00 0.  1.
         11    1    4    4    0    0  0.42550341408E+02 -0.11620416594E+02  0.43626723706E+02  0.62039154226E+02  0.00000000000E+00 0. -1.
        -11    1    3    3    0    0 -0.74734350565E+01 -0.38852190869E+02  0.41272485201E+02  0.57173096833E+02  0.00000000000E+00 0.  1.
         11    1    3    3    0    0  0.12930917584E+02  0.46532777641E+02  0.92980403855E+02  0.10477530017E+03  0.00000000000E+00 0. -1.
          1    1    1    2  501    0 -0.16546156303E+00  0.21759823494E+02 -0.12542315705E+03  0.12729684057E+03  0.00000000000E+00 0. -1.
<scales pt_clust_5="13000.00000" pt_clust_6="13000.00000" pt_clust_7="13000.00000" pt_clust_8="13000.00000" pt_clust_9="21.76045"></scales>
<clustering>
<clus scale="   21.760">  2  9  1 -1</clus>
<clus scale="   90.081">  7  8 -1 -1</clus>
<clus scale="   91.315">  5  6 -1 -1</clus>
<clus scale="   91.898">  1  7  2 -1</clus>
<clus scale="   21.760">  2  5  1 -1</clus>
</clustering>
</event>
<event>
 9    1  0.1321469E-005  0.1952777E+03  0.7546771E-02  0.1153915E+00
         21   -1    0    0  501  502  0.00000000000E+00  0.00000000000E+00  0.18767370809E+03  0.18767370809E+03  0.00000000000E+00 0.  1.
         -1   -1    0    0    0  501 -0.00000000000E+00 -0.00000000000E+00 -0.48272439866E+03  0.48272439866E+03  0.00000000000E+00 0.  1.
         23    2    1    2    0    0  0.82876377440E+02  0.12501857272E+03 -0.15705631409E+03  0.23521982799E+03  0.90352333805E+02 0.  0.
         23    2    1    2    0    0 -0.14640429657E+03 -0.20117051945E+03  0.12853798161E+00  0.26514047414E+03  0.91627826296E+02 0.  0.
        -13    1    3    3    0    0 -0.34956107636E+01  0.71536454974E+02 -0.48240248087E+02  0.86352795092E+02  0.00000000000E+00 0.  1.
         13    1    3    3    0    0  0.86371988203E+02  0.53482117746E+02 -0.10881606600E+03  0.14886703290E+03  0.00000000000E+00 0. -1.
        -13    1    4    4    0    0 -0.30850775637E+02 -0.95010760892E+02 -0.32148313253E+02  0.10493964498E+03  0.00000000000E+00 0. -1.
         13    1    4    4    0    0 -0.11555352094E+03 -0.10615975856E+03  0.32276851234E+02  0.16020082916E+03  0.00000000000E+00 0.  1.
         -1    1    1    2    0  502  0.63527919133E+02  0.76151946734E+02 -0.13812291446E+03  0.17003780462E+03  0.00000000000E+00 0.  1.
<scales pt_clust_5="13000.00000" pt_clust_6="13000.00000" pt_clust_7="13000.00000" pt_clust_8="13000.00000" pt_clust_9="99.17119"></scales>
<clustering>
<clus scale="   90.352">  5  6 -1 -1</clus>
<clus scale="   91.628">  7  8 -1 -1</clus>
<clus scale="   99.171">  1  9  2 -1</clus>
<clus scale="  194.683">  2  5  1 -1</clus>
<clus scale="   99.171">  1  5  2 -1</clus>
</clustering>
</event>
<event>
 9    1  0.1321469E-005  0.1380499E+03  0.7546771E-02  0.1216324E+00
         21   -1    0    0  501  502  0.00000000000E+00  0.00000000000E+00  0.54322572024E+02  0.54322572024E+02  0.00000000000E+00 0.  1.
          1   -1    0    0  502    0 -0.00000000000E+00 -0.00000000000E+00 -0.66578469857E+03  0.66578469857E+03  0.00000000000E+00 0. -1.
         23    2    1    2    0    0  0.23124005817E+02  0.10329397812E+03 -0.48192604626E+03  0.50225068096E+03  0.93801209483E+02 0.  0.
         23    2    1    2    0    0 -0.19820883927E+02 -0.83359583439E+02 -0.14419172996E+03  0.19289504375E+03  0.95265709073E+02 0.  0.
        -11    1    3    3    0    0  0.28510598998E+02  0.82172446494E+02 -0.46881219137E+03  0.47681236980E+03  0.00000000000E+00 0. -1.
         11    1    3    3    0    0 -0.53865931809E+01  0.21121531629E+02 -0.13113854884E+02  0.25438311154E+02  0.00000000000E+00 0.  1.
        -13    1    4    4    0    0 -0.56338036012E+02 -0.54539170062E+02 -0.68855359965E+02  0.10435303526E+03  0.00000000000E+00 0.  1.
         13    1    4    4    0    0  0.36517152085E+02 -0.28820413378E+02 -0.75336369990E+02  0.88542008487E+02  0.00000000000E+00 0. -1.
          1    1    1    2  501    0 -0.33031218906E+01 -0.19934394685E+02  0.14655649668E+02  0.24961545883E+02  0.00000000000E+00 0. -1.
<scales pt_clust_5="13000.00000" pt_clust_6="13000.00000" pt_clust_7="13000.00000" pt_clust_8="13000.00000" pt_clust_9="20.20620"></scales>
<clustering>
<clus scale="   20.206">  1  9  2 -1</clus>
<clus scale="   93.801">  5  6 -1 -1</clus>
<clus scale="   95.266">  7  8 -1 -1</clus>
<clus scale="  137.043">  2  5  1 -1</clus>
<clus scale="   20.206">  1  5  2 -1</clus>
</clustering>
</event>
<event>
 9    1  0.1321469E-005  0.1162148E+03  0.7546771E-02  0.1249999E+00
         21   -1    0    0  501  502  0.00000000000E+00  0.00000000000E+00  0.85638873295E+02  0.85638873295E+02  0.00000000000E+00 0.  1.
          2   -1    0    0  502    0 -0.00000000000E+00 -0.00000000000E+00 -0.37292863425E+03  0.37292863425E+03  0.00000000000E+00 0. -1.
         23    2    1    2    0    0 -0.48234205720E+02  0.69597065353E+02 -0.27649473662E+03  0.30255569371E+03  0.88996170192E+02 0.  0.
         23    2    1    2    0    0  0.36409573956E+02 -0.20031759866E+02 -0.25747617588E+02  0.10290699796E+03  0.90553751650E+02 0.  0.
        -11    1    3    3    0    0  0.54319067460E-01  0.30551188537E+02 -0.15468147422E+02  0.34243855745E+02  0.00000000000E+00 0.  1.
         11    1    3    3    0    0 -0.48288524787E+02  0.39045876816E+02 -0.26102658920E+03  0.26831183797E+03  0.00000000000E+00 0. -1.
        -13    1    4    4    0    0 -0.88710465360E+01 -0.43982702229E+02 -0.25648860945E+02  0.51682082289E+02  0.00000000000E+00 0.  1.
         13    1    4    4    0    0  0.45280620492E+02  0.23950942363E+02 -0.98756643046E-01  0.51224915667E+02  0.00000000000E+00 0. -1.
          2    1    1    2  501    0  0.11824631764E+02 -0.49565305488E+02  0.14952593256E+02  0.53104815879E+02  0.00000000000E+00 0. -1.
<scales pt_clust_5="13000.00000" pt_clust_6="13000.00000" pt_clust_7="13000.00000" pt_clust_8="13000.00000" pt_clust_9="50.95627"></scales>
<clustering>
<clus scale="   50.956">  1  9  2 -1</clus>
<clus scale="   88.996">  5  6 -1 -1</clus>
<clus scale="   90.554">  7  8 -1 -1</clus>
<clus scale="  115.005">  2  5  1 -1</clus>
<clus scale="   50.956">  1  5  2 -1</clus>
</clustering>
</event>
<event>
 9    1  0.1321469E-005  0.1102480E+03  0.7546771E-02  0.1265622E+00
         21   -1    0    0  501  502  0.00000000000E+00  0.00000000000E+00  0.57483676569E+02  0.57483676569E+02  0.00000000000E+00 0. -1.
          2   -1    0    0  502    0 -0.00000000000E+00 -0.00000000000E+00 -0.43275603157E+03  0.43275603157E+03  0.00000000000E+00 0. -1.
         23    2    1    2    0    0  0.50595985609E+02  0.37220500817E+02 -0.30678680235E+03  0.32233329090E+03  0.76389062590E+02 0.  0.
         23    2    1    2    0    0 -0.71875808322E+02 -0.63020413442E+01 -0.52822023832E+02  0.12723544324E+03  0.90514331839E+02 0.  0.
        -11    1    3    3    0    0  0.47064721822E+02  0.57794952680E+02 -0.19805084927E+03  0.21161163364E+03  0.00000000000E+00 0. -1.
         11    1    3    3    0    0  0.35312637872E+01 -0.20574451863E+02 -0.10873595308E+03  0.11072165725E+03  0.00000000000E+00 0.  1.
        -11    1    4    4    0    0 -0.93100185600E+02  0.89083965246E+00 -0.39277998688E+02  0.10105047914E+03  0.00000000000E+00 0. -1.
         11    1    4    4    0    0  0.21224377277E+02 -0.71928809967E+01 -0.13544025144E+02  0.26184964100E+02  0.00000000000E+00 0.  1.
          2    1    1    2  501    0  0.21279822714E+02 -0.30918459473E+02 -0.15663528817E+02  0.40670973997E+02  0.00000000000E+00 0. -1.
<scales pt_clust_5="13000.00000" pt_clust_6="13000.00000" pt_clust_7="13000.00000" pt_clust_8="13000.00000" pt_clust_9="37.53374"></scales>
<clustering>
<clus scale="   37.534">  1  9  2 -1</clus>
<clus scale="   76.389">  5  6 -1 -1</clus>
<clus scale="   90.514">  7  8 -1 -1</clus>
<clus scale="   98.980">  2  5  1 -1</clus>
<clus scale="   37.534">  1  5  2 -1</clus>
</clustering>
</event>
<event>
 9    1  0.1321469E-005  0.1154961E+03  0.7546771E-02  0.1251010E+00
         -3   -1    0    0    0  501 -0.00000000000E+00  0.00000000000E+00  0.21034330628E+03  0.21034330628E+03  0.00000000000E+00 0.  1.
         21   -1    0    0  501  502  0.00000000000E+00 -0.00000000000E+00 -0.11681745688E+03  0.11681745688E+03  0.00000000000E+00 0.  1.
         23    2    1    2    0    0 -0.45443169523E+02  0.68529998903E+02  0.12838725648E+03  0.17685812578E+03  0.89632955007E+02 0.  0.
         23    2    1    2    0    0  0.44730633983E+02 -0.25132044843E+02 -0.28664420943E+02  0.10645867814E+03  0.88765713143E+02 0.  0.
        -13    1    4    4    0    0  0.42215469927E+02 -0.55022039077E+02 -0.75157631051E+01  0.69757131395E+02  0.00000000000E+00 0. -1.
         13    1    4    4    0    0  0.25151640558E+01  0.29889994234E+02 -0.21148657838E+02  0.36701546750E+02  0.00000000000E+00 0.  1.
        -13    1    3    3    0    0 -0.33590504194E+01  0.64005520792E+02  0.11637899049E+03  0.13286105276E+03  0.00000000000E+00 0.  1.
         13    1    3    3    0    0 -0.42084119104E+02  0.45244781104E+01  0.12008265988E+02  0.43997073027E+02  0.00000000000E+00 0. -1.
         -3    1    1    2    0  502  0.71253554006E+00 -0.43397954060E+02 -0.61969861396E+01  0.43843959227E+02  0.00000000000E+00 0.  1.
<scales pt_clust_5="13000.00000" pt_clust_6="13000.00000" pt_clust_7="13000.00000" pt_clust_8="13000.00000" pt_clust_9="43.40380"></scales>
<clustering>
<clus scale="   43.404">  2  9  1 -1</clus>
<clus scale="   88.766">  5  6 -1 -1</clus>
<clus scale="   89.633">  7  8 -1 -1</clus>
<clus scale="  114.824">  2  5  1 -1</clus>
<clus scale="   43.404">  2  5  1 -1</clus>
</clustering>
</event>
<event>
 9    1  0.1321469E-005  0.2311544E+03  0.7546771E-02  0.1147521E+00
         21   -1    0    0  501  502  0.00000000000E+00  0.00000000000E+00  0.37409542028E+03  0.37409542028E+03  0.00000000000E+00 0. -1.
          2   -1    0    0  502    0 -0.00000000000E+00 -0.00000000000E+00 -0.91059028117E+03  0.91059028117E+03  0.00000000000E+00 0. -1.
         23    2    1    2    0    0  0.66479165768E+02  0.85337710457E+02 -0.42207948160E+03  0.44361806953E+03  0.83330057740E+02 0.  0.
         23    2    1    2    0    0  0.14782403960E+03 -0.11082366679E+03 -0.41936703337E+03  0.46747573007E+03  0.92363508585E+02 0.  0.
        -11    1    4    4    0    0  0.97216095443E+02 -0.76469142720E+02 -0.16708418267E+03  0.20788367685E+03  0.00000000000E+00 0. -1.
         11    1    4    4    0    0  0.50607944159E+02 -0.34354524068E+02 -0.25228285070E+03  0.25959205322E+03  0.00000000000E+00 0.  1.
        -13    1    3    3    0    0  0.84502246834E+02  0.62436489212E+02 -0.36036005142E+03  0.37536423852E+03  0.00000000000E+00 0.  1.
         13    1    3    3    0    0 -0.18023081066E+02  0.22901221245E+02 -0.61719430182E+02  0.68253831010E+02  0.00000000000E+00 0. -1.
          2    1    1    2  501    0 -0.21430320537E+03  0.25485956331E+02  0.30495165408E+03  0.37359190185E+03  0.00000000000E+00 0. -1.
<scales pt_clust_5="13000.00000" pt_clust_6="13000.00000" pt_clust_7="13000.00000" pt_clust_8="13000.00000" pt_clust_9="211.89940"></scales>
<clustering>
<clus scale="   83.330">  7  8 -1 -1</clus>
<clus scale="   92.364">  5  6 -1 -1</clus>
<clus scale="  136.550">  2  7  1 -1</clus>
<clus scale="  211.899">  1  9  2 -1</clus>
<clus scale="  211.899">  1  5  2 -1</clus>
</clustering>
</event>
<event>
 9    1  0.1399280E-005  0.1106116E+03  0.7546771E-02  0.1259778E+00
         -1   -1    0    0    0  501 -0.00000000000E+00  0.00000000000E+00  0.11369631320E+03  0.11369631320E+03  0.00000000000E+00 0.  1.
         21   -1    0    0  501  502  0.00000000000E+00 -0.00000000000E+00 -0.65474585606E+03  0.65474585606E+03  0.00000000000E+00 0.  1.
         23    2    1    2    0    0  0.48912151106E+02  0.51833945378E+02  0.58769391718E+02  0.12969948775E+03  0.91043721913E+02 0.  0.
         23    2    1    2    0    0 -0.51667992645E+02  0.38574922331E+02 -0.19842794232E+03  0.22728662470E+03  0.90155173878E+02 0.  0.
        -11    1    4    4    0    0 -0.76037623418E+02  0.40935625528E+02 -0.15451297768E+03  0.17700764357E+03  0.00000000000E+00 0. -1.
         11    1    4    4    0    0  0.24369630772E+02 -0.23607031969E+01 -0.43914964649E+02  0.50278981132E+02  0.00000000000E+00 0.  1.
        -11    1    3    3    0    0  0.46599158018E+01  0.55719740613E+02  0.63983168786E+02  0.84972055390E+02  0.00000000000E+00 0.  1.
         11    1    3    3    0    0  0.44252235305E+02 -0.38857952357E+01 -0.52137770671E+01  0.44727432358E+02  0.00000000000E+00 0. -1.
         -1    1    1    2    0  502  0.27558415388E+01 -0.90408867709E+02 -0.40139099225E+03  0.41145605681E+03  0.00000000000E+00 0.  1.
<scales pt_clust_5="13000.00000" pt_clust_6="13000.00000" pt_clust_7="13000.00000" pt_clust_8="13000.00000" pt_clust_9="90.45086"></scales>
<clustering>
<clus scale="   90.155">  5  6 -1 -1</clus>
<clus scale="   90.451">  2  9  1 -1</clus>
<clus scale="   91.044">  7  8 -1 -1</clus>
<clus scale="  109.881">  2  5  1 -1</clus>
<clus scale="   90.451">  2  5  1 -1</clus>
</clustering>
</event>
<event>
 9    1  0.1321469E-005  0.1080726E+03  0.7546771E-02  0.1264633E+00
         -1   -1    0    0    0  501 -0.00000000000E+00  0.00000000000E+00  0.24091148314E+03  0.24091148314E+03  0.00000000000E+00 0.  1.
         21   -1    0    0  501  502  0.00000000000E+00 -0.00000000000E+00 -0.85865821082E+02  0.85865821082E+02  0.00000000000E+00 0. -1.
         23    2    1    2    0    0  0.28909402193E+02  0.52111784852E+02  0.92710707459E+02  0.14276806116E+03  0.90752698878E+02 0.  0.
         23    2    1    2    0    0  0.10685344724E+02 -0.60323923087E+02  0.83432916134E+02  0.13839885852E+03  0.91869691722E+02 0.  0.
        -13    1    3    3    0    0  0.24747529033E+02 -0.22720706652E+02  0.30152652620E+02  0.45142587033E+02  0.00000000000E+00 0. -1.
         13    1    3    3    0    0  0.41618731603E+01  0.74832491504E+02  0.62558054839E+02  0.97625474125E+02  0.00000000000E+00 0.  1.
        -13    1    4    4    0    0  0.22228653427E+02  0.18289858146E+02  0.10794559940E+02  0.30743364625E+02  0.00000000000E+00 0.  1.
         13    1    4    4    0    0 -0.11543308703E+02 -0.78613781233E+02  0.72638356194E+02  0.10765549390E+03  0.00000000000E+00 0. -1.
         -1    1    1    2    0  502 -0.39594746917E+02  0.82121382355E+01 -0.21097961530E+02  0.45610384547E+02  0.00000000000E+00 0.  1.
<scales pt_clust_5="13000.00000" pt_clust_6="13000.00000" pt_clust_7="13000.00000" pt_clust_8="13000.00000" pt_clust_9="40.43740"></scales>
<clustering>
<clus scale="   40.437">  2  9  1 -1</clus>
<clus scale="   90.753">  5  6 -1 -1</clus>
<clus scale="   91.870">  7  8 -1 -1</clus>
<clus scale="  107.125">  1  5  2 -1</clus>
<clus scale="   40.437">  2  5  1 -1</clus>
</clustering>
</event>
<event>
 9    1  0.1350054E-005  0.1083866E+03  0.7546771E-02  0.1263971E+00
         21   -1    0    0  501  502  0.00000000000E+00  0.00000000000E+00  0.58336723894E+02  0.58336723894E+02  0.00000000000E+00 0. -1.
          2   -1    0    0  502    0 -0.00000000000E+00 -0.00000000000E+00 -0.87292954135E+03  0.87292954135E+03  0.00000000000E+00 0. -1.
         23    2    1    2    0    0 -0.40757708636E+02 -0.58625795253E+02 -0.49069049855E+03  0.50435210159E+03  0.92172134262E+02 0.  0.
         23    2    1    2    0    0  0.54056471431E+02 -0.50720276898E+01 -0.34264359627E+03  0.35919780509E+03  0.93116064918E+02 0.  0.
        -11    1    4    4    0    0 -0.32219700883E+01  0.22261262272E+02 -0.19160885941E+02  0.29548002288E+02  0.00000000000E+00 0.  1.
         11    1    4    4    0    0  0.57278441519E+02 -0.27333289962E+02 -0.32348271033E+03  0.32964980280E+03  0.00000000000E+00 0. -1.
        -13    1    3    3    0    0 -0.51268279548E+02  0.31592844812E+01 -0.16982179389E+03  0.17742000802E+03  0.00000000000E+00 0.  1.
         13    1    3    3    0    0  0.10510570913E+02 -0.61785079734E+02 -0.32086870466E+03  0.32693209357E+03  0.00000000000E+00 0. -1.
          2    1    1    2  501    0 -0.13298762795E+02  0.63697822943E+02  0.18741277365E+02  0.67716358561E+02  0.00000000000E+00 0. -1.
<scales pt_clust_5="13000.00000" pt_clust_6="13000.00000" pt_clust_7="13000.00000" pt_clust_8="13000.00000" pt_clust_9="65.07127"></scales>
<clustering>
<clus scale="   65.071">  1  9  2 -1</clus>
<clus scale="   92.172">  7  8 -1 -1</clus>
<clus scale="   93.116">  5  6 -1 -1</clus>
<clus scale="  107.577">  2  7  1 -1</clus>
<clus scale="   65.071">  1  5  2 -1</clus>
</clustering>
</event>
<event>
 9    1  0.1321469E-005  0.3354280E+03  0.7546771E-02  0.1068768E+00
          2   -1    0    0  502    0 -0.00000000000E+00  0.00000000000E+00  0.23538473305E+03  0.23538473305E+03  0.00000000000E+00 0. -1.
         21   -1    0    0  501  502  0.00000000000E+00 -0.00000000000E+00 -0.71123970620E+03  0.71123970620E+03  0.00000000000E+00 0. -1.
         23    2    1    2    0    0 -0.19436315623E+03 -0.27763051843E+03 -0.12690887529E+02  0.35086444853E+03  0.89939209195E+02 0.  0.
         23    2    1    2    0    0  0.12529709080E+03  0.25781935507E+03 -0.39837860377E+03  0.49901412649E+03  0.90218654818E+02 0.  0.
        -11    1    4    4    0    0  0.97746265710E+02  0.21064079344E+03 -0.37155203860E+03  0.43814928245E+03  0.00000000000E+00 0. -1.
         11    1    4    4    0    0  0.27550825093E+02  0.47178561633E+02 -0.26826565170E+02  0.60864844039E+02  0.00000000000E+00 0.  1.
        -13    1    3    3    0    0 -0.17174979577E+03 -0.18779459907E+03 -0.31201484281E+02  0.25639488374E+03  0.00000000000E+00 0. -1.
         13    1    3    3    0    0 -0.22613360460E+02 -0.89835919368E+02  0.18510596752E+02  0.94469564792E+02  0.00000000000E+00 0.  1.
          2    1    1    2  501    0  0.69066065431E+02  0.19811163361E+02 -0.64785481845E+02  0.96745864230E+02  0.00000000000E+00 0. -1.
<scales pt_clust_5="13000.00000" pt_clust_6="13000.00000" pt_clust_7="13000.00000" pt_clust_8="13000.00000" pt_clust_9="71.85126"></scales>
<clustering>
<clus scale="   71.851">  2  9  1 -1</clus>
<clus scale="   89.939">  7  8 -1 -1</clus>
<clus scale="   90.219">  5  6 -1 -1</clus>
<clus scale="  335.353">  1  7  2 -1</clus>
<clus scale="   71.851">  2  5  1 -1</clus>
</clustering>
</event>
<event>
 9    1  0.1321469E-005  0.1179012E+03  0.7546771E-02  0.1250059E+00
         21   -1    0    0  501  502  0.00000000000E+00  0.00000000000E+00  0.76569737419E+03  0.76569737419E+03  0.00000000000E+00 0.  1.
         -1   -1    0    0    0  501 -0.00000000000E+00 -0.00000000000E+00 -0.28455523700E+02  0.28455523700E+02  0.00000000000E+00 0.  1.
         23    2    1    2    0    0 -0.36066395241E+02  0.70211797048E+02  0.20808381993E+03  0.24395233339E+03  0.99916883141E+02 0.  0.
         23    2    1    2    0    0  0.54350369228E+01 -0.32800534860E+02  0.41823512149E+03  0.42919736452E+03  0.90467376152E+02 0.  0.
        -11    1    4    4    0    0 -0.29136585022E+02 -0.45159223480E+02  0.31671525179E+03  0.32124266026E+03  0.00000000000E+00 0.  1.
         11    1    4    4    0    0  0.34571621945E+02  0.12358688619E+02  0.10151986970E+03  0.10795470426E+03  0.00000000000E+00 0. -1.
        -13    1    3    3    0    0 -0.18878243363E+02  0.89079368416E+02  0.11100505419E+03  0.14357452422E+03  0.00000000000E+00 0.  1.
         13    1    3    3    0    0 -0.17188151878E+02 -0.18867571368E+02  0.97078765749E+02  0.10037780917E+03  0.00000000000E+00 0. -1.
         -1    1    1    2    0  502  0.30631358318E+02 -0.37411262188E+02  0.11092290906E+03  0.12100319998E+03  0.00000000000E+00 0.  1.
<scales pt_clust_5="13000.00000" pt_clust_6="13000.00000" pt_clust_7="13000.00000" pt_clust_8="13000.00000" pt_clust_9="48.35168"></scales>
<clustering>
<clus scale="   48.352">  1  9  2 -1</clus>
<clus scale="   90.467">  5  6 -1 -1</clus>
<clus scale="   99.917">  7  8 -1 -1</clus>
<clus scale="  110.008">  1  5  2 -1</clus>
<clus scale="   48.352">  1  5  2 -1</clus>
</clustering>
</event>
<event>
 9    1  0.1321469E-005  0.9934186E+02  0.7546771E-02  0.1282078E+00
         21   -1    0    0  501  502  0.00000000000E+00  0.00000000000E+00  0.41888723529E+03  0.41888723529E+03  0.00000000000E+00 0.  1.
          4   -1    0    0  502    0 -0.00000000000E+00 -0.00000000000E+00 -0.27234901786E+03  0.27234901786E+03  0.00000000000E+00 0.  1.
         23    2    1    2    0    0 -0.69716302161E+02  0.15359795434E+02 -0.15405684951E+03  0.19215115970E+03  0.89957040815E+02 0.  0.
         23    2    1    2    0    0  0.65104560717E+01  0.93460239694E+01 -0.74454612723E+02  0.11794519957E+03  0.90762583393E+02 0.  0.
        -11    1    4    4    0    0 -0.42112819969E+02  0.46360673797E+01 -0.30194956553E+02  0.52026129279E+02  0.00000000000E+00 0.  1.
         11    1    4    4    0    0  0.48623276041E+02  0.47099565896E+01 -0.44259656170E+02  0.65919070293E+02  0.00000000000E+00 0. -1.
        -13    1    3    3    0    0 -0.46221385861E+02 -0.28994814468E+01 -0.15560932120E+03  0.16235481005E+03  0.00000000000E+00 0.  1.
         13    1    3    3    0    0 -0.23494916300E+02  0.18259276880E+02  0.15524716898E+01  0.29796349650E+02  0.00000000000E+00 0. -1.
          4    1    1    2  501    0  0.63205846089E+02 -0.24705819403E+02  0.37504967966E+03  0.38113989387E+03  0.00000000000E+00 0.  1.
<scales pt_clust_5="13000.00000" pt_clust_6="13000.00000" pt_clust_7="13000.00000" pt_clust_8="13000.00000" pt_clust_9="67.86278"></scales>
<clustering>
<clus scale="   67.863">  1  9  2 -1</clus>
<clus scale="   89.957">  7  8 -1 -1</clus>
<clus scale="   90.763">  5  6 -1 -1</clus>
<clus scale="   98.606">  2  7  1 -1</clus>
<clus scale="   67.863">  1  5  2 -1</clus>
</clustering>
</event>
<event>
 9    1  0.1321469E-005  0.1094201E+03  0.7546771E-02  0.1264501E+00
         21   -1    0    0  501  502  0.00000000000E+00  0.00000000000E+00  0.49002619130E+03  0.49002619130E+03  0.00000000000E+00 0. -1.
         -1   -1    0    0    0  501 -0.00000000000E+00 -0.00000000000E+00 -0.89211550599E+02  0.89211550599E+02  0.00000000000E+00 0.  1.
         23    2    1    2    0    0 -0.21294529152E+02 -0.42987339378E+02 -0.37431601117E+02  0.10909831650E+03  0.90553572994E+02 0.  0.
         23    2    1    2    0    0 -0.64921447693E+01  0.77649943021E+02  0.29772987931E+03  0.32276763885E+03  0.97284151123E+02 0.  0.
        -11    1    3    3    0    0 -0.33070077898E+02  0.18240269546E+02 -0.25627565433E+02  0.45641095465E+02  0.00000000000E+00 0. -1.
         11    1    3    3    0    0  0.11775548746E+02 -0.61227608924E+02 -0.11804035685E+02  0.63457221033E+02  0.00000000000E+00 0.  1.
        -13    1    4    4    0    0 -0.38481623685E+02  0.11167064062E+01  0.63215248330E+02  0.74015201250E+02  0.00000000000E+00 0.  1.
         13    1    4    4    0    0  0.31989478916E+02  0.76533236615E+02  0.23451463098E+03  0.24875243760E+03  0.00000000000E+00 0. -1.
         -1    1    1    2    0  502  0.27786673921E+02 -0.34662603644E+02  0.14051636251E+03  0.14737178655E+03  0.00000000000E+00 0.  1.
<scales pt_clust_5="13000.00000" pt_clust_6="13000.00000" pt_clust_7="13000.00000" pt_clust_8="13000.00000" pt_clust_9="44.42517"></scales>
<clustering>
<clus scale="   44.425">  1  9  2 -1</clus>
<clus scale="   90.554">  5  6 -1 -1</clus>
<clus scale="   97.284">  7  8 -1 -1</clus>
<clus scale="  103.482">  2  5  1 -1</clus>
<clus scale="   44.425">  1  5  2 -1</clus>
</clustering>
</event>
<event>
 9    1  0.1321469E-005  0.1157962E+03  0.7546771E-02  0.1250845E+00
         21   -1    0    0  501  502  0.00000000000E+00  0.00000000000E+00  0.19291788108E+03  0.19291788108E+03  0.00000000000E+00 0. -1.
          1   -1    0    0  502    0 -0.00000000000E+00 -0.00000000000E+00 -0.23235817691E+03  0.23235817691E+03  0.00000000000E+00 0. -1.
         23    2    1    2    0    0  0.70817324345E+02 -0.95566199279E+01 -0.18474100284E+03  0.21768528810E+03  0.90284129902E+02 0.  0.
         23    2    1    2    0    0 -0.53421509181E+02  0.24971297152E+02  0.14815181623E+03  0.18417377856E+03  0.92160711437E+02 0.  0.
        -11    1    3    3    0    0  0.57279629414E+02  0.15489662335E+02 -0.43424674235E+02  0.73529503721E+02  0.00000000000E+00 0.  1.
         11    1    3    3    0    0  0.13537694931E+02 -0.25046282262E+02 -0.14131632860E+03  0.14415578438E+03  0.00000000000E+00 0. -1.
        -13    1    4    4    0    0 -0.15004447663E+02  0.26232661056E+02 -0.91153040122E+00  0.30234365272E+02  0.00000000000E+00 0.  1.
         13    1    4    4    0    0 -0.38417061518E+02 -0.12613639041E+01  0.14906334664E+03  0.15393941329E+03  0.00000000000E+00 0. -1.
          1    1    1    2  501    0 -0.17395815164E+02 -0.15414677224E+02 -0.28511092213E+01  0.23416991330E+02  0.00000000000E+00 0. -1.
<scales pt_clust_5="13000.00000" pt_clust_6="13000.00000" pt_clust_7="13000.00000" pt_clust_8="13000.00000" pt_clust_9="23.24279"></scales>
<clustering>
<clus scale="   23.243">  1  9  2 -1</clus>
<clus scale="   90.284">  5  6 -1 -1</clus>
<clus scale="   92.161">  7  8 -1 -1</clus>
<clus scale="  114.308">  2  5  1 -1</clus>
<clus scale="   23.243">  1  5  2 -1</clus>
</clustering>
</event>
<event>
 9    1  0.1321469E-005  0.2401283E+03  0.7546771E-02  0.1144102E+00
         -1   -1    0    0    0  501 -0.00000000000E+00  0.00000000000E+00  0.91038101667E+03  0.91038101667E+03  0.00000000000E+00 0.  1.
         21   -1    0    0  501  502  0.00000000000E+00 -0.00000000000E+00 -0.14374113317E+03  0.14374113317E+03  0.00000000000E+00 0. -1.
         23    2    1    2    0    0 -0.87020508431E+02  0.65162329029E+02  0.11427594706E+03  0.17471801989E+03  0.75157809871E+02 0.  0.
         23    2    1    2    0    0  0.17941464491E+03  0.13942031977E+03  0.60068689221E+03  0.64905384550E+03  0.93906930068E+02 0.  0.
        -13    1    4    4    0    0  0.10865083713E+03  0.11588387929E+03  0.49380292571E+03  0.51872478959E+03  0.00000000000E+00 0.  1.
         13    1    4    4    0    0  0.70763807778E+02  0.23536440482E+02  0.10688396650E+03  0.13032905592E+03  0.00000000000E+00 0. -1.
        -13    1    3    3    0    0 -0.80441764679E+01  0.47626572215E+02  0.25533504452E+02  0.54634778352E+02  0.00000000000E+00 0. -1.
         13    1    3    3    0    0 -0.78976331963E+02  0.17535756814E+02  0.88742442607E+02  0.12008324153E+03  0.00000000000E+00 0.  1.
         -1    1    1    2    0  502 -0.92394136475E+02 -0.20458264880E+03  0.51677044235E+02  0.23035028445E+03  0.00000000000E+00 0.  1.
<scales pt_clust_5="13000.00000" pt_clust_6="13000.00000" pt_clust_7="13000.00000" pt_clust_8="13000.00000" pt_clust_9="221.00471"></scales>
<clustering>
<clus scale="   75.158">  7  8 -1 -1</clus>
<clus scale="   93.907">  5  6 -1 -1</clus>
<clus scale="  132.164">  1  7  2 -1</clus>
<clus scale="  221.005">  2  9  1 -1</clus>
<clus scale="  221.005">  2  5  1 -1</clus>
</clustering>
</event>
<event>
 9    1  0.1321469E-005  0.1156769E+03  0.7546771E-02  0.1254948E+00
         21   -1    0    0  501  502  0.00000000000E+00  0.00000000000E+00  0.45019854565E+02  0.45019854565E+02  0.00000000000E+00 0. -1.
          1   -1    0    0  502    0 -0.00000000000E+00 -0.00000000000E+00 -0.83213001634E+03  0.83213001634E+03  0.00000000000E+00 0. -1.
         23    2    1    2    0    0  0.63291372408E+02  0.47486872037E+02 -0.48248249467E+03  0.49743275170E+03  0.91592488554E+02 0.  0.
         23    2    1    2    0    0  0.10759806208E+02 -0.34182598164E+02 -0.28012192077E+03  0.30058992817E+03  0.10296499880E+03 0.  0.
        -13    1    3    3    0    0  0.13726878079E+02 -0.27328430935E+02 -0.10053321033E+03  0.10508185714E+03  0.00000000000E+00 0.  1.
         13    1    3    3    0    0  0.49564494328E+02  0.74815302971E+02 -0.38194928434E+03  0.39235089456E+03  0.00000000000E+00 0. -1.
        -13    1    4    4    0    0  0.56725102681E+02 -0.24074674861E+02 -0.17040887896E+03  0.18120848013E+03  0.00000000000E+00 0. -1.
         13    1    4    4    0    0 -0.45965296473E+02 -0.10107923302E+02 -0.10971304181E+03  0.11938144804E+03  0.00000000000E+00 0.  1.
          1    1    1    2  501    0 -0.74051178616E+02 -0.13304273873E+02 -0.24505746336E+02  0.79127191036E+02  0.00000000000E+00 0. -1.
<scales pt_clust_5="13000.00000" pt_clust_6="13000.00000" pt_clust_7="13000.00000" pt_clust_8="13000.00000" pt_clust_9="75.23683"></scales>
<clustering>
<clus scale="   75.237">  1  9  2 -1</clus>
<clus scale="   91.592">  5  6 -1 -1</clus>
<clus scale="  102.965">  7  8 -1 -1</clus>
<clus scale="  105.681">  2  5  1 -1</clus>
<clus scale="   75.237">  1  5  2 -1</clus>
</clustering>
</event>
<event>
 9    1  0.1321469E-005  0.1356453E+03  0.7546771E-02  0.1219341E+00
         21   -1    0    0  501  502  0.00000000000E+00  0.00000000000E+00  0.15689250567E+03  0.15689250567E+03  0.00000000000E+00 0. -1.
          1   -1    0    0  502    0 -0.00000000000E+00 -0.00000000000E+00 -0.24314507072E+03  0.24314507072E+03  0.00000000000E+00 0. -1.
         23    2    1    2    0    0  0.91552620686E+02  0.34317635502E+02 -0.12063190202E+03  0.18041937295E+03  0.91866816039E+02 0.  0.
         23    2    1    2    0    0 -0.81301544941E+02 -0.71391481814E+02 -0.29650696268E+02  0.14492282347E+03  0.91742989316E+02 0.  0.
        -11    1    4    4    0    0 -0.70680386384E+02 -0.35720990312E+01 -0.28425412422E+02  0.76265857251E+02  0.00000000000E+00 0.  1.
         11    1    4    4    0    0 -0.10621158557E+02 -0.67819382783E+02 -0.12252838455E+01  0.68656966221E+02  0.00000000000E+00 0. -1.
        -11    1    3    3    0    0  0.51736268959E+02 -0.26736326441E+02 -0.72840805028E+02  0.93259077598E+02  0.00000000000E+00 0. -1.
         11    1    3    3    0    0  0.39816351727E+02  0.61053961943E+02 -0.47791096990E+02  0.87160295348E+02  0.00000000000E+00 0.  1.
          1    1    1    2  501    0 -0.10251075745E+02  0.37073846312E+02  0.64030033228E+02  0.74695379974E+02  0.00000000000E+00 0. -1.
<scales pt_clust_5="13000.00000" pt_clust_6="13000.00000" pt_clust_7="13000.00000" pt_clust_8="13000.00000" pt_clust_9="38.46498"></scales>
<clustering>
<clus scale="   38.465">  1  9  2 -1</clus>
<clus scale="   91.743">  5  6 -1 -1</clus>
<clus scale="   91.867">  7  8 -1 -1</clus>
<clus scale="  135.561">  1  5  2 -1</clus>
<clus scale="   38.465">  1  5  2 -1</clus>
</clustering>
</event>
<event>
 9    1  0.1321469E-005  0.1345807E+03  0.7546771E-02  0.1221103E+00
         -3   -1    0    0    0  501 -0.00000000000E+00  0.00000000000E+00  0.11787884258E+03  0.11787884258E+03  0.00000000000E+00 0.  1.
         21   -1    0    0  501  502  0.00000000000E+00 -0.00000000000E+00 -0.25761277604E+03  0.25761277604E+03  0.00000000000E+00 0.  1.
         23    2    1    2    0    0 -0.75044968905E+02  0.48837909445E+02 -0.54077806937E+02  0.13843850748E+03  0.90685844509E+02 0.  0.
         23    2    1    2    0    0  0.44385115664E+02 -0.11108504914E+03 -0.67959691218E+02  0.16544377638E+03  0.91886869992E+02 0.  0.
        -13    1    4    4    0    0  0.33335663479E+02 -0.19655462366E+02 -0.62089277320E+02  0.73162025796E+02  0.00000000000E+00 0. -1.
         13    1    4    4    0    0  0.11049452185E+02 -0.91429586775E+02 -0.58704138983E+01  0.92281750584E+02  0.00000000000E+00 0.  1.
        -13    1    3    3    0    0 -0.33712540157E+02  0.71901011389E+02 -0.26817941733E+02  0.83818212826E+02  0.00000000000E+00 0. -1.
         13    1    3    3    0    0 -0.41332428749E+02 -0.23063101944E+02 -0.27259865204E+02  0.54620294658E+02  0.00000000000E+00 0.  1.
         -3    1    1    2    0  502  0.30659853242E+02  0.62247139696E+02 -0.17696435308E+02  0.71609334753E+02  0.00000000000E+00 0.  1.
<scales pt_clust_5="13000.00000" pt_clust_6="13000.00000" pt_clust_7="13000.00000" pt_clust_8="13000.00000" pt_clust_9="69.38831"></scales>
<clustering>
<clus scale="   69.388">  2  9  1 -1</clus>
<clus scale="   90.686">  7  8 -1 -1</clus>
<clus scale="   91.887">  5  6 -1 -1</clus>
<clus scale="  133.764">  1  7  2 -1</clus>
<clus scale="   69.388">  2  5  1 -1</clus>
</clustering>
</event>
<event>
 9    1  0.1321469E-005  0.1058770E+03  0.7546771E-02  0.1268645E+00
          3   -1    0    0  502    0 -0.00000000000E+00  0.00000000000E+00  0.76130532379E+02  0.76130532379E+02  0.00000000000E+00 0. -1.
         21   -1    0    0  501  502  0.00000000000E+00 -0.00000000000E+00 -0.37664679538E+03  0.37664679538E+03  0.00000000000E+00 0. -1.
         23    2    1    2    0    0 -0.46178963052E+01  0.42316432456E+02 -0.86463807858E+01  0.10195889610E+03  0.92243434303E+02 0.  0.
         23    2    1    2    0    0  0.11784782222E+02 -0.71560526117E+02 -0.92158446461E+02  0.14885002116E+03  0.91669839937E+02 0.  0.
        -11    1    3    3    0    0  0.16257445690E+02 -0.25102781846E+02 -0.94892367197E+01  0.31376739956E+02  0.00000000000E+00 0. -1.
         11    1    3    3    0    0 -0.20875341995E+02  0.67419214301E+02  0.84285593391E+00  0.70582156148E+02  0.00000000000E+00 0.  1.
        -13    1    4    4    0    0 -0.23104208242E+02 -0.51212758759E+02 -0.92769785840E+02  0.10845637032E+03  0.00000000000E+00 0.  1.
         13    1    4    4    0    0  0.34888990464E+02 -0.20347767358E+02  0.61133937956E+00  0.40393650836E+02  0.00000000000E+00 0. -1.
          3    1    1    2  501    0 -0.71668859165E+01  0.29244093661E+02 -0.19971143575E+03  0.20196841049E+03  0.00000000000E+00 0. -1.
<scales pt_clust_5="13000.00000" pt_clust_6="13000.00000" pt_clust_7="13000.00000" pt_clust_8="13000.00000" pt_clust_9="30.10949"></scales>
<clustering>
<clus scale="   30.109">  2  9  1 -1</clus>
<clus scale="   91.670">  7  8 -1 -1</clus>
<clus scale="   92.243">  5  6 -1 -1</clus>
<clus scale="  105.378">  2  7  1 -1</clus>
<clus scale="   30.109">  2  5  1 -1</clus>
</clustering>
</event>
<event>
 9    1  0.1321469E-005  0.1031705E+03  0.7546771E-02  0.1274214E+00
         21   -1    0    0  501  502  0.00000000000E+00  0.00000000000E+00  0.36589084256E+03  0.36589084256E+03  0.00000000000E+00 0. -1.
          1   -1    0    0  502    0 -0.00000000000E+00 -0.00000000000E+00 -0.10346866378E+03  0.10346866378E+03  0.00000000000E+00 0. -1.
         23    2    1    2    0    0  0.13828150427E+02  0.46117050831E+02 -0.50786888209E+02  0.11486652540E+03  0.91087927417E+02 0.  0.
         23    2    1    2    0    0 -0.33996055259E+02 -0.30162284239E+02  0.11318776556E+03  0.15282538317E+03  0.92079489063E+02 0.  0.
        -11    1    4    4    0    0  0.30177581852E+02 -0.10227285469E+02  0.56694597469E+02  0.65035076664E+02  0.00000000000E+00 0.  1.
         11    1    4    4    0    0 -0.64173637111E+02 -0.19934998770E+02  0.56493168086E+02  0.87790306506E+02  0.00000000000E+00 0. -1.
        -13    1    3    3    0    0 -0.22508694589E+02 -0.18336540512E+02 -0.13746564035E+02  0.32122236423E+02  0.00000000000E+00 0.  1.
         13    1    3    3    0    0  0.36336845016E+02  0.64453591344E+02 -0.37040324174E+02  0.82744288974E+02  0.00000000000E+00 0. -1.
          1    1    1    2  501    0  0.20167904831E+02 -0.15954766592E+02  0.20002130143E+03  0.20166759777E+03  0.00000000000E+00 0. -1.
<scales pt_clust_5="13000.00000" pt_clust_6="13000.00000" pt_clust_7="13000.00000" pt_clust_8="13000.00000" pt_clust_9="25.71573"></scales>
<clustering>
<clus scale="   25.716">  1  9  2 -1</clus>
<clus scale="   91.088">  7  8 -1 -1</clus>
<clus scale="   92.079">  5  6 -1 -1</clus>
<clus scale="  102.287">  2  7  1 -1</clus>
<clus scale="   25.716">  1  5  2 -1</clus>
</clustering>
</event>
<event>
 9    1  0.1321469E-005  0.2487505E+03  0.7546771E-02  0.1114191E+00
          1   -1    0    0  502    0 -0.00000000000E+00  0.00000000000E+00  0.14070473920E+04  0.14070473920E+04  0.00000000000E+00 0. -1.
         21   -1    0    0  501  502  0.00000000000E+00 -0.00000000000E+00 -0.12530016959E+03  0.12530016959E+03  0.00000000000E+00 0. -1.
         23    2    1    2    0    0  0.18975497544E+03 -0.14433451320E+03  0.92443028454E+03  0.95886541658E+03  0.89510522988E+02 0.  0.
         23    2    1    2    0    0 -0.21120690949E+03  0.80915804949E+02  0.41787320567E+03  0.48320933840E+03  0.87849431377E+02 0.  0.
        -11    1    4    4    0    0 -0.29524475126E+02  0.54107113870E+00  0.13088765988E+02  0.32300204094E+02  0.00000000000E+00 0.  1.
         11    1    4    4    0    0 -0.18168243436E+03  0.80374733810E+02  0.40478443968E+03  0.45090913431E+03  0.00000000000E+00 0. -1.
        -13    1    3    3    0    0  0.17058067572E+03 -0.15554242750E+03  0.86929792787E+03  0.89942765194E+03  0.00000000000E+00 0. -1.
         13    1    3    3    0    0  0.19174299716E+02  0.11207914297E+02  0.55132356674E+02  0.59437764636E+02  0.00000000000E+00 0.  1.
          1    1    1    2  501    0  0.21451934054E+02  0.63418708255E+02 -0.60556267836E+02  0.90272806568E+02  0.00000000000E+00 0. -1.
<scales pt_clust_5="13000.00000" pt_clust_6="13000.00000" pt_clust_7="13000.00000" pt_clust_8="13000.00000" pt_clust_9="66.94862"></scales>
<clustering>
<clus scale="   66.949">  2  9  1 -1</clus>
<clus scale="   87.849">  5  6 -1 -1</clus>
<clus scale="   89.511">  7  8 -1 -1</clus>
<clus scale="  248.158">  2  5  1 -1</clus>
<clus scale="   66.949">  2  5  1 -1</clus>
</clustering>
</event>
<event>
 9    1  0.1321469E-005  0.1047243E+03  0.7546771E-02  0.1272967E+00
         21   -1    0    0  501  502  0.00000000000E+00  0.00000000000E+00  0.28902326114E+03  0.28902326114E+03  0.00000000000E+00 0.  1.
         -4   -1    0    0    0  501 -0.00000000000E+00 -0.00000000000E+00 -0.97368405459E+02  0.97368405459E+02  0.00000000000E+00 0.  1.
         23    2    1    2    0    0  0.20303189496E+02  0.47913516162E+02 -0.73210208033E+01  0.10486182671E+03  0.90744040140E+02 0.  0.
         23    2    1    2    0    0 -0.22767267292E+02 -0.22091285138E+02  0.22737813357E+02  0.10339305484E+03  0.95743105720E+02 0.  0.
        -11    1    4    4    0    0 -0.10560570335E+02  0.23722122679E+02  0.44268011543E+02  0.51321745841E+02  0.00000000000E+00 0.  1.
         11    1    4    4    0    0 -0.12206696957E+02 -0.45813407817E+02 -0.21530198186E+02  0.52071308994E+02  0.00000000000E+00 0. -1.
        -11    1    3    3    0    0  0.52887618641E+02  0.44781406775E+02 -0.15733612388E+02  0.71063500879E+02  0.00000000000E+00 0.  1.
         11    1    3    3    0    0 -0.32584429145E+02  0.31321093864E+01  0.84125915848E+01  0.33798325833E+02  0.00000000000E+00 0. -1.
         -4    1    1    2    0  502  0.24640777957E+01 -0.25822231024E+02  0.17623806313E+03  0.17813678506E+03  0.00000000000E+00 0.  1.
<scales pt_clust_5="13000.00000" pt_clust_6="13000.00000" pt_clust_7="13000.00000" pt_clust_8="13000.00000" pt_clust_9="25.93953"></scales>
<clustering>
<clus scale="   25.940">  1  9  2 -1</clus>
<clus scale="   90.744">  7  8 -1 -1</clus>
<clus scale="   95.743">  5  6 -1 -1</clus>
<clus scale="  100.174">  2  7  1 -1</clus>
<clus scale="   25.940">  1  5  2 -1</clus>
</clustering>
</event>
<event>
 9    1  0.1321469E-005  0.9722299E+02  0.7546771E-02  0.1287857E+00
          4   -1    0    0  502    0 -0.00000000000E+00  0.00000000000E+00  0.12658801503E+03  0.12658801503E+03  0.00000000000E+00 0. -1.
         21   -1    0    0  501  502  0.00000000000E+00 -0.00000000000E+00 -0.14741107972E+03  0.14741107972E+03  0.00000000000E+00 0. -1.
         23    2    1    2    0    0  0.45593553438E+00  0.30737252246E+02  0.58447426853E+02  0.11460991676E+03  0.93671472504E+02 0.  0.
         23    2    1    2    0    0  0.24718909774E+02 -0.66100125346E+01 -0.81342361620E+02  0.12445797162E+03  0.90655888616E+02 0.  0.
        -13    1    4    4    0    0 -0.38296505013E+01 -0.32879419947E+02  0.13373411698E+01  0.33128702969E+02  0.00000000000E+00 0.  1.
         13    1    4    4    0    0  0.28548560276E+02  0.26269407412E+02 -0.82679702790E+02  0.91329268655E+02  0.00000000000E+00 0. -1.
        -13    1    3    3    0    0 -0.34760003624E+02 -0.15864390255E+02  0.12208412201E+02  0.40112118600E+02  0.00000000000E+00 0. -1.
         13    1    3    3    0    0  0.35215939158E+02  0.46601642501E+02  0.46239014652E+02  0.74497798159E+02  0.00000000000E+00 0.  1.
          4    1    1    2  501    0 -0.25174845309E+02 -0.24127239711E+02  0.20718700772E+01  0.34931206363E+02  0.00000000000E+00 0. -1.
<scales pt_clust_5="13000.00000" pt_clust_6="13000.00000" pt_clust_7="13000.00000" pt_clust_8="13000.00000" pt_clust_9="34.86973"></scales>
<clustering>
<clus scale="   34.870">  2  9  1 -1</clus>
<clus scale="   90.656">  5  6 -1 -1</clus>
<clus scale="   93.671">  7  8 -1 -1</clus>
<clus scale="   94.321">  2  5  1 -1</clus>
<clus scale="   34.870">  2  5  1 -1</clus>
</clustering>
</event>
<event>
 9    1  0.1321469E-005  0.1155563E+03  0.7546771E-02  0.1250920E+00
         21   -1    0    0  501  502  0.00000000000E+00  0.00000000000E+00  0.38080580750E+02  0.38080580750E+02  0.00000000000E+00 0.  1.
          1   -1    0    0  502    0 -0.00000000000E+00 -0.00000000000E+00 -0.66603179133E+03  0.66603179133E+03  0.00000000000E+00 0. -1.
         23    2    1    2    0    0  0.57094362507E+02  0.82447128925E+01 -0.19044221792E+03  0.21923360226E+03  0.92018435498E+02 0.  0.
         23    2    1    2    0    0 -0.52918595540E+02 -0.80203034836E+02 -0.24117583087E+03  0.27573253499E+03  0.92896420302E+02 0.  0.
        -11    1    3    3    0    0  0.61749178704E+02 -0.30332130567E+02 -0.10732088160E+03  0.12747851130E+03  0.00000000000E+00 0.  1.
         11    1    3    3    0    0 -0.46548161977E+01  0.38576843460E+02 -0.83121336326E+02  0.91755090963E+02  0.00000000000E+00 0. -1.
        -13    1    4    4    0    0  0.60396670406E+01 -0.72281906840E+02 -0.15357496759E+03  0.16984234544E+03  0.00000000000E+00 0.  1.
         13    1    4    4    0    0 -0.58958262581E+02 -0.79211279960E+01 -0.87600863273E+02  0.10589018954E+03  0.00000000000E+00 0. -1.
          1    1    1    2  501    0 -0.41757669668E+01  0.71958321943E+02 -0.19633316179E+03  0.20914623483E+03  0.00000000000E+00 0. -1.
<scales pt_clust_5="13000.00000" pt_clust_6="13000.00000" pt_clust_7="13000.00000" pt_clust_8="13000.00000" pt_clust_9="72.07942"></scales>
<clustering>
<clus scale="   72.079">  1  9  2 -1</clus>
<clus scale="   92.018">  5  6 -1 -1</clus>
<clus scale="   92.896">  7  8 -1 -1</clus>
<clus scale="  114.852">  2  5  1 -1</clus>
<clus scale="   72.079">  1  5  2 -1</clus>
</clustering>
</event>
<event>
 9    1  0.1321469E-005  0.1388649E+03  0.7546771E-02  0.1215146E+00
          2   -1    0    0  502    0 -0.00000000000E+00  0.00000000000E+00  0.23977483787E+03  0.23977483787E+03  0.00000000000E+00 0. -1.
         21   -1    0    0  501  502  0.00000000000E+00 -0.00000000000E+00 -0.16875786025E+03  0.16875786025E+03  0.00000000000E+00 0.  1.
         23    2    1    2    0    0  0.59792302928E+02 -0.67406912892E+02  0.91560806295E+02  0.15588037922E+03  0.88297791485E+02 0.  0.
         23    2    1    2    0    0 -0.65525479021E+02  0.13840872749E+03  0.35683247720E+01  0.17744910801E+03  0.89581743367E+02 0.  0.
        -13    1    4    4    0    0 -0.34685312298E+02  0.10076606938E+03 -0.38311827179E+02  0.11324604951E+03  0.00000000000E+00 0.  1.
         13    1    4    4    0    0 -0.30840166723E+02  0.37642658105E+02  0.41880151951E+02  0.64203058495E+02  0.00000000000E+00 0. -1.
        -13    1    3    3    0    0 -0.97637930120E+01 -0.31676531292E+02 -0.28753739991E+01  0.33271640541E+02  0.00000000000E+00 0.  1.
         13    1    3    3    0    0  0.69556095940E+02 -0.35730381600E+02  0.94436180294E+02  0.12260873868E+03  0.00000000000E+00 0. -1.
          2    1    1    2  501    0  0.57331760930E+01 -0.71001814594E+02 -0.24112153448E+02  0.75203210887E+02  0.00000000000E+00 0. -1.
<scales pt_clust_5="13000.00000" pt_clust_6="13000.00000" pt_clust_7="13000.00000" pt_clust_8="13000.00000" pt_clust_9="71.23291"></scales>
<clustering>
<clus scale="   71.233">  2  9  1 -1</clus>
<clus scale="   88.298">  7  8 -1 -1</clus>
<clus scale="   89.582">  5  6 -1 -1</clus>
<clus scale="  138.040">  1  7  2 -1</clus>
<clus scale="   71.233">  2  5  1 -1</clus>
</clustering>
</event>
<event>
 9    1  0.1321469E-005  0.9469520E+02  0.7546771E-02  0.1292123E+00
         21   -1    0    0  501  502  0.00000000000E+00  0.00000000000E+00  0.55258907613E+02  0.55258907613E+02  0.00000000000E+00 0. -1.
         -1   -1    0    0    0  501 -0.00000000000E+00 -0.00000000000E+00 -0.27335119942E+03  0.27335119942E+03  0.00000000000E+00 0.  1.
         23    2    1    2    0    0  0.72493322721E+01  0.12344239587E+02 -0.12876587446E+03  0.15805817176E+03  0.90536192562E+02 0.  0.
         23    2    1    2    0    0 -0.80995596712E+01 -0.51956219606E+02 -0.58055557136E+02  0.12007720352E+03  0.91011183205E+02 0.  0.
        -11    1    4    4    0    0  0.24220449341E+02  0.94534093977E+01 -0.41111529295E+02  0.48643138843E+02  0.00000000000E+00 0.  1.
         11    1    4    4    0    0 -0.32320009012E+02 -0.61409629004E+02 -0.16944027841E+02  0.71434064678E+02  0.00000000000E+00 0. -1.
        -13    1    3    3    0    0 -0.35031230831E+02  0.13548158459E+02 -0.22741603799E+02  0.43908088942E+02  0.00000000000E+00 0.  1.
         13    1    3    3    0    0  0.42280563103E+02 -0.12039188720E+01 -0.10602427066E+03  0.11415008281E+03  0.00000000000E+00 0. -1.
         -1    1    1    2    0  502  0.85022739915E+00  0.39611980019E+02 -0.31270860208E+02  0.50474731756E+02  0.00000000000E+00 0.  1.
<scales pt_clust_5="13000.00000" pt_clust_6="13000.00000" pt_clust_7="13000.00000" pt_clust_8="13000.00000" pt_clust_9="39.62110"></scales>
<clustering>
<clus scale="   39.621">  1  9  2 -1</clus>
<clus scale="   90.536">  7  8 -1 -1</clus>
<clus scale="   91.011">  5  6 -1 -1</clus>
<clus scale="   94.239">  2  7  1 -1</clus>
<clus scale="   39.621">  1  5  2 -1</clus>
</clustering>
</event>
<event>
 9    1  0.1321469E-005  0.9976171E+02  0.7546771E-02  0.1282898E+00
         -4   -1    0    0    0  501 -0.00000000000E+00  0.00000000000E+00  0.16726237713E+03  0.16726237713E+03  0.00000000000E+00 0.  1.
         21   -1    0    0  501  502  0.00000000000E+00 -0.00000000000E+00 -0.15063597902E+03  0.15063597902E+03  0.00000000000E+00 0.  1.
         23    2    1    2    0    0  0.36022068313E+02  0.13758235583E+02  0.86740120828E+02  0.13218286559E+03  0.91986862876E+02 0.  0.
         23    2    1    2    0    0 -0.47155375987E+02  0.46246087290E+02 -0.34800777560E+02  0.11520681450E+03  0.87745005070E+02 0.  0.
        -11    1    4    4    0    0 -0.32111082046E+02  0.62500306786E+02  0.41611718339E+01  0.70389809558E+02  0.00000000000E+00 0.  1.
         11    1    4    4    0    0 -0.15044293941E+02 -0.16254219496E+02 -0.38961949394E+02  0.44817004944E+02  0.00000000000E+00 0. -1.
        -13    1    3    3    0    0  0.53254953329E+02 -0.22916596130E+02  0.40620697176E+02  0.70790546482E+02  0.00000000000E+00 0. -1.
         13    1    3    3    0    0 -0.17232885016E+02  0.36674831713E+02  0.46119423653E+02  0.61392319106E+02  0.00000000000E+00 0.  1.
         -4    1    1    2    0  502  0.11133307674E+02 -0.60004322873E+02 -0.35312945163E+02  0.70508676057E+02  0.00000000000E+00 0.  1.
<scales pt_clust_5="13000.00000" pt_clust_6="13000.00000" pt_clust_7="13000.00000" pt_clust_8="13000.00000" pt_clust_9="61.02843"></scales>
<clustering>
<clus scale="   61.028">  2  9  1 -1</clus>
<clus scale="   87.745">  5  6 -1 -1</clus>
<clus scale="   91.987">  7  8 -1 -1</clus>
<clus scale="   95.864">  2  5  1 -1</clus>
<clus scale="   61.028">  2  5  1 -1</clus>
</clustering>
</event>
<event>
 9    1  0.1321469E-005  0.9695662E+02  0.7546771E-02  0.1287501E+00
          1   -1    0    0  502    0 -0.00000000000E+00  0.00000000000E+00  0.17724040876E+03  0.17724040876E+03  0.00000000000E+00 0. -1.
         21   -1    0    0  501  502  0.00000000000E+00 -0.00000000000E+00 -0.96036726409E+02  0.96036726409E+02  0.00000000000E+00 0. -1.
         23    2    1    2    0    0  0.19508953554E+02 -0.47442009059E+02  0.82441144081E+02  0.13314867967E+03  0.91108096056E+02 0.  0.
         23    2    1    2    0    0 -0.47677405502E+01  0.49504298631E+01  0.16876931098E+02  0.91641664614E+02  0.89811612746E+02 0.  0.
        -13    1    3    3    0    0 -0.54702438818E+01 -0.47285994889E+02  0.94196769540E+02  0.10554108334E+03  0.00000000000E+00 0. -1.
         13    1    3    3    0    0  0.24979197435E+02 -0.15601417097E+00 -0.11755625460E+02  0.27607596326E+02  0.00000000000E+00 0.  1.
        -13    1    4    4    0    0 -0.36655297478E+02  0.29943955823E+02  0.19159458573E+02  0.51062081590E+02  0.00000000000E+00 0.  1.
         13    1    4    4    0    0  0.31887556927E+02 -0.24993525960E+02 -0.22825274749E+01  0.40579583024E+02  0.00000000000E+00 0. -1.
          1    1    1    2  501    0 -0.14741213003E+02  0.42491579196E+02 -0.18114392827E+02  0.48486790891E+02  0.00000000000E+00 0. -1.
<scales pt_clust_5="13000.00000" pt_clust_6="13000.00000" pt_clust_7="13000.00000" pt_clust_8="13000.00000" pt_clust_9="44.97597"></scales>
<clustering>
<clus scale="   44.976">  2  9  1 -1</clus>
<clus scale="   89.812">  7  8 -1 -1</clus>
<clus scale="   91.108">  5  6 -1 -1</clus>
<clus scale="   95.739">  2  7  1 -1</clus>
<clus scale="   44.976">  2  5  1 -1</clus>
</clustering>
</event>
<event>
 9    1  0.1321469E-005  0.1133036E+03  0.7546771E-02  0.1255021E+00
         21   -1    0    0  501  502  0.00000000000E+00  0.00000000000E+00  0.17326248118E+03  0.17326248118E+03  0.00000000000E+00 0. -1.
          1   -1    0    0  502    0 -0.00000000000E+00 -0.00000000000E+00 -0.34869005387E+03  0.34869005387E+03  0.00000000000E+00 0. -1.
         23    2    1    2    0    0 -0.62119754563E+02  0.35669492346E+02 -0.28658669148E+03  0.30925325217E+03  0.91512106599E+02 0.  0.
         23    2    1    2    0    0  0.36119652859E+02 -0.26860263792E+02  0.27867117233E+01  0.10090399492E+03  0.90264873207E+02 0.  0.
        -11    1    4    4    0    0  0.60410610128E+01 -0.25303191689E+02  0.43244482044E+02  0.50466138698E+02  0.00000000000E+00 0.  1.
         11    1    4    4    0    0  0.30078591846E+02 -0.15570721027E+01 -0.40457770321E+02  0.50437856222E+02  0.00000000000E+00 0. -1.
        -13    1    3    3    0    0 -0.37274960013E+02  0.64958399597E+02 -0.15448796087E+03  0.17168443837E+03  0.00000000000E+00 0.  1.
         13    1    3    3    0    0 -0.24844794550E+02 -0.29288907250E+02 -0.13209873061E+03  0.13756881381E+03  0.00000000000E+00 0. -1.
          1    1    1    2  501    0  0.26000101705E+02 -0.88092285542E+01  0.10837240706E+03  0.11179528795E+03  0.00000000000E+00 0. -1.
<scales pt_clust_5="13000.00000" pt_clust_6="13000.00000" pt_clust_7="13000.00000" pt_clust_8="13000.00000" pt_clust_9="27.45192"></scales>
<clustering>
<clus scale="   27.452">  1  9  2 -1</clus>
<clus scale="   90.265">  5  6 -1 -1</clus>
<clus scale="   91.512">  7  8 -1 -1</clus>
<clus scale="  112.299">  1  5  2 -1</clus>
<clus scale="   27.452">  1  5  2 -1</clus>
</clustering>
</event>
<event>
 9    1  0.1321469E-005  0.1458322E+03  0.7546771E-02  0.1206098E+00
         -3   -1    0    0    0  501 -0.00000000000E+00  0.00000000000E+00  0.28668106933E+03  0.28668106933E+03  0.00000000000E+00 0.  1.
         21   -1    0    0  501  502  0.00000000000E+00 -0.00000000000E+00 -0.16426060152E+03  0.16426060152E+03  0.00000000000E+00 0. -1.
         23    2    1    2    0    0 -0.11588784663E+03  0.39536521951E+02  0.20527047072E+03  0.25652081241E+03  0.93133406922E+02 0.  0.
         23    2    1    2    0    0  0.63666901542E+02 -0.49226851943E+02 -0.47006828092E+02  0.13034541243E+03  0.91123692577E+02 0.  0.
        -13    1    3    3    0    0 -0.92697736232E+02  0.15895381844E+02  0.69961790004E+02  0.11721853747E+03  0.00000000000E+00 0. -1.
         13    1    3    3    0    0 -0.23190110401E+02  0.23641140107E+02  0.13530868072E+03  0.13930227494E+03  0.00000000000E+00 0.  1.
        -13    1    4    4    0    0 -0.11878575451E+02  0.16306540686E+02 -0.83165852267E+00  0.20191470471E+02  0.00000000000E+00 0.  1.
         13    1    4    4    0    0  0.75545476993E+02 -0.65533392628E+02 -0.46175169569E+02  0.11015394195E+03  0.00000000000E+00 0. -1.
         -3    1    1    2    0  502  0.52220945091E+02  0.96903299916E+01 -0.35843174811E+02  0.64075446015E+02  0.00000000000E+00 0.  1.
<scales pt_clust_5="13000.00000" pt_clust_6="13000.00000" pt_clust_7="13000.00000" pt_clust_8="13000.00000" pt_clust_9="53.11242"></scales>
<clustering>
<clus scale="   53.112">  2  9  1 -1</clus>
<clus scale="   91.124">  7  8 -1 -1</clus>
<clus scale="   93.133">  5  6 -1 -1</clus>
<clus scale="  144.557">  2  7  1 -1</clus>
<clus scale="   53.112">  2  5  1 -1</clus>
</clustering>
</event>
<event>
 9    1  0.1321469E-005  0.1112669E+03  0.7546771E-02  0.1258401E+00
         -2   -1    0    0    0  501 -0.00000000000E+00  0.00000000000E+00  0.22072703419E+03  0.22072703419E+03  0.00000000000E+00 0.  1.
         21   -1    0    0  501  502  0.00000000000E+00 -0.00000000000E+00 -0.18481670550E+03  0.18481670550E+03  0.00000000000E+00 0.  1.
         23    2    1    2    0    0 -0.29359565249E+02 -0.52150218701E+02  0.12767734860E+03  0.16869784944E+03  0.92605775619E+02 0.  0.
         23    2    1    2    0    0  0.92884667191E+02  0.11659089181E+02 -0.21276429305E+02  0.13367664333E+03  0.93022915292E+02 0.  0.
        -13    1    4    4    0    0  0.18334717576E+01 -0.26393267988E+02 -0.22884143266E+02  0.34980712211E+02  0.00000000000E+00 0. -1.
         13    1    4    4    0    0  0.91051195433E+02  0.38052357170E+02  0.16077139610E+01  0.98695931122E+02  0.00000000000E+00 0.  1.
        -13    1    3    3    0    0 -0.46497962890E+02 -0.67357282522E+02  0.11849413845E+03  0.14401362751E+03  0.00000000000E+00 0.  1.
         13    1    3    3    0    0  0.17138397640E+02  0.15207063821E+02  0.91832101541E+01  0.24684221933E+02  0.00000000000E+00 0. -1.
         -2    1    1    2    0  502 -0.63525101941E+02  0.40491129520E+02 -0.70490590605E+02  0.10316924692E+03  0.00000000000E+00 0.  1.
<scales pt_clust_5="13000.00000" pt_clust_6="13000.00000" pt_clust_7="13000.00000" pt_clust_8="13000.00000" pt_clust_9="75.33240"></scales>
<clustering>
<clus scale="   75.332">  2  9  1 -1</clus>
<clus scale="   92.606">  7  8 -1 -1</clus>
<clus scale="   93.023">  5  6 -1 -1</clus>
<clus scale="  110.918">  1  7  2 -1</clus>
<clus scale="   75.332">  2  5  1 -1</clus>
</clustering>
</event>
<event>
 9    1  0.1321469E-005  0.9302031E+02  0.7546771E-02  0.1298599E+00
          1   -1    0    0  502    0 -0.00000000000E+00  0.00000000000E+00  0.96484581977E+02  0.96484581977E+02  0.00000000000E+00 0. -1.
         21   -1    0    0  501  502  0.00000000000E+00 -0.00000000000E+00 -0.12090664873E+03  0.12090664873E+03  0.00000000000E+00 0.  1.
         23    2    1    2    0    0 -0.15466282028E+02  0.17482852859E+02  0.79366311770E+01  0.90539865548E+02  0.87118431547E+02 0.  0.
         23    2    1    2    0    0  0.71411153770E+01  0.11005861281E+02 -0.25011701765E+02  0.96275335565E+02  0.92039287816E+02 0.  0.
        -11    1    3    3    0    0  0.17982002834E+02  0.19501713241E+02 -0.29918090687E+02  0.39984514448E+02  0.00000000000E+00 0.  1.
         11    1    3    3    0    0 -0.33448284862E+02 -0.20188603829E+01  0.37854721864E+02  0.50555351100E+02  0.00000000000E+00 0. -1.
        -13    1    4    4    0    0  0.29033062127E+02 -0.22486762439E+02  0.15019599066E+02  0.39675704626E+02  0.00000000000E+00 0. -1.
         13    1    4    4    0    0 -0.21891946750E+02  0.33492623720E+02 -0.40031300831E+02  0.56599630939E+02  0.00000000000E+00 0.  1.
          1    1    1    2  501    0  0.83251666512E+01 -0.28488714139E+02 -0.73469961652E+01  0.30576029594E+02  0.00000000000E+00 0. -1.
<scales pt_clust_5="13000.00000" pt_clust_6="13000.00000" pt_clust_7="13000.00000" pt_clust_8="13000.00000" pt_clust_9="29.68022"></scales>
<clustering>
<clus scale="   29.680">  2  9  1 -1</clus>
<clus scale="   87.118">  5  6 -1 -1</clus>
<clus scale="   88.154">  1  5  2 -1</clus>
<clus scale="   92.039">  7  8 -1 -1</clus>
<clus scale="   29.680">  2  5  1 -1</clus>
</clustering>
</event>
<event>
 9    1  0.1321469E-005  0.1007960E+03  0.7546771E-02  0.1280934E+00
         21   -1    0    0  501  502  0.00000000000E+00  0.00000000000E+00  0.56863682573E+02  0.56863682573E+02  0.00000000000E+00 0.  1.
          1   -1    0    0  502    0 -0.00000000000E+00 -0.00000000000E+00 -0.40940005334E+03  0.40940005334E+03  0.00000000000E+00 0. -1.
         23    2    1    2    0    0 -0.11371920283E+02  0.33204177105E+02 -0.27827906057E+03  0.29381831029E+03  0.87510719141E+02 0.  0.
         23    2    1    2    0    0  0.41352233395E+02 -0.48878694309E+02 -0.80335901168E+02  0.13807306853E+03  0.92256063611E+02 0.  0.
        -13    1    3    3    0    0  0.36283409183E+02  0.11193570745E+02 -0.15949280640E+03  0.16395041049E+03  0.00000000000E+00 0. -1.
         13    1    3    3    0    0 -0.47655329466E+02  0.22010606360E+02 -0.11878625417E+03  0.12986789980E+03  0.00000000000E+00 0.  1.
        -13    1    4    4    0    0 -0.33206570659E+01 -0.57193347933E+02 -0.16319109662E+02  0.59568608774E+02  0.00000000000E+00 0.  1.
         13    1    4    4    0    0  0.44672890461E+02  0.83146536239E+01 -0.64016791506E+02  0.78504459757E+02  0.00000000000E+00 0. -1.
          1    1    1    2  501    0 -0.29980313112E+02  0.15674517205E+02  0.60785909663E+01  0.34372357091E+02  0.00000000000E+00 0. -1.
<scales pt_clust_5="13000.00000" pt_clust_6="13000.00000" pt_clust_7="13000.00000" pt_clust_8="13000.00000" pt_clust_9="33.83060"></scales>
<clustering>
<clus scale="   33.831">  1  9  2 -1</clus>
<clus scale="   87.511">  5  6 -1 -1</clus>
<clus scale="   92.256">  7  8 -1 -1</clus>
<clus scale="   96.472">  2  5  1 -1</clus>
<clus scale="   33.831">  1  5  2 -1</clus>
</clustering>
</event>
<event>
 9    1  0.1321469E-005  0.1004483E+03  0.7546771E-02  0.1279832E+00
         21   -1    0    0  501  502  0.00000000000E+00  0.00000000000E+00  0.54036000596E+02  0.54036000596E+02  0.00000000000E+00 0.  1.
          1   -1    0    0  502    0 -0.00000000000E+00 -0.00000000000E+00 -0.67551152193E+03  0.67551152193E+03  0.00000000000E+00 0. -1.
         23    2    1    2    0    0  0.28686617708E+01 -0.31769518091E+02 -0.32001931483E+03  0.33430998360E+03  0.91286755737E+02 0.  0.
         23    2    1    2    0    0 -0.17146986485E+02  0.99369637945E+02 -0.67416904873E+02  0.15121286503E+03  0.90288135415E+02 0.  0.
        -13    1    3    3    0    0  0.39946183387E+02 -0.12114991360E+02 -0.76005163455E+02  0.86713640534E+02  0.00000000000E+00 0.  1.
         13    1    3    3    0    0 -0.37077521617E+02 -0.19654526731E+02 -0.24401415138E+03  0.24759634307E+03  0.00000000000E+00 0. -1.
        -13    1    4    4    0    0  0.20345375714E+02  0.41180294543E+02  0.10367468406E+02  0.47087528845E+02  0.00000000000E+00 0.  1.
         13    1    4    4    0    0 -0.37492362199E+02  0.58189343402E+02 -0.77784373279E+02  0.10412533618E+03  0.00000000000E+00 0. -1.
          1    1    1    2  501    0  0.14278324714E+02 -0.67600119855E+02 -0.23403930163E+03  0.24402467390E+03  0.00000000000E+00 0. -1.
<scales pt_clust_5="13000.00000" pt_clust_6="13000.00000" pt_clust_7="13000.00000" pt_clust_8="13000.00000" pt_clust_9="69.09162"></scales>
<clustering>
<clus scale="   69.092">  1  9  2 -1</clus>
<clus scale="   90.288">  7  8 -1 -1</clus>
<clus scale="   91.287">  5  6 -1 -1</clus>
<clus scale="   99.542">  1  7  2 -1</clus>
<clus scale="   69.092">  1  5  2 -1</clus>
</clustering>
</event>
<event>
 9    1  0.1321469E-005  0.1011750E+03  0.7546771E-02  0.1278694E+00
          2   -1    0    0  502    0 -0.00000000000E+00  0.00000000000E+00  0.65600584943E+02  0.65600584943E+02  0.00000000000E+00 0. -1.
         21   -1    0    0  501  502  0.00000000000E+00 -0.00000000000E+00 -0.26773707208E+03  0.26773707208E+03  0.00000000000E+00 0.  1.
         23    2    1    2    0    0  0.11413719692E+02  0.27160609095E+02 -0.20774376029E+02  0.98271881274E+02  0.91421093114E+02 0.  0.
         23    2    1    2    0    0 -0.29566248207E+02 -0.54854068064E+02 -0.11335763874E+03  0.15942815136E+03  0.93189320038E+02 0.  0.
        -11    1    4    4    0    0 -0.48558820997E+02 -0.70602575592E+02 -0.98793075664E+02  0.13077750027E+03  0.00000000000E+00 0.  1.
         11    1    4    4    0    0  0.18992572790E+02  0.15748507528E+02 -0.14564563078E+02  0.28650651095E+02  0.00000000000E+00 0. -1.
        -13    1    3    3    0    0 -0.12612700938E+02  0.37305337787E+02 -0.46978908466E+02  0.61300785419E+02  0.00000000000E+00 0. -1.
         13    1    3    3    0    0  0.24026420630E+02 -0.10144728692E+02  0.26204532437E+02  0.36971095855E+02  0.00000000000E+00 0.  1.
          2    1    1    2  501    0  0.18152528515E+02  0.27693458970E+02 -0.68004472365E+02  0.75637624386E+02  0.00000000000E+00 0. -1.
<scales pt_clust_5="13000.00000" pt_clust_6="13000.00000" pt_clust_7="13000.00000" pt_clust_8="13000.00000" pt_clust_9="33.11257"></scales>
<clustering>
<clus scale="   33.113">  2  9  1 -1</clus>
<clus scale="   91.421">  7  8 -1 -1</clus>
<clus scale="   93.189">  5  6 -1 -1</clus>
<clus scale="   99.549">  1  7  2 -1</clus>
<clus scale="   33.113">  2  5  1 -1</clus>
</clustering>
</event>
<event>
 9    1  0.1321469E-005  0.1038952E+03  0.7546771E-02  0.1272781E+00
         21   -1    0    0  501  502  0.00000000000E+00  0.00000000000E+00  0.29154047822E+02  0.29154047822E+02  0.00000000000E+00 0. -1.
          2   -1    0    0  502    0 -0.00000000000E+00 -0.00000000000E+00 -0.73708509022E+03  0.73708509022E+03  0.00000000000E+00 0. -1.
         23    2    1    2    0    0 -0.45858157531E+02  0.17579710033E+02 -0.57340453893E+03  0.58296390515E+03  0.92963071273E+02 0.  0.
         23    2    1    2    0    0  0.25161635445E+02 -0.30511589328E+02 -0.10798336647E+03  0.14721808867E+03  0.91916773299E+02 0.  0.
        -11    1    4    4    0    0  0.58019197155E+02 -0.47131945487E+01 -0.59983707074E+02  0.83585205364E+02  0.00000000000E+00 0.  1.
         11    1    4    4    0    0 -0.32857561710E+02 -0.25798394779E+02 -0.47999659400E+02  0.63632883302E+02  0.00000000000E+00 0. -1.
        -13    1    3    3    0    0 -0.66320225962E+02  0.37770717209E+02 -0.40684178586E+03  0.41393868891E+03  0.00000000000E+00 0. -1.
         13    1    3    3    0    0  0.20462068431E+02 -0.20191007176E+02 -0.16656275307E+03  0.16902521624E+03  0.00000000000E+00 0.  1.
          2    1    1    2  501    0  0.20696522086E+02  0.12931879295E+02 -0.26543136989E+02  0.36057144226E+02  0.00000000000E+00 0. -1.
<scales pt_clust_5="13000.00000" pt_clust_6="13000.00000" pt_clust_7="13000.00000" pt_clust_8="13000.00000" pt_clust_9="24.40450"></scales>
<clustering>
<clus scale="   24.404">  1  9  2 -1</clus>
<clus scale="   91.917">  5  6 -1 -1</clus>
<clus scale="   92.963">  7  8 -1 -1</clus>
<clus scale="  102.960">  1  5  2 -1</clus>
<clus scale="   24.404">  1  5  2 -1</clus>
</clustering>
</event>
<event>
 9    1  0.1321469E-005  0.1960611E+03  0.7546771E-02  0.1153783E+00
         21   -1    0    0  501  502  0.00000000000E+00  0.00000000000E+00  0.96848707242E+02  0.96848707242E+02  0.00000000000E+00 0.  1.
         -1   -1    0    0    0  501 -0.00000000000E+00 -0.00000000000E+00 -0.50940736468E+03  0.50940736468E+03  0.00000000000E+00 0.  1.
         23    2    1    2    0    0  0.14694161807E+03  0.11369971339E+03 -0.25543370080E+03  0.32830272947E+03  0.89536823320E+02 0.  0.
         23    2    1    2    0    0 -0.13101165932E+03 -0.82035675141E+02 -0.16009982517E+03  0.24238334461E+03  0.96040745773E+02 0.  0.
        -13    1    3    3    0    0  0.11208992119E+03  0.12384227333E+03 -0.22878521516E+03  0.28327324931E+03  0.00000000000E+00 0.  1.
         13    1    3    3    0    0  0.34851696873E+02 -0.10142559943E+02 -0.26648485640E+02  0.45029480166E+02  0.00000000000E+00 0. -1.
        -13    1    4    4    0    0 -0.22814068064E+02 -0.68951071762E+02 -0.56525454200E+02  0.92031836727E+02  0.00000000000E+00 0. -1.
         13    1    4    4    0    0 -0.10819759126E+03 -0.13084603379E+02 -0.10357437097E+03  0.15035150788E+03  0.00000000000E+00 0.  1.
         -1    1    1    2    0  502 -0.15929958742E+02 -0.31664038246E+02  0.29748685347E+01  0.35569997841E+02  0.00000000000E+00 0.  1.
<scales pt_clust_5="13000.00000" pt_clust_6="13000.00000" pt_clust_7="13000.00000" pt_clust_8="13000.00000" pt_clust_9="35.44538"></scales>
<clustering>
<clus scale="   35.445">  1  9  2 -1</clus>
<clus scale="   89.537">  5  6 -1 -1</clus>
<clus scale="   96.041">  7  8 -1 -1</clus>
<clus scale="  192.958">  2  5  1 -1</clus>
<clus scale="   35.445">  1  5  2 -1</clus>
</clustering>
</event>
<event>
 9    1  0.1321469E-005  0.1000711E+03  0.7546771E-02  0.1280412E+00
         -1   -1    0    0    0  501 -0.00000000000E+00  0.00000000000E+00  0.57026749345E+02  0.57026749345E+02  0.00000000000E+00 0.  1.
         21   -1    0    0  501  502  0.00000000000E+00 -0.00000000000E+00 -0.31209239993E+03  0.31209239993E+03  0.00000000000E+00 0. -1.
         23    2    1    2    0    0 -0.15702462331E+02 -0.46839029959E+02 -0.39374619389E+02  0.11033540142E+03  0.90460367579E+02 0.  0.
         23    2    1    2    0    0  0.45593553811E+01  0.30009539139E+02 -0.90219557742E+02  0.13169916483E+03  0.91015060603E+02 0.  0.
        -13    1    4    4    0    0 -0.12454679944E+02 -0.28635175499E+02 -0.14508746097E+02  0.34432485267E+02  0.00000000000E+00 0.  1.
         13    1    4    4    0    0  0.17014035325E+02  0.58644714638E+02 -0.75710811644E+02  0.97266679561E+02  0.00000000000E+00 0. -1.
        -13    1    3    3    0    0  0.10915239535E+02 -0.67904632300E+02 -0.30588627320E+02  0.75271811877E+02  0.00000000000E+00 0.  1.
         13    1    3    3    0    0 -0.26617701866E+02  0.21065602341E+02 -0.87859920697E+01  0.35063589538E+02  0.00000000000E+00 0. -1.
         -1    1    1    2    0  502  0.11143106950E+02  0.16829490820E+02 -0.12547147346E+03  0.12708458303E+03  0.00000000000E+00 0.  1.
<scales pt_clust_5="13000.00000" pt_clust_6="13000.00000" pt_clust_7="13000.00000" pt_clust_8="13000.00000" pt_clust_9="20.18417"></scales>
<clustering>
<clus scale="   20.184">  2  9  1 -1</clus>
<clus scale="   90.460">  7  8 -1 -1</clus>
<clus scale="   91.015">  5  6 -1 -1</clus>
<clus scale="   99.567">  1  7  2 -1</clus>
<clus scale="   20.184">  2  5  1 -1</clus>
</clustering>
</event>
<event>
 9    1  0.1321469E-005  0.1291190E+03  0.7546771E-02  0.1229224E+00
          1   -1    0    0  502    0 -0.00000000000E+00  0.00000000000E+00  0.95429924890E+02  0.95429924890E+02  0.00000000000E+00 0. -1.
         21   -1    0    0  501  502  0.00000000000E+00 -0.00000000000E+00 -0.40954137848E+03  0.40954137848E+03  0.00000000000E+00 0.  1.
         23    2    1    2    0    0 -0.81335486529E+02 -0.12217037873E+02  0.24225190772E+01  0.12415932149E+03  0.92978229336E+02 0.  0.
         23    2    1    2    0    0  0.11072755500E+03 -0.81195820611E+00 -0.13694188758E+03  0.19836482391E+03  0.91292234479E+02 0.  0.
        -13    1    4    4    0    0  0.12417259659E+02 -0.25332356325E+02 -0.24714372615E+00  0.28213076657E+02  0.00000000000E+00 0. -1.
         13    1    4    4    0    0  0.98310295343E+02  0.24520398119E+02 -0.13669474385E+03  0.17015174725E+03  0.00000000000E+00 0.  1.
        -13    1    3    3    0    0 -0.46242559011E+02  0.40050494642E+02  0.17389667247E+01  0.61200003188E+02  0.00000000000E+00 0.  1.
         13    1    3    3    0    0 -0.35092927518E+02 -0.52267532515E+02  0.68355235249E+00  0.62959318300E+02  0.00000000000E+00 0. -1.
          1    1    1    2  501    0 -0.29392068473E+02  0.13028996079E+02 -0.17959208509E+03  0.18244715798E+03  0.00000000000E+00 0. -1.
<scales pt_clust_5="13000.00000" pt_clust_6="13000.00000" pt_clust_7="13000.00000" pt_clust_8="13000.00000" pt_clust_9="32.15040"></scales>
<clustering>
<clus scale="   32.150">  2  9  1 -1</clus>
<clus scale="   91.292">  5  6 -1 -1</clus>
<clus scale="   92.978">  7  8 -1 -1</clus>
<clus scale="  127.910">  2  5  1 -1</clus>
<clus scale="   32.150">  2  5  1 -1</clus>
</clustering>
</event>
<event>
 9    1  0.1321469E-005  0.9404684E+02  0.7546771E-02  0.1293911E+00
         21   -1    0    0  501  502  0.00000000000E+00  0.00000000000E+00  0.34281744243E+03  0.34281744243E+03  0.00000000000E+00 0.  1.
         -3   -1    0    0    0  501 -0.00000000000E+00 -0.00000000000E+00 -0.77328590600E+02  0.77328590600E+02  0.00000000000E+00 0.  1.
         23    2    1    2    0    0 -0.90911678943E+01  0.17526628467E+02 -0.20599000709E+02  0.97073669244E+02  0.92785485886E+02 0.  0.
         23    2    1    2    0    0 -0.18425397790E+02 -0.70206713126E+01  0.11030186893E+03  0.14483586764E+03  0.91772224327E+02 0.  0.
        -11    1    4    4    0    0 -0.40729009884E+02 -0.56228978213E+01  0.10325111440E+02  0.42391946786E+02  0.00000000000E+00 0.  1.
         11    1    4    4    0    0  0.22303612094E+02 -0.13977734913E+01  0.99976757487E+02  0.10244392086E+03  0.00000000000E+00 0. -1.
        -11    1    3    3    0    0 -0.11189521424E+02  0.48516210749E+02 -0.36921302457E+02  0.61985568242E+02  0.00000000000E+00 0.  1.
         11    1    3    3    0    0  0.20983535296E+01 -0.30989582283E+02  0.16322301747E+02  0.35088101002E+02  0.00000000000E+00 0. -1.
         -3    1    1    2    0  502  0.27516565684E+02 -0.10505957154E+02  0.17578598361E+03  0.17823649614E+03  0.00000000000E+00 0.  1.
<scales pt_clust_5="13000.00000" pt_clust_6="13000.00000" pt_clust_7="13000.00000" pt_clust_8="13000.00000" pt_clust_9="29.45397"></scales>
<clustering>
<clus scale="   29.454">  1  9  2 -1</clus>
<clus scale="   91.772">  5  6 -1 -1</clus>
<clus scale="   92.785">  7  8 -1 -1</clus>
<clus scale="   93.047">  1  5  2 -1</clus>
<clus scale="   29.454">  1  5  2 -1</clus>
</clustering>
</event>
<event>
 9    1  0.1321469E-005  0.1097471E+03  0.7546771E-02  0.1262199E+00
         21   -1    0    0  501  502  0.00000000000E+00  0.00000000000E+00  0.79321491804E+03  0.79321491804E+03  0.00000000000E+00 0.  1.
          2   -1    0    0  502    0 -0.00000000000E+00 -0.00000000000E+00 -0.39601614495E+02  0.39601614495E+02  0.00000000000E+00 0. -1.
         23    2    1    2    0    0 -0.44913301740E+02  0.28151570589E+02  0.69458153012E+02  0.12853016548E+03  0.94264801583E+02 0.  0.
         23    2    1    2    0    0  0.40667689978E+02 -0.70853798114E+02  0.54744501909E+03  0.56099936313E+03  0.91378962539E+02 0.  0.
        -11    1    3    3    0    0  0.29415386592E+02  0.12806328719E+02  0.23951412619E+02  0.40036698041E+02  0.00000000000E+00 0.  1.
         11    1    3    3    0    0 -0.74328688333E+02  0.15345241871E+02  0.45506740393E+02  0.88493467434E+02  0.00000000000E+00 0. -1.
        -13    1    4    4    0    0 -0.16252966114E+02 -0.62073044722E+02  0.32052429236E+03  0.32688383836E+03  0.00000000000E+00 0.  1.
         13    1    4    4    0    0  0.56920656092E+02 -0.87807533927E+01  0.22692072672E+03  0.23411552477E+03  0.00000000000E+00 0. -1.
          2    1    1    2  501    0  0.42456117628E+01  0.42702227525E+02  0.13671013145E+03  0.14328700393E+03  0.00000000000E+00 0. -1.
<scales pt_clust_5="13000.00000" pt_clust_6="13000.00000" pt_clust_7="13000.00000" pt_clust_8="13000.00000" pt_clust_9="42.91277"></scales>
<clustering>
<clus scale="   42.913">  1  9  2 -1</clus>
<clus scale="   91.379">  7  8 -1 -1</clus>
<clus scale="   94.265">  5  6 -1 -1</clus>
<clus scale="  107.279">  1  7  2 -1</clus>
<clus scale="   42.913">  1  5  2 -1</clus>
</clustering>
</event>
<event>
 9    1  0.1321469E-005  0.1135107E+03  0.7546771E-02  0.1255287E+00
         21   -1    0    0  501  502  0.00000000000E+00  0.00000000000E+00  0.37184228343E+02  0.37184228343E+02  0.00000000000E+00 0. -1.
          1   -1    0    0  502    0 -0.00000000000E+00 -0.00000000000E+00 -0.66556342348E+03  0.66556342348E+03  0.00000000000E+00 0. -1.
         23    2    1    2    0    0  0.80341643959E+01 -0.45404282626E+02 -0.25539341870E+03  0.27475871506E+03  0.90224478417E+02 0.  0.
         23    2    1    2    0    0 -0.13498815730E+02  0.84137666028E+02 -0.36737815473E+03  0.38847206916E+03  0.93179799690E+02 0.  0.
        -11    1    4    4    0    0 -0.29761153820E+02  0.35002930962E+01 -0.35047606125E+02  0.46111961827E+02  0.00000000000E+00 0.  1.
         11    1    4    4    0    0  0.16262338091E+02  0.80637372932E+02 -0.33233054861E+03  0.34236010733E+03  0.00000000000E+00 0. -1.
        -11    1    3    3    0    0  0.40134800166E+02  0.22894540402E+01 -0.70762073841E+02  0.81383750703E+02  0.00000000000E+00 0. -1.
         11    1    3    3    0    0 -0.32100635770E+02 -0.47693736666E+02 -0.18463134486E+03  0.19337496435E+03  0.00000000000E+00 0.  1.
          1    1    1    2  501    0  0.54646513336E+01 -0.38733383403E+02 -0.56076216988E+01  0.39516867603E+02  0.00000000000E+00 0. -1.
<scales pt_clust_5="13000.00000" pt_clust_6="13000.00000" pt_clust_7="13000.00000" pt_clust_8="13000.00000" pt_clust_9="39.11697"></scales>
<clustering>
<clus scale="   39.117">  1  9  2 -1</clus>
<clus scale="   90.224">  7  8 -1 -1</clus>
<clus scale="   93.180">  5  6 -1 -1</clus>
<clus scale="  111.097">  2  7  1 -1</clus>
<clus scale="   39.117">  1  5  2 -1</clus>
</clustering>
</event>
<event>
 9    1  0.1321469E-005  0.1075200E+03  0.7546771E-02  0.1266298E+00
         21   -1    0    0  501  502  0.00000000000E+00  0.00000000000E+00  0.61665785025E+02  0.61665785025E+02  0.00000000000E+00 0. -1.
         -3   -1    0    0    0  501 -0.00000000000E+00 -0.00000000000E+00 -0.27561757052E+03  0.27561757052E+03  0.00000000000E+00 0.  1.
         23    2    1    2    0    0 -0.17625720855E+02 -0.40479065765E+02 -0.11443707451E+03  0.15386999335E+03  0.92902691193E+02 0.  0.
         23    2    1    2    0    0  0.31028411406E+02  0.66405796825E+02 -0.51497259578E+02  0.12722169789E+03  0.90337702561E+02 0.  0.
        -11    1    4    4    0    0 -0.89191729484E+01 -0.19134755356E+02 -0.15468658332E+02  0.26171929604E+02  0.00000000000E+00 0.  1.
         11    1    4    4    0    0  0.39947584355E+02  0.85540552181E+02 -0.36028601246E+02  0.10104976829E+03  0.00000000000E+00 0. -1.
        -11    1    3    3    0    0  0.24552811124E+02 -0.53375549706E+02 -0.65807259806E+02  0.88217828604E+02  0.00000000000E+00 0.  1.
         11    1    3    3    0    0 -0.42178531979E+02  0.12896483941E+02 -0.48629814707E+02  0.65652164750E+02  0.00000000000E+00 0. -1.
         -3    1    1    2    0  502 -0.13402690551E+02 -0.25926731059E+02 -0.48017451401E+02  0.56191664298E+02  0.00000000000E+00 0.  1.
<scales pt_clust_5="13000.00000" pt_clust_6="13000.00000" pt_clust_7="13000.00000" pt_clust_8="13000.00000" pt_clust_9="29.18610"></scales>
<clustering>
<clus scale="   29.186">  1  9  2 -1</clus>
<clus scale="   90.338">  5  6 -1 -1</clus>
<clus scale="   92.903">  7  8 -1 -1</clus>
<clus scale="  105.312">  1  5  2 -1</clus>
<clus scale="   29.186">  1  5  2 -1</clus>
</clustering>
</event>
<event>
 9    1  0.2270175E-005  0.9713564E+02  0.7546771E-02  0.1287121E+00
         21   -1    0    0  501  502  0.00000000000E+00  0.00000000000E+00  0.10682992097E+03  0.10682992097E+03  0.00000000000E+00 0. -1.
          3   -1    0    0  502    0 -0.00000000000E+00 -0.00000000000E+00 -0.67956542326E+03  0.67956542326E+03  0.00000000000E+00 0. -1.
         23    2    1    2    0    0 -0.22781456021E+02 -0.47596349867E+01 -0.47918789570E+03  0.48851365933E+03  0.92102698670E+02 0.  0.
         23    2    1    2    0    0  0.45951002760E+02  0.39478877912E+02 -0.17506306187E+03  0.20630099275E+03  0.90790679704E+02 0.  0.
        -13    1    4    4    0    0 -0.24871553752E+02  0.20206528217E+02 -0.30837147400E+02  0.44472774013E+02  0.00000000000E+00 0.  1.
         13    1    4    4    0    0  0.70822556512E+02  0.19272349695E+02 -0.14422591447E+03  0.16182821874E+03  0.00000000000E+00 0. -1.
        -13    1    3    3    0    0 -0.34518674984E+02  0.37109613472E+02 -0.22541942332E+03  0.23104670251E+03  0.00000000000E+00 0. -1.
         13    1    3    3    0    0  0.11737218963E+02 -0.41869248458E+02 -0.25376847239E+03  0.25746695682E+03  0.00000000000E+00 0.  1.
          3    1    1    2  501    0 -0.23169546739E+02 -0.34719242925E+02  0.81515455286E+02  0.91580692156E+02  0.00000000000E+00 0. -1.
<scales pt_clust_5="13000.00000" pt_clust_6="13000.00000" pt_clust_7="13000.00000" pt_clust_8="13000.00000" pt_clust_9="41.74031"></scales>
<clustering>
<clus scale="   41.740">  1  9  2 -1</clus>
<clus scale="   90.791">  5  6 -1 -1</clus>
<clus scale="   92.103">  7  8 -1 -1</clus>
<clus scale="   95.893">  1  5  2 -1</clus>
<clus scale="   41.740">  1  5  2 -1</clus>
</clustering>
</event>
<event>
 9    1  0.1321469E-005  0.9182382E+02  0.7546771E-02  0.1298715E+00
         21   -1    0    0  501  502  0.00000000000E+00  0.00000000000E+00  0.18497953269E+03  0.18497953269E+03  0.00000000000E+00 0.  1.
         -2   -1    0    0    0  501 -0.00000000000E+00 -0.00000000000E+00 -0.24348920010E+03  0.24348920010E+03  0.00000000000E+00 0.  1.
         23    2    1    2    0    0  0.22093810468E+02  0.37146618890E+00 -0.19638619639E+03  0.21698259879E+03  0.89585911837E+02 0.  0.
         23    2    1    2    0    0  0.27018812347E+01  0.84685302711E+01  0.22525116694E+02  0.93169101496E+02  0.89967129688E+02 0.  0.
        -11    1    3    3    0    0 -0.10494444530E+02 -0.31195728874E+02 -0.30044301892E+02  0.44564189010E+02  0.00000000000E+00 0. -1.
         11    1    3    3    0    0  0.32588254998E+02  0.31567195062E+02 -0.16634189450E+03  0.17241840978E+03  0.00000000000E+00 0.  1.
        -13    1    4    4    0    0 -0.11718206826E+02  0.41258065941E+02  0.34875257719E+02  0.55279543932E+02  0.00000000000E+00 0.  1.
         13    1    4    4    0    0  0.14420088060E+02 -0.32789535670E+02 -0.12350141024E+02  0.37889557564E+02  0.00000000000E+00 0. -1.
         -2    1    1    2    0  502 -0.24795691703E+02 -0.88399964600E+01  0.11535141228E+03  0.11831703250E+03  0.00000000000E+00 0.  1.
<scales pt_clust_5="13000.00000" pt_clust_6="13000.00000" pt_clust_7="13000.00000" pt_clust_8="13000.00000" pt_clust_9="26.32436"></scales>
<clustering>
<clus scale="   26.324">  1  9  2 -1</clus>
<clus scale="   89.586">  5  6 -1 -1</clus>
<clus scale="   89.967">  7  8 -1 -1</clus>
<clus scale="   91.450">  2  5  1 -1</clus>
<clus scale="   26.324">  1  5  2 -1</clus>
</clustering>
</event>
<event>
 9    1  0.1321469E-005  0.1181447E+03  0.7546771E-02  0.1248193E+00
         21   -1    0    0  501  502  0.00000000000E+00  0.00000000000E+00  0.31069089023E+02  0.31069089023E+02  0.00000000000E+00 0. -1.
          2   -1    0    0  502    0 -0.00000000000E+00 -0.00000000000E+00 -0.65783400042E+03  0.65783400042E+03  0.00000000000E+00 0. -1.
         23    2    1    2    0    0  0.73011843711E+02  0.31246832583E+02 -0.42286463310E+03  0.44118526613E+03  0.97585077003E+02 0.  0.
         23    2    1    2    0    0 -0.35252419054E+02 -0.26131917626E+02 -0.13660252690E+03  0.17038139045E+03  0.91891009826E+02 0.  0.
        -11    1    4    4    0    0 -0.64876981871E+02 -0.56154648873E+01 -0.78285987415E+02  0.10182952444E+03  0.00000000000E+00 0.  1.
         11    1    4    4    0    0  0.29624562817E+02 -0.20516452739E+02 -0.58316539485E+02  0.68551866004E+02  0.00000000000E+00 0. -1.
        -13    1    3    3    0    0  0.31183831244E+02 -0.34657321108E+02 -0.13041568938E+03  0.13849842336E+03  0.00000000000E+00 0.  1.
         13    1    3    3    0    0  0.41828012467E+02  0.65904153691E+02 -0.29244894373E+03  0.30268684277E+03  0.00000000000E+00 0. -1.
          2    1    1    2  501    0 -0.37759424657E+02 -0.51149149569E+01 -0.67297751393E+02  0.77336432863E+02  0.00000000000E+00 0. -1.
<scales pt_clust_5="13000.00000" pt_clust_6="13000.00000" pt_clust_7="13000.00000" pt_clust_8="13000.00000" pt_clust_9="38.10428"></scales>
<clustering>
<clus scale="   38.104">  1  9  2 -1</clus>
<clus scale="   91.891">  5  6 -1 -1</clus>
<clus scale="   97.585">  7  8 -1 -1</clus>
<clus scale="  113.487">  1  5  2 -1</clus>
<clus scale="   38.104">  1  5  2 -1</clus>
</clustering>
</event>
<event>
 9    1  0.1321469E-005  0.1143778E+03  0.7546771E-02  0.1260139E+00
          1   -1    0    0  502    0 -0.00000000000E+00  0.00000000000E+00  0.31426840169E+03  0.31426840169E+03  0.00000000000E+00 0. -1.
         21   -1    0    0  501  502  0.00000000000E+00 -0.00000000000E+00 -0.97908390163E+02  0.97908390163E+02  0.00000000000E+00 0. -1.
         23    2    1    2    0    0 -0.65132303726E+02  0.13272201377E+02  0.21955793931E+03  0.24143548910E+03  0.75279734085E+02 0.  0.
         23    2    1    2    0    0  0.47561313148E+02 -0.33801753483E+02  0.41169699241E+02  0.11879239953E+03  0.94931833455E+02 0.  0.
        -11    1    4    4    0    0 -0.20684040522E+02 -0.82575128653E+01  0.40152990140E+02  0.45915995777E+02  0.00000000000E+00 0.  1.
         11    1    4    4    0    0  0.68245353670E+02 -0.25544240618E+02  0.10167091011E+01  0.72876403751E+02  0.00000000000E+00 0. -1.
        -11    1    3    3    0    0 -0.10404490506E+02 -0.29298134167E+02  0.68199585347E+02  0.74952101571E+02  0.00000000000E+00 0. -1.
         11    1    3    3    0    0 -0.54727813220E+02  0.42570335544E+02  0.15135835396E+03  0.16648338753E+03  0.00000000000E+00 0.  1.
          1    1    1    2  501    0  0.17570990578E+02  0.20529552106E+02 -0.44367627020E+02  0.51948903231E+02  0.00000000000E+00 0. -1.
<scales pt_clust_5="13000.00000" pt_clust_6="13000.00000" pt_clust_7="13000.00000" pt_clust_8="13000.00000" pt_clust_9="27.02225"></scales>
<clustering>
<clus scale="   27.022">  2  9  1 -1</clus>
<clus scale="   75.280">  7  8 -1 -1</clus>
<clus scale="   94.932">  5  6 -1 -1</clus>
<clus scale="   98.678">  1  7  2 -1</clus>
<clus scale="   27.022">  2  5  1 -1</clus>
</clustering>
</event>
<event>
 9    1  0.1321469E-005  0.9372960E+02  0.7546771E-02  0.1294199E+00
         21   -1    0    0  501  502  0.00000000000E+00  0.00000000000E+00  0.12386786317E+03  0.12386786317E+03  0.00000000000E+00 0.  1.
          4   -1    0    0  502    0 -0.00000000000E+00 -0.00000000000E+00 -0.14406285239E+03  0.14406285239E+03  0.00000000000E+00 0. -1.
         23    2    1    2    0    0 -0.18852698230E+02 -0.35512018898E+02 -0.41833801582E+02  0.10733817685E+03  0.90304427010E+02 0.  0.
         23    2    1    2    0    0 -0.14772254587E+02  0.12036361330E+02 -0.27553628960E+02  0.96548489543E+02  0.90550068275E+02 0.  0.
        -11    1    3    3    0    0 -0.38192916025E+02  0.82327830962E+01 -0.44767474774E+02  0.59418888829E+02  0.00000000000E+00 0.  1.
         11    1    3    3    0    0  0.19340217795E+02 -0.43744801994E+02  0.29336731921E+01  0.47919288019E+02  0.00000000000E+00 0. -1.
        -11    1    4    4    0    0  0.18590674793E+02 -0.21177507676E+02 -0.38985110471E+02  0.48103418372E+02  0.00000000000E+00 0. -1.
         11    1    4    4    0    0 -0.33362929380E+02  0.33213869006E+02  0.11431481511E+02  0.48445071171E+02  0.00000000000E+00 0.  1.
          4    1    1    2  501    0  0.33624952818E+02  0.23475657568E+02  0.49192441327E+02  0.64044049169E+02  0.00000000000E+00 0. -1.
<scales pt_clust_5="13000.00000" pt_clust_6="13000.00000" pt_clust_7="13000.00000" pt_clust_8="13000.00000" pt_clust_9="41.00907"></scales>
<clustering>
<clus scale="   41.009">  1  9  2 -1</clus>
<clus scale="   90.304">  5  6 -1 -1</clus>
<clus scale="   90.550">  7  8 -1 -1</clus>
<clus scale="   93.492">  2  5  1 -1</clus>
<clus scale="   41.009">  1  5  2 -1</clus>
</clustering>
</event>
<event>
 9    1  0.1321469E-005  0.1809299E+03  0.7546771E-02  0.1168380E+00
         21   -1    0    0  501  502  0.00000000000E+00  0.00000000000E+00  0.35219959448E+03  0.35219959448E+03  0.00000000000E+00 0. -1.
          4   -1    0    0  502    0 -0.00000000000E+00 -0.00000000000E+00 -0.76637317409E+03  0.76637317409E+03  0.00000000000E+00 0. -1.
         23    2    1    2    0    0 -0.18984924381E+02 -0.12429988607E+03 -0.39155104612E+03  0.42031810867E+03  0.86857364260E+02 0.  0.
         23    2    1    2    0    0  0.92222108373E+02  0.23453620897E+03 -0.29202866522E+03  0.39809570898E+03  0.98424090576E+02 0.  0.
        -11    1    4    4    0    0  0.64052424120E+02  0.45132677770E+02 -0.72019621640E+02  0.10642601909E+03  0.00000000000E+00 0.  1.
         11    1    4    4    0    0  0.28169684253E+02  0.18940353120E+03 -0.22000904358E+03  0.29166968989E+03  0.00000000000E+00 0. -1.
        -13    1    3    3    0    0  0.27685310495E+02 -0.10154183709E+02 -0.78056921144E+02  0.83441397415E+02  0.00000000000E+00 0.  1.
         13    1    3    3    0    0 -0.46670234876E+02 -0.11414570236E+03 -0.31349412498E+03  0.33687671126E+03  0.00000000000E+00 0. -1.
          4    1    1    2  501    0 -0.73237183992E+02 -0.11023632290E+03  0.26940613173E+03  0.30015895092E+03  0.00000000000E+00 0. -1.
<scales pt_clust_5="13000.00000" pt_clust_6="13000.00000" pt_clust_7="13000.00000" pt_clust_8="13000.00000" pt_clust_9="132.34701"></scales>
<clustering>
<clus scale="   86.857">  7  8 -1 -1</clus>
<clus scale="   98.424">  5  6 -1 -1</clus>
<clus scale="  132.347">  1  9  2 -1</clus>
<clus scale="  174.907">  2  7  1 -1</clus>
<clus scale="  132.347">  1  5  2 -1</clus>
</clustering>
</event>
<event>
 9    1  0.1321469E-005  0.1093417E+03  0.7546771E-02  0.1264434E+00
         21   -1    0    0  501  502  0.00000000000E+00  0.00000000000E+00  0.34816810891E+03  0.34816810891E+03  0.00000000000E+00 0.  1.
         -1   -1    0    0    0  501 -0.00000000000E+00 -0.00000000000E+00 -0.20399042095E+03  0.20399042095E+03  0.00000000000E+00 0.  1.
         23    2    1    2    0    0 -0.34006839278E+02 -0.19351996514E+02 -0.15263023503E+03  0.18381926243E+03  0.94670838737E+02 0.  0.
         23    2    1    2    0    0  0.61301567272E+02  0.26216125229E+02  0.69556605185E+02  0.13935175711E+03  0.10067583381E+03 0.  0.
        -11    1    4    4    0    0  0.81277295974E+02  0.43714561191E+02  0.43063163733E+02  0.10184005976E+03  0.00000000000E+00 0.  1.
         11    1    4    4    0    0 -0.19975728702E+02 -0.17498435962E+02  0.26493441452E+02  0.37511697353E+02  0.00000000000E+00 0. -1.
        -13    1    3    3    0    0 -0.46653722759E+02  0.27327326876E+02 -0.81690920715E+02  0.97963050017E+02  0.00000000000E+00 0. -1.
         13    1    3    3    0    0  0.12646883481E+02 -0.46679323390E+02 -0.70939314313E+02  0.85856212408E+02  0.00000000000E+00 0.  1.
         -1    1    1    2    0  502 -0.27294727994E+02 -0.68641287148E+01  0.22725131780E+03  0.22898751032E+03  0.00000000000E+00 0.  1.
<scales pt_clust_5="13000.00000" pt_clust_6="13000.00000" pt_clust_7="13000.00000" pt_clust_8="13000.00000" pt_clust_9="28.14460"></scales>
<clustering>
<clus scale="   28.145">  1  9  2 -1</clus>
<clus scale="   94.671">  7  8 -1 -1</clus>
<clus scale="  100.676">  5  6 -1 -1</clus>
<clus scale="  103.839">  2  7  1 -1</clus>
<clus scale="   28.145">  1  5  2 -1</clus>
</clustering>
</event>
<event>
 9    1  0.1321469E-005  0.2000022E+03  0.7546771E-02  0.1150114E+00
         21   -1    0    0  501  502  0.00000000000E+00  0.00000000000E+00  0.12723712305E+03  0.12723712305E+03  0.00000000000E+00 0. -1.
         -1   -1    0    0    0  501 -0.00000000000E+00 -0.00000000000E+00 -0.52763591274E+03  0.52763591274E+03  0.00000000000E+00 0.  1.
         23    2    1    2    0    0 -0.10298775674E+03 -0.16595540397E+03 -0.33723091209E+03  0.40083600674E+03  0.93793081233E+02 0.  0.
         23    2    1    2    0    0  0.10515043048E+03  0.10270932939E+03 -0.77824873905E+02  0.18907880672E+03  0.89934780690E+02 0.  0.
        -13    1    4    4    0    0  0.95198908304E+01  0.60608751856E+02 -0.46733435424E+01  0.61529580389E+02  0.00000000000E+00 0. -1.
         13    1    4    4    0    0  0.95630539653E+02  0.42100577529E+02 -0.73151530363E+02  0.12754922633E+03  0.00000000000E+00 0.  1.
        -13    1    3    3    0    0 -0.82579209855E+01 -0.19697544360E+02 -0.12224950213E+03  0.12410127833E+03  0.00000000000E+00 0.  1.
         13    1    3    3    0    0 -0.94729835753E+02 -0.14625785961E+03 -0.21498140996E+03  0.27673472841E+03  0.00000000000E+00 0. -1.
         -1    1    1    2    0  502 -0.21626737454E+01  0.63246074584E+02  0.14656996308E+02  0.64958222333E+02  0.00000000000E+00 0.  1.
<scales pt_clust_5="13000.00000" pt_clust_6="13000.00000" pt_clust_7="13000.00000" pt_clust_8="13000.00000" pt_clust_9="63.28304"></scales>
<clustering>
<clus scale="   63.283">  1  9  2 -1</clus>
<clus scale="   89.935">  5  6 -1 -1</clus>
<clus scale="   93.793">  7  8 -1 -1</clus>
<clus scale="  198.222">  1  5  2 -1</clus>
<clus scale="   63.283">  1  5  2 -1</clus>
</clustering>
</event>
<event>
 9    1  0.1321469E-005  0.9974597E+02  0.7546771E-02  0.1282435E+00
         21   -1    0    0  501  502  0.00000000000E+00  0.00000000000E+00  0.11540385135E+03  0.11540385135E+03  0.00000000000E+00 0.  1.
         -1   -1    0    0    0  501 -0.00000000000E+00 -0.00000000000E+00 -0.27022615831E+03  0.27022615831E+03  0.00000000000E+00 0.  1.
         23    2    1    2    0    0 -0.28555278191E+02  0.46304362254E+01 -0.17632958949E+03  0.20007143733E+03  0.89997839166E+02 0.  0.
         23    2    1    2    0    0  0.56434122998E+02 -0.37755058423E+01 -0.41498373072E+02  0.11665520860E+03  0.93205461447E+02 0.  0.
        -11    1    4    4    0    0  0.48265924433E+02 -0.42827436103E+02 -0.89085172995E+01  0.65139469026E+02  0.00000000000E+00 0.  1.
         11    1    4    4    0    0  0.81681985652E+01  0.39051930260E+02 -0.32589855772E+02  0.51515739576E+02  0.00000000000E+00 0. -1.
        -13    1    3    3    0    0 -0.34059226184E+02  0.31442221525E+02 -0.40631935429E+02  0.61640882208E+02  0.00000000000E+00 0.  1.
         13    1    3    3    0    0  0.55039479937E+01 -0.26811785299E+02 -0.13569765406E+03  0.13843055512E+03  0.00000000000E+00 0. -1.
         -1    1    1    2    0  502 -0.27878844808E+02 -0.85493038306E+00  0.63005655610E+02  0.68903363725E+02  0.00000000000E+00 0.  1.
<scales pt_clust_5="13000.00000" pt_clust_6="13000.00000" pt_clust_7="13000.00000" pt_clust_8="13000.00000" pt_clust_9="27.89195"></scales>
<clustering>
<clus scale="   27.892">  1  9  2 -1</clus>
<clus scale="   89.998">  7  8 -1 -1</clus>
<clus scale="   93.205">  5  6 -1 -1</clus>
<clus scale="   96.755">  2  7  1 -1</clus>
<clus scale="   27.892">  1  5  2 -1</clus>
</clustering>
</event>
<event>
 9    1  0.1321469E-005  0.1529757E+03  0.7546771E-02  0.1216158E+00
          4   -1    0    0  502    0 -0.00000000000E+00  0.00000000000E+00  0.28835689789E+03  0.28835689789E+03  0.00000000000E+00 0. -1.
         21   -1    0    0  501  502  0.00000000000E+00 -0.00000000000E+00 -0.21944463248E+03  0.21944463248E+03  0.00000000000E+00 0.  1.
         23    2    1    2    0    0 -0.25118833364E+02  0.41335873438E+02  0.18005039256E+03  0.20647774176E+03  0.88742908216E+02 0.  0.
         23    2    1    2    0    0 -0.45184601872E+02 -0.13067527405E+03 -0.77135860128E+02  0.18266353549E+03  0.91095284103E+02 0.  0.
        -11    1    3    3    0    0  0.32595878808E+02  0.24321375311E+02  0.65882690276E+02  0.77424476042E+02  0.00000000000E+00 0.  1.
         11    1    3    3    0    0 -0.57714712172E+02  0.17014498127E+02  0.11416770228E+03  0.12905326572E+03  0.00000000000E+00 0. -1.
        -11    1    4    4    0    0 -0.47044321997E+02 -0.55213472783E+02 -0.78875275403E+02  0.10715878349E+03  0.00000000000E+00 0.  1.
         11    1    4    4    0    0  0.18597201253E+01 -0.75461801265E+02  0.17394152749E+01  0.75504752001E+02  0.00000000000E+00 0. -1.
          4    1    1    2  501    0  0.70303435236E+02  0.89339400610E+02 -0.34002267023E+02  0.11866025312E+03  0.00000000000E+00 0. -1.
<scales pt_clust_5="13000.00000" pt_clust_6="13000.00000" pt_clust_7="13000.00000" pt_clust_8="13000.00000" pt_clust_9="122.89511"></scales>
<clustering>
<clus scale="   88.743">  5  6 -1 -1</clus>
<clus scale="   91.095">  7  8 -1 -1</clus>
<clus scale="  101.069">  1  5  2 -1</clus>
<clus scale="  122.895">  2  9  1 -1</clus>
<clus scale="  122.895">  2  5  1 -1</clus>
</clustering>
</event>
<event>
 9    1  0.1321469E-005  0.9879526E+02  0.7546771E-02  0.1283443E+00
         21   -1    0    0  501  502  0.00000000000E+00  0.00000000000E+00  0.24635101498E+03  0.24635101498E+03  0.00000000000E+00 0.  1.
         -2   -1    0    0    0  501 -0.00000000000E+00 -0.00000000000E+00 -0.12672961965E+03  0.12672961965E+03  0.00000000000E+00 0.  1.
         23    2    1    2    0    0  0.22890449686E+02 -0.50135584047E+02 -0.44204718661E+02  0.11658629681E+03  0.92740271606E+02 0.  0.
         23    2    1    2    0    0  0.89971927950E+01  0.81371154558E+01  0.88442671995E+01  0.92787080972E+02  0.91564508445E+02 0.  0.
        -11    1    3    3    0    0 -0.36162531588E+02 -0.17884194145E+02 -0.12741022386E+02  0.42307289473E+02  0.00000000000E+00 0. -1.
         11    1    3    3    0    0  0.59052981273E+02 -0.32251389901E+02 -0.31463696275E+02  0.74279007338E+02  0.00000000000E+00 0.  1.
        -13    1    4    4    0    0 -0.31112293783E+02  0.32703833056E+02  0.73108203670E+01  0.45727055617E+02  0.00000000000E+00 0. -1.
         13    1    4    4    0    0  0.40109486578E+02 -0.24566717600E+02  0.15334468326E+01  0.47060025354E+02  0.00000000000E+00 0.  1.
         -2    1    1    2    0  502 -0.31887642481E+02  0.41998468591E+02  0.15498184679E+03  0.16370725684E+03  0.00000000000E+00 0.  1.
<scales pt_clust_5="13000.00000" pt_clust_6="13000.00000" pt_clust_7="13000.00000" pt_clust_8="13000.00000" pt_clust_9="52.73228"></scales>
<clustering>
<clus scale="   52.732">  1  9  2 -1</clus>
<clus scale="   91.565">  7  8 -1 -1</clus>
<clus scale="   92.740">  5  6 -1 -1</clus>
<clus scale="   97.692">  1  7  2 -1</clus>
<clus scale="   52.732">  1  5  2 -1</clus>
</clustering>
</event>
<event>
 9    1  0.1321469E-005  0.9450649E+02  0.7546771E-02  0.1293466E+00
         21   -1    0    0  501  502  0.00000000000E+00  0.00000000000E+00  0.17515497543E+03  0.17515497543E+03  0.00000000000E+00 0. -1.
         -1   -1    0    0    0  501 -0.00000000000E+00 -0.00000000000E+00 -0.13237642206E+03  0.13237642206E+03  0.00000000000E+00 0.  1.
         23    2    1    2    0    0  0.97917152027E+01 -0.22162694473E+00 -0.22816226222E+02  0.97169033412E+02  0.93943142752E+02 0.  0.
         23    2    1    2    0    0  0.39551298193E+02 -0.42005306222E+02  0.90017822679E+02  0.14097697736E+03  0.91883343467E+02 0.  0.
        -11    1    4    4    0    0 -0.25591340680E+02 -0.24793342538E+02  0.11343543346E+02  0.37393883559E+02  0.00000000000E+00 0.  1.
         11    1    4    4    0    0  0.65142638873E+02 -0.17211963684E+02  0.78674279333E+02  0.10358309380E+03  0.00000000000E+00 0. -1.
        -11    1    3    3    0    0  0.43835815610E+02  0.26176347269E+02 -0.84112704824E+01  0.51744848610E+02  0.00000000000E+00 0.  1.
         11    1    3    3    0    0 -0.34044100408E+02 -0.26397974213E+02 -0.14404955739E+02  0.45424184803E+02  0.00000000000E+00 0. -1.
         -1    1    1    2    0  502 -0.49343013396E+02  0.42226933166E+02 -0.24423043089E+02  0.69385386713E+02  0.00000000000E+00 0.  1.
<scales pt_clust_5="13000.00000" pt_clust_6="13000.00000" pt_clust_7="13000.00000" pt_clust_8="13000.00000" pt_clust_9="64.94498"></scales>
<clustering>
<clus scale="   64.945">  1  9  2 -1</clus>
<clus scale="   91.883">  5  6 -1 -1</clus>
<clus scale="   92.459">  1  5  2 -1</clus>
<clus scale="   93.943">  7  8 -1 -1</clus>
<clus scale="   64.945">  1  5  2 -1</clus>
</clustering>
</event>
<event>
 9    1  0.1321469E-005  0.1054005E+03  0.7546771E-02  0.1274897E+00
         21   -1    0    0  501  502  0.00000000000E+00  0.00000000000E+00  0.40386992268E+03  0.40386992268E+03  0.00000000000E+00 0.  1.
         -1   -1    0    0    0  501 -0.00000000000E+00 -0.00000000000E+00 -0.79636083144E+02  0.79636083144E+02  0.00000000000E+00 0.  1.
         23    2    1    2    0    0 -0.62261753769E+01  0.21106152643E+02 -0.94005411164E+01  0.10517174091E+03  0.10241332908E+03 0.  0.
         23    2    1    2    0    0 -0.20286550058E+02 -0.33937597160E+02  0.94029063019E+02  0.13692531973E+03  0.91344260226E+02 0.  0.
        -11    1    3    3    0    0  0.36287473841E+02 -0.12357344267E+02  0.20378685731E+02  0.43414001742E+02  0.00000000000E+00 0. -1.
         11    1    3    3    0    0 -0.42513649217E+02  0.33463496911E+02 -0.29779226848E+02  0.61757739166E+02  0.00000000000E+00 0.  1.
        -13    1    4    4    0    0  0.33489378006E+02 -0.18719509900E+02  0.60836637557E+02  0.71923952612E+02  0.00000000000E+00 0. -1.
         13    1    4    4    0    0 -0.53775928063E+02 -0.15218087260E+02  0.33192425462E+02  0.65001367116E+02  0.00000000000E+00 0.  1.
         -1    1    1    2    0  502  0.26512725435E+02  0.12831444517E+02  0.23960531763E+03  0.24140894519E+03  0.00000000000E+00 0.  1.
<scales pt_clust_5="13000.00000" pt_clust_6="13000.00000" pt_clust_7="13000.00000" pt_clust_8="13000.00000" pt_clust_9="29.45455"></scales>
<clustering>
<clus scale="   29.455">  1  9  2 -1</clus>
<clus scale="   91.344">  7  8 -1 -1</clus>
<clus scale="   94.681">  1  7  2 -1</clus>
<clus scale="  102.413">  5  6 -1 -1</clus>
<clus scale="   29.455">  1  5  2 -1</clus>
</clustering>
</event>
<event>
 9    1  0.1321469E-005  0.1534728E+03  0.7546771E-02  0.1196618E+00
         21   -1    0    0  501  502  0.00000000000E+00  0.00000000000E+00  0.62080087162E+02  0.62080087162E+02  0.00000000000E+00 0. -1.
          1   -1    0    0  502    0 -0.00000000000E+00 -0.00000000000E+00 -0.85341383265E+03  0.85341383265E+03  0.00000000000E+00 0. -1.
         23    2    1    2    0    0  0.11405472494E+03  0.94374277097E+02 -0.58688458817E+03  0.61170654134E+03  0.88523377897E+02 0.  0.
         23    2    1    2    0    0 -0.63449005696E+02 -0.63064953312E+02 -0.20836068523E+03  0.24415087432E+03  0.90512483238E+02 0.  0.
        -11    1    4    4    0    0 -0.74967051888E+02 -0.13680070400E+02 -0.13380977854E+03  0.15398785676E+03  0.00000000000E+00 0.  1.
         11    1    4    4    0    0  0.11518046191E+02 -0.49384882912E+02 -0.74550906687E+02  0.90163017564E+02  0.00000000000E+00 0. -1.
        -13    1    3    3    0    0  0.10912214678E+03  0.37907923018E+02 -0.40990737710E+03  0.42587405574E+03  0.00000000000E+00 0. -1.
         13    1    3    3    0    0  0.49325781560E+01  0.56466354080E+02 -0.17697721106E+03  0.18583248561E+03  0.00000000000E+00 0.  1.
          1    1    1    2  501    0 -0.50605719243E+02 -0.31309323786E+02  0.39115279128E+01  0.59636504145E+02  0.00000000000E+00 0. -1.
<scales pt_clust_5="13000.00000" pt_clust_6="13000.00000" pt_clust_7="13000.00000" pt_clust_8="13000.00000" pt_clust_9="59.50809"></scales>
<clustering>
<clus scale="   59.508">  1  9  2 -1</clus>
<clus scale="   88.523">  7  8 -1 -1</clus>
<clus scale="   90.512">  5  6 -1 -1</clus>
<clus scale="  152.308">  2  7  1 -1</clus>
<clus scale="   59.508">  1  5  2 -1</clus>
</clustering>
</event>
<event>
 9    1  0.1321469E-005  0.9300578E+02  0.7546771E-02  0.1296627E+00
         21   -1    0    0  501  502  0.00000000000E+00  0.00000000000E+00  0.32932264604E+02  0.32932264604E+02  0.00000000000E+00 0. -1.
          2   -1    0    0  502    0 -0.00000000000E+00 -0.00000000000E+00 -0.51016111324E+03  0.51016111324E+03  0.00000000000E+00 0. -1.
         23    2    1    2    0    0  0.30646808198E+01 -0.71570234390E+01 -0.32983570833E+03  0.34258155228E+03  0.92249174612E+02 0.  0.
         23    2    1    2    0    0 -0.24700516125E+02  0.44722213021E+01 -0.15147495432E+03  0.17833123185E+03  0.90704190690E+02 0.  0.
        -11    1    3    3    0    0  0.36714260993E+02 -0.27655136314E+02 -0.10958698899E+03  0.11883623892E+03  0.00000000000E+00 0. -1.
         11    1    3    3    0    0 -0.33649580173E+02  0.20498112875E+02 -0.22024871935E+03  0.22374531336E+03  0.00000000000E+00 0.  1.
        -13    1    4    4    0    0 -0.15409496220E+02  0.44568658432E+02 -0.49518805327E+02  0.68380771926E+02  0.00000000000E+00 0.  1.
         13    1    4    4    0    0 -0.92910199050E+01 -0.40096437130E+02 -0.10195614899E+03  0.10995045993E+03  0.00000000000E+00 0. -1.
          2    1    1    2  501    0  0.21635835305E+02  0.26848021369E+01  0.40818140134E+01  0.22180593714E+02  0.00000000000E+00 0. -1.
<scales pt_clust_5="13000.00000" pt_clust_6="13000.00000" pt_clust_7="13000.00000" pt_clust_8="13000.00000" pt_clust_9="21.80178"></scales>
<clustering>
<clus scale="   21.802">  1  9  2 -1</clus>
<clus scale="   90.704">  7  8 -1 -1</clus>
<clus scale="   91.474">  1  7  2 -1</clus>
<clus scale="   92.249">  5  6 -1 -1</clus>
<clus scale="   21.802">  1  5  2 -1</clus>
</clustering>
</event>
<event>
 9    1  0.1321469E-005  0.1063487E+03  0.7546771E-02  0.1273051E+00
         -1   -1    0    0    0  501 -0.00000000000E+00  0.00000000000E+00  0.65824513667E+03  0.65824513667E+03  0.00000000000E+00 0.  1.
         21   -1    0    0  501  502  0.00000000000E+00 -0.00000000000E+00 -0.32450870683E+02  0.32450870683E+02  0.00000000000E+00 0.  1.
         23    2    1    2    0    0  0.24152215056E+02  0.54023440206E+02  0.45952317640E+03  0.47200246307E+03  0.90127209622E+02 0.  0.
         23    2    1    2    0    0  0.17318854326E+02 -0.57710601858E+02  0.13463016313E+03  0.16640020834E+03  0.77027866579E+02 0.  0.
        -11    1    4    4    0    0 -0.17484199721E+02  0.10090886712E+02  0.40778776530E+02  0.45501998306E+02  0.00000000000E+00 0. -1.
         11    1    4    4    0    0  0.34803054047E+02 -0.67801488570E+02  0.93851386602E+02  0.12089821004E+03  0.00000000000E+00 0.  1.
        -13    1    3    3    0    0 -0.56059063504E+01  0.72470807638E+02  0.29958205345E+03  0.30827398673E+03  0.00000000000E+00 0.  1.
         13    1    3    3    0    0  0.29758121406E+02 -0.18447367431E+02  0.15994112295E+03  0.16372847634E+03  0.00000000000E+00 0. -1.
         -1    1    1    2    0  502 -0.41471069381E+02  0.36871616516E+01  0.31640926463E+02  0.52293335943E+02  0.00000000000E+00 0.  1.
<scales pt_clust_5="13000.00000" pt_clust_6="13000.00000" pt_clust_7="13000.00000" pt_clust_8="13000.00000" pt_clust_9="41.63466"></scales>
<clustering>
<clus scale="   41.635">  2  9  1 -1</clus>
<clus scale="   77.028">  5  6 -1 -1</clus>
<clus scale="   90.127">  7  8 -1 -1</clus>
<clus scale="   95.501">  2  5  1 -1</clus>
<clus scale="   41.635">  2  5  1 -1</clus>
</clustering>
</event>
<event>
 9    1  0.1321469E-005  0.1269334E+03  0.7546771E-02  0.1232101E+00
         21   -1    0    0  501  502  0.00000000000E+00  0.00000000000E+00  0.11612134979E+04  0.11612134979E+04  0.00000000000E+00 0. -1.
          4   -1    0    0  502    0 -0.00000000000E+00 -0.00000000000E+00 -0.59669472061E+02  0.59669472061E+02  0.00000000000E+00 0. -1.
         23    2    1    2    0    0  0.38892466711E+02 -0.28729087861E+02  0.13877472275E+03  0.17922939350E+03  0.10260003588E+03 0.  0.
         23    2    1    2    0    0 -0.11368451054E+03 -0.43018692579E+02  0.13844906601E+03  0.21084346153E+03  0.10252826705E+03 0.  0.
        -11    1    4    4    0    0 -0.72263382251E+02  0.12577679848E+02  0.11732481340E+03  0.13836656491E+03  0.00000000000E+00 0.  1.
         11    1    4    4    0    0 -0.41421128289E+02 -0.55596372426E+02  0.21124252605E+02  0.72476896621E+02  0.00000000000E+00 0. -1.
        -13    1    3    3    0    0  0.68297917224E+02 -0.40134562079E+02  0.11539394550E+03  0.13996839368E+03  0.00000000000E+00 0. -1.
         13    1    3    3    0    0 -0.29405450513E+02  0.11405474217E+02  0.23380777252E+02  0.39260999820E+02  0.00000000000E+00 0.  1.
          4    1    1    2  501    0  0.74792043829E+02  0.71747780440E+02  0.82432023709E+03  0.83081011494E+03  0.00000000000E+00 0. -1.
<scales pt_clust_5="13000.00000" pt_clust_6="13000.00000" pt_clust_7="13000.00000" pt_clust_8="13000.00000" pt_clust_9="103.64166"></scales>
<clustering>
<clus scale="  102.528">  5  6 -1 -1</clus>
<clus scale="  102.600">  7  8 -1 -1</clus>
<clus scale="  103.642">  1  9  2 -1</clus>
<clus scale="  126.875">  1  5  2 -1</clus>
<clus scale="  103.642">  1  5  2 -1</clus>
</clustering>
</event>
<event>
 9    1  0.1321469E-005  0.1082592E+03  0.7546771E-02  0.1264081E+00
         21   -1    0    0  501  502  0.00000000000E+00  0.00000000000E+00  0.18362300221E+03  0.18362300221E+03  0.00000000000E+00 0. -1.
          1   -1    0    0  502    0 -0.00000000000E+00 -0.00000000000E+00 -0.37563903226E+03  0.37563903226E+03  0.00000000000E+00 0. -1.
         23    2    1    2    0    0 -0.14233594497E+01  0.62997764371E+02 -0.29257743564E+03  0.31292290630E+03  0.91369826380E+02 0.  0.
         23    2    1    2    0    0  0.83745402977E+02 -0.38969663621E+01  0.55539646164E+02  0.13544827193E+03  0.90736449154E+02 0.  0.
        -11    1    3    3    0    0 -0.45733806159E+02  0.39153713844E+02 -0.14495693518E+03  0.15696212088E+03  0.00000000000E+00 0. -1.
         11    1    3    3    0    0  0.44310446709E+02  0.23844050528E+02 -0.14762050046E+03  0.15596078542E+03  0.00000000000E+00 0.  1.
        -11    1    4    4    0    0  0.40806419748E+02 -0.30172703014E+02 -0.11082282351E+02  0.51945864917E+02  0.00000000000E+00 0.  1.
         11    1    4    4    0    0  0.42938983229E+02  0.26275736652E+02  0.66621928514E+02  0.83502407009E+02  0.00000000000E+00 0. -1.
          1    1    1    2  501    0 -0.82322043527E+02 -0.59100798009E+02  0.45021759427E+02  0.11089085624E+03  0.00000000000E+00 0. -1.
<scales pt_clust_5="13000.00000" pt_clust_6="13000.00000" pt_clust_7="13000.00000" pt_clust_8="13000.00000" pt_clust_9="101.34014"></scales>
<clustering>
<clus scale="   90.736">  7  8 -1 -1</clus>
<clus scale="   91.370">  5  6 -1 -1</clus>
<clus scale="  101.340">  1  9  2 -1</clus>
<clus scale="  107.725">  1  7  2 -1</clus>
<clus scale="  101.340">  1  5  2 -1</clus>
</clustering>
</event>
<event>
 9    1  0.1321469E-005  0.9615025E+02  0.7546771E-02  0.1292406E+00
         21   -1    0    0  501  502  0.00000000000E+00  0.00000000000E+00  0.17355780994E+03  0.17355780994E+03  0.00000000000E+00 0.  1.
          1   -1    0    0  502    0 -0.00000000000E+00 -0.00000000000E+00 -0.99946785556E+02  0.99946785556E+02  0.00000000000E+00 0. -1.
         23    2    1    2    0    0 -0.27928499326E+02 -0.30223042578E+02  0.24949238174E+01  0.10062223021E+03  0.91788753067E+02 0.  0.
         23    2    1    2    0    0 -0.15863291952E+02  0.14965866414E+02  0.87384346599E+02  0.12373810584E+03  0.84849711945E+02 0.  0.
        -11    1    3    3    0    0 -0.58552421606E+02 -0.72151399834E+01  0.13988624787E+02  0.60631064186E+02  0.00000000000E+00 0.  1.
         11    1    3    3    0    0  0.30623922281E+02 -0.23007902594E+02 -0.11493700969E+02  0.39991166020E+02  0.00000000000E+00 0. -1.
        -11    1    4    4    0    0  0.57793752590E+01  0.26284160584E+02 -0.56948024461E+01  0.27507981585E+02  0.00000000000E+00 0. -1.
         11    1    4    4    0    0 -0.21642667211E+02 -0.11318294170E+02  0.93079149045E+02  0.96230124254E+02  0.00000000000E+00 0.  1.
          1    1    1    2  501    0  0.43791791278E+02  0.15257176164E+02 -0.16268246033E+02  0.49144259449E+02  0.00000000000E+00 0. -1.
<scales pt_clust_5="13000.00000" pt_clust_6="13000.00000" pt_clust_7="13000.00000" pt_clust_8="13000.00000" pt_clust_9="46.37353"></scales>
<clustering>
<clus scale="   46.374">  1  9  2 -1</clus>
<clus scale="   84.850">  7  8 -1 -1</clus>
<clus scale="   89.550">  1  7  2 -1</clus>
<clus scale="   91.789">  5  6 -1 -1</clus>
<clus scale="   46.374">  1  5  2 -1</clus>
</clustering>
</event>
<event>
 9    1  0.1321469E-005  0.1068988E+03  0.7546771E-02  0.1268102E+00
         21   -1    0    0  501  502  0.00000000000E+00  0.00000000000E+00  0.48211305356E+03  0.48211305356E+03  0.00000000000E+00 0. -1.
         -1   -1    0    0    0  501 -0.00000000000E+00 -0.00000000000E+00 -0.91673820176E+02  0.91673820176E+02  0.00000000000E+00 0.  1.
         23    2    1    2    0    0 -0.46267270755E+02  0.21692398712E+02 -0.22161437353E+02  0.10797342787E+03  0.92498169251E+02 0.  0.
         23    2    1    2    0    0  0.46472321834E+02 -0.75861725350E+02  0.38516095871E+03  0.40509033832E+03  0.88512937009E+02 0.  0.
        -11    1    4    4    0    0 -0.16015148894E+02 -0.51906022559E+02  0.12187771289E+03  0.13343499193E+03  0.00000000000E+00 0.  1.
         11    1    4    4    0    0  0.62487470728E+02 -0.23955702791E+02  0.26328324582E+03  0.27165534639E+03  0.00000000000E+00 0. -1.
        -13    1    3    3    0    0 -0.32599716262E+02  0.54108666422E+02 -0.32856046187E+02  0.71203996050E+02  0.00000000000E+00 0.  1.
         13    1    3    3    0    0 -0.13667554492E+02 -0.32416267710E+02  0.10694608834E+02  0.36769431817E+02  0.00000000000E+00 0. -1.
         -1    1    1    2    0  502 -0.20505107906E+00  0.54169326638E+02  0.27439712033E+02  0.60723107552E+02  0.00000000000E+00 0.  1.
<scales pt_clust_5="13000.00000" pt_clust_6="13000.00000" pt_clust_7="13000.00000" pt_clust_8="13000.00000" pt_clust_9="54.16974"></scales>
<clustering>
<clus scale="   54.170">  1  9  2 -1</clus>
<clus scale="   88.513">  5  6 -1 -1</clus>
<clus scale="   92.498">  7  8 -1 -1</clus>
<clus scale="  103.470">  1  5  2 -1</clus>
<clus scale="   54.170">  1  5  2 -1</clus>
</clustering>
</event>
<event>
 9    1  0.1321469E-005  0.1143050E+03  0.7546771E-02  0.1256500E+00
         21   -1    0    0  501  502  0.00000000000E+00  0.00000000000E+00  0.26873001754E+03  0.26873001754E+03  0.00000000000E+00 0.  1.
          4   -1    0    0  502    0 -0.00000000000E+00 -0.00000000000E+00 -0.10732677252E+03  0.10732677252E+03  0.00000000000E+00 0. -1.
         23    2    1    2    0    0  0.14382187532E+02 -0.61090904219E+02 -0.44326458013E+02  0.12347345450E+03  0.96653573087E+02 0.  0.
         23    2    1    2    0    0  0.13887654917E+02  0.58630664860E+02  0.10945833032E+03  0.15221693694E+03  0.86939335126E+02 0.  0.
        -11    1    3    3    0    0  0.96184818688E+01  0.17573467219E+02  0.14836260437E+02  0.24929030613E+02  0.00000000000E+00 0.  1.
         11    1    3    3    0    0  0.47637056627E+01 -0.78664371438E+02 -0.59162718450E+02  0.98544423890E+02  0.00000000000E+00 0. -1.
        -13    1    4    4    0    0 -0.30658805065E+02  0.52206013193E+02  0.67682470520E+02  0.90809399058E+02  0.00000000000E+00 0. -1.
         13    1    4    4    0    0  0.44546459982E+02  0.64246516661E+01  0.41775859805E+02  0.61407537880E+02  0.00000000000E+00 0.  1.
          4    1    1    2  501    0 -0.28269842448E+02  0.24602393598E+01  0.96271372710E+02  0.10036639863E+03  0.00000000000E+00 0. -1.
<scales pt_clust_5="13000.00000" pt_clust_6="13000.00000" pt_clust_7="13000.00000" pt_clust_8="13000.00000" pt_clust_9="28.37669"></scales>
<clustering>
<clus scale="   28.377">  1  9  2 -1</clus>
<clus scale="   86.939">  7  8 -1 -1</clus>
<clus scale="   96.654">  5  6 -1 -1</clus>
<clus scale="  106.218">  1  7  2 -1</clus>
<clus scale="   28.377">  1  5  2 -1</clus>
</clustering>
</event>
<event>
 9    1  0.1321469E-005  0.1136347E+03  0.7546771E-02  0.1261336E+00
          2   -1    0    0  502    0 -0.00000000000E+00  0.00000000000E+00  0.10732486034E+03  0.10732486034E+03  0.00000000000E+00 0. -1.
         21   -1    0    0  501  502  0.00000000000E+00 -0.00000000000E+00 -0.25832825239E+03  0.25832825239E+03  0.00000000000E+00 0. -1.
         23    2    1    2    0    0  0.32171703416E+02 -0.72145593826E+02  0.41871476406E+02  0.12635310737E+03  0.89285396327E+02 0.  0.
         23    2    1    2    0    0 -0.19666550532E+01  0.35654496145E+02 -0.16977594152E+03  0.18659796003E+03  0.68700928229E+02 0.  0.
        -13    1    3    3    0    0 -0.21256863146E+00 -0.69100553212E+02  0.57844083546E+02  0.90115867864E+02  0.00000000000E+00 0. -1.
         13    1    3    3    0    0  0.32384272047E+02 -0.30450406133E+01 -0.15972607140E+02  0.36237239508E+02  0.00000000000E+00 0.  1.
        -13    1    4    4    0    0  0.22470424287E+02  0.43974546353E+02 -0.88811165740E+02  0.10161743873E+03  0.00000000000E+00 0. -1.
         13    1    4    4    0    0 -0.24437079340E+02 -0.83200502080E+01 -0.80964775784E+02  0.84980521297E+02  0.00000000000E+00 0.  1.
          2    1    1    2  501    0 -0.30205048362E+02  0.36491097681E+02 -0.23098926926E+02  0.52702045327E+02  0.00000000000E+00 0. -1.
<scales pt_clust_5="13000.00000" pt_clust_6="13000.00000" pt_clust_7="13000.00000" pt_clust_8="13000.00000" pt_clust_9="47.37030"></scales>
<clustering>
<clus scale="   47.370">  2  9  1 -1</clus>
<clus scale="   68.701">  7  8 -1 -1</clus>
<clus scale="   89.285">  5  6 -1 -1</clus>
<clus scale="   98.289">  2  7  1 -1</clus>
<clus scale="   47.370">  2  5  1 -1</clus>
</clustering>
</event>
<event>
 9    1  0.1321469E-005  0.1459015E+03  0.7546771E-02  0.1205954E+00
          2   -1    0    0  502    0 -0.00000000000E+00  0.00000000000E+00  0.82081727595E+03  0.82081727595E+03  0.00000000000E+00 0. -1.
         21   -1    0    0  501  502  0.00000000000E+00 -0.00000000000E+00 -0.32293615125E+02  0.32293615125E+02  0.00000000000E+00 0. -1.
         23    2    1    2    0    0 -0.11800982799E+03 -0.43470311372E+02  0.47033781585E+03  0.49512117184E+03  0.90062901989E+02 0.  0.
         23    2    1    2    0    0  0.93949526565E+02  0.28232646334E+02  0.27756937283E+03  0.30838344594E+03  0.91825906685E+02 0.  0.
        -11    1    3    3    0    0 -0.87467211797E+02 -0.66930730873E+02  0.40050158645E+03  0.41536942187E+03  0.00000000000E+00 0. -1.
         11    1    3    3    0    0 -0.30542616188E+02  0.23460419501E+02  0.69836229403E+02  0.79751749974E+02  0.00000000000E+00 0.  1.
        -13    1    4    4    0    0  0.20993807640E+02 -0.25294917538E+02  0.28925279176E+02  0.43786351617E+02  0.00000000000E+00 0.  1.
         13    1    4    4    0    0  0.72955718925E+02  0.53527563872E+02  0.24864409365E+03  0.26459709433E+03  0.00000000000E+00 0. -1.
          2    1    1    2  501    0  0.24060301420E+02  0.15237665038E+02  0.40616472143E+02  0.49606273288E+02  0.00000000000E+00 0. -1.
<scales pt_clust_5="13000.00000" pt_clust_6="13000.00000" pt_clust_7="13000.00000" pt_clust_8="13000.00000" pt_clust_9="28.47955"></scales>
<clustering>
<clus scale="   28.480">  2  9  1 -1</clus>
<clus scale="   90.063">  5  6 -1 -1</clus>
<clus scale="   91.826">  7  8 -1 -1</clus>
<clus scale="  144.798">  1  5  2 -1</clus>
<clus scale="   28.480">  2  5  1 -1</clus>
</clustering>
</event>
<event>
 9    1  0.1321469E-005  0.9187851E+02  0.7546771E-02  0.1299922E+00
          1   -1    0    0  502    0 -0.00000000000E+00  0.00000000000E+00  0.23042298188E+02  0.23042298188E+02  0.00000000000E+00 0. -1.
         21   -1    0    0  501  502  0.00000000000E+00 -0.00000000000E+00 -0.56303731909E+03  0.56303731909E+03  0.00000000000E+00 0. -1.
         23    2    1    2    0    0 -0.20063499341E+01  0.71210707965E+01 -0.16159477595E+03  0.18583950489E+03  0.91480680323E+02 0.  0.
         23    2    1    2    0    0 -0.21952864263E+02  0.15810945064E+02 -0.22741713413E+03  0.24565738033E+03  0.88865524161E+02 0.  0.
        -11    1    3    3    0    0 -0.37354974776E+02  0.21162961234E+02 -0.40911932954E+02  0.59304732751E+02  0.00000000000E+00 0. -1.
         11    1    3    3    0    0  0.35348624842E+02 -0.14041890437E+02 -0.12068284300E+03  0.12653477213E+03  0.00000000000E+00 0.  1.
        -11    1    4    4    0    0 -0.32723945690E+02  0.47812730047E+02 -0.12401606465E+03  0.13688278953E+03  0.00000000000E+00 0. -1.
         11    1    4    4    0    0  0.10771081427E+02 -0.32001784983E+02 -0.10340106947E+03  0.10877459081E+03  0.00000000000E+00 0.  1.
          1    1    1    2  501    0  0.23959214197E+02 -0.22932015861E+02 -0.15098311082E+03  0.15458273206E+03  0.00000000000E+00 0. -1.
<scales pt_clust_5="13000.00000" pt_clust_6="13000.00000" pt_clust_7="13000.00000" pt_clust_8="13000.00000" pt_clust_9="33.16506"></scales>
<clustering>
<clus scale="   33.165">  2  9  1 -1</clus>
<clus scale="   88.866">  7  8 -1 -1</clus>
<clus scale="   89.275">  2  7  1 -1</clus>
<clus scale="   91.481">  5  6 -1 -1</clus>
<clus scale="   33.165">  2  5  1 -1</clus>
</clustering>
</event>
<event>
 9    1  0.1321469E-005  0.1268466E+03  0.7546771E-02  0.1232459E+00
         21   -1    0    0  501  502  0.00000000000E+00  0.00000000000E+00  0.16242532644E+03  0.16242532644E+03  0.00000000000E+00 0.  1.
         -1   -1    0    0    0  501 -0.00000000000E+00 -0.00000000000E+00 -0.32468635840E+03  0.32468635840E+03  0.00000000000E+00 0.  1.
         23    2    1    2    0    0 -0.86651992255E+01 -0.93479729731E+02 -0.23245243769E+03  0.26639720616E+03  0.90109877982E+02 0.  0.
         23    2    1    2    0    0  0.17681750737E+02  0.71719034693E+02 -0.27355616006E+02  0.12036385587E+03  0.91010240227E+02 0.  0.
        -11    1    3    3    0    0  0.39761021740E+02 -0.55622010871E+02 -0.11353306700E+03  0.13253114444E+03  0.00000000000E+00 0.  1.
         11    1    3    3    0    0 -0.48426220965E+02 -0.37857718860E+02 -0.11891937069E+03  0.13386606172E+03  0.00000000000E+00 0. -1.
        -13    1    4    4    0    0  0.50128160185E+02  0.17711750969E+02 -0.45521842724E+01  0.53359731517E+02  0.00000000000E+00 0.  1.
         13    1    4    4    0    0 -0.32446409448E+02  0.54007283725E+02 -0.22803431733E+02  0.67004124352E+02  0.00000000000E+00 0. -1.
         -1    1    1    2    0  502 -0.90165515114E+01  0.21760695037E+02  0.97547021735E+02  0.10035062281E+03  0.00000000000E+00 0.  1.
<scales pt_clust_5="13000.00000" pt_clust_6="13000.00000" pt_clust_7="13000.00000" pt_clust_8="13000.00000" pt_clust_9="23.55475"></scales>
<clustering>
<clus scale="   23.555">  1  9  2 -1</clus>
<clus scale="   90.110">  5  6 -1 -1</clus>
<clus scale="   91.010">  7  8 -1 -1</clus>
<clus scale="  126.202">  2  5  1 -1</clus>
<clus scale="   23.555">  1  5  2 -1</clus>
</clustering>
</event>
<event>
 9    1  0.1321469E-005  0.1269831E+03  0.7546771E-02  0.1232236E+00
         21   -1    0    0  501  502  0.00000000000E+00  0.00000000000E+00  0.69225929410E+02  0.69225929410E+02  0.00000000000E+00 0.  1.
          2   -1    0    0  502    0 -0.00000000000E+00 -0.00000000000E+00 -0.28291498373E+03  0.28291498373E+03  0.00000000000E+00 0. -1.
         23    2    1    2    0    0 -0.68509658243E+02  0.51197173623E+02 -0.10614121770E+03  0.16426368008E+03  0.91661740328E+02 0.  0.
         23    2    1    2    0    0  0.82420851940E+02 -0.36493349900E+02 -0.74439444905E+02  0.14907144297E+03  0.92499203947E+02 0.  0.
        -11    1    3    3    0    0 -0.87697114233E+02  0.44236525342E+02 -0.63422067447E+02  0.11691882936E+03  0.00000000000E+00 0.  1.
         11    1    3    3    0    0  0.19187455991E+02  0.69606482806E+01 -0.42719150249E+02  0.47344850722E+02  0.00000000000E+00 0. -1.
        -11    1    4    4    0    0 -0.15845526289E+02 -0.16365767962E+02  0.21311986455E+01  0.22879271668E+02  0.00000000000E+00 0. -1.
         11    1    4    4    0    0  0.98266378229E+02 -0.20127581938E+02 -0.76570643551E+02  0.12619217131E+03  0.00000000000E+00 0.  1.
          2    1    1    2  501    0 -0.13911193697E+02 -0.14703823723E+02 -0.33108391723E+02  0.38805790092E+02  0.00000000000E+00 0. -1.
<scales pt_clust_5="13000.00000" pt_clust_6="13000.00000" pt_clust_7="13000.00000" pt_clust_8="13000.00000" pt_clust_9="20.24164"></scales>
<clustering>
<clus scale="   20.242">  1  9  2 -1</clus>
<clus scale="   91.662">  5  6 -1 -1</clus>
<clus scale="   92.499">  7  8 -1 -1</clus>
<clus scale="  126.374">  2  5  1 -1</clus>
<clus scale="   20.242">  1  5  2 -1</clus>
</clustering>
</event>
<event>
 9    1  0.1321469E-005  0.1289127E+03  0.7546771E-02  0.1235485E+00
         21   -1    0    0  501  502  0.00000000000E+00  0.00000000000E+00  0.18429284814E+03  0.18429284814E+03  0.00000000000E+00 0. -1.
          1   -1    0    0  502    0 -0.00000000000E+00 -0.00000000000E+00 -0.16212037433E+03  0.16212037433E+03  0.00000000000E+00 0. -1.
         23    2    1    2    0    0  0.18368526546E+02 -0.10777836528E+03 -0.31240062541E+02  0.15726306785E+03  0.10863771081E+03 0.  0.
         23    2    1    2    0    0  0.18075343510E+02  0.35631846859E+02  0.12348546848E+02  0.98488547430E+02  0.89169281773E+02 0.  0.
        -11    1    3    3    0    0  0.33560752670E+01 -0.21341821216E+02 -0.60928466695E+02  0.64645298575E+02  0.00000000000E+00 0.  1.
         11    1    3    3    0    0  0.15012451279E+02 -0.86436544068E+02  0.29688404154E+02  0.92617769272E+02  0.00000000000E+00 0. -1.
        -13    1    4    4    0    0  0.15196254111E+02 -0.28996651623E+02  0.63139176493E+00  0.32743405442E+02  0.00000000000E+00 0. -1.
         13    1    4    4    0    0  0.28790893990E+01  0.64628498482E+02  0.11717155083E+02  0.65745141988E+02  0.00000000000E+00 0.  1.
          1    1    1    2  501    0 -0.36443870057E+02  0.72146518425E+02  0.41063989498E+02  0.90661607194E+02  0.00000000000E+00 0. -1.
<scales pt_clust_5="13000.00000" pt_clust_6="13000.00000" pt_clust_7="13000.00000" pt_clust_8="13000.00000" pt_clust_9="80.82868"></scales>
<clustering>
<clus scale="   80.829">  1  9  2 -1</clus>
<clus scale="   89.169">  7  8 -1 -1</clus>
<clus scale="  108.638">  5  6 -1 -1</clus>
<clus scale="  112.993">  1  7  2 -1</clus>
<clus scale="   80.829">  1  5  2 -1</clus>
</clustering>
</event>
<event>
 9    1  0.1321469E-005  0.9659760E+02  0.7546771E-02  0.1290913E+00
         21   -1    0    0  501  502  0.00000000000E+00  0.00000000000E+00  0.41097715453E+03  0.41097715453E+03  0.00000000000E+00 0. -1.
         -3   -1    0    0    0  501 -0.00000000000E+00 -0.00000000000E+00 -0.35694213129E+02  0.35694213129E+02  0.00000000000E+00 0.  1.
         23    2    1    2    0    0  0.26058522060E+02  0.45521376254E+01  0.87117867495E+02  0.12506272490E+03  0.85740269379E+02 0.  0.
         23    2    1    2    0    0 -0.34307016481E+02  0.23135852037E+02  0.15158422494E+03  0.18200566738E+03  0.91847954128E+02 0.  0.
        -11    1    3    3    0    0  0.50564952926E+02  0.96359626396E+01  0.85729483697E+02  0.99996052998E+02  0.00000000000E+00 0.  1.
         11    1    3    3    0    0 -0.24506430866E+02 -0.50838250142E+01  0.13883837982E+01  0.25066671900E+02  0.00000000000E+00 0. -1.
        -11    1    4    4    0    0  0.19850172614E+02 -0.17735458672E+02  0.75540733070E+02  0.80093559042E+02  0.00000000000E+00 0.  1.
         11    1    4    4    0    0 -0.54157189095E+02  0.40871310709E+02  0.76043491870E+02  0.10191210834E+03  0.00000000000E+00 0. -1.
         -3    1    1    2    0  502  0.82484944211E+01 -0.27687989662E+02  0.13658084897E+03  0.13960297539E+03  0.00000000000E+00 0.  1.
<scales pt_clust_5="13000.00000" pt_clust_6="13000.00000" pt_clust_7="13000.00000" pt_clust_8="13000.00000" pt_clust_9="28.89052"></scales>
<clustering>
<clus scale="   28.891">  1  9  2 -1</clus>
<clus scale="   85.740">  5  6 -1 -1</clus>
<clus scale="   90.810">  2  5  1 -1</clus>
<clus scale="   91.848">  7  8 -1 -1</clus>
<clus scale="   28.891">  1  5  2 -1</clus>
</clustering>
</event>
<event>
 9    1  0.1321469E-005  0.9348746E+02  0.7546771E-02  0.1294819E+00
          2   -1    0    0  502    0 -0.00000000000E+00  0.00000000000E+00  0.29427486931E+03  0.29427486931E+03  0.00000000000E+00 0. -1.
         21   -1    0    0  501  502  0.00000000000E+00 -0.00000000000E+00 -0.57440830448E+02  0.57440830448E+02  0.00000000000E+00 0.  1.
         23    2    1    2    0    0 -0.13130322872E+02  0.24675240829E+01  0.16821013842E+03  0.19198683767E+03  0.91574019896E+02 0.  0.
         23    2    1    2    0    0  0.19949336798E+02  0.24961807166E+02  0.83100025214E+02  0.12797314839E+03  0.91926300169E+02 0.  0.
        -13    1    4    4    0    0  0.20483743734E+02 -0.17604304923E+02 -0.73627894367E+01  0.27994749105E+02  0.00000000000E+00 0.  1.
         13    1    4    4    0    0 -0.53440693604E+00  0.42566112089E+02  0.90462814651E+02  0.99978399285E+02  0.00000000000E+00 0. -1.
        -13    1    3    3    0    0  0.29291235466E+02 -0.73848181647E+01  0.13181085290E+03  0.13522800360E+03  0.00000000000E+00 0.  1.
         13    1    3    3    0    0 -0.42421558338E+02  0.98523422475E+01  0.36399285515E+02  0.56758834076E+02  0.00000000000E+00 0. -1.
          2    1    1    2  501    0 -0.68190139253E+01 -0.27429331248E+02 -0.14476124771E+02  0.31755713691E+02  0.00000000000E+00 0. -1.
<scales pt_clust_5="13000.00000" pt_clust_6="13000.00000" pt_clust_7="13000.00000" pt_clust_8="13000.00000" pt_clust_9="28.26424"></scales>
<clustering>
<clus scale="   28.264">  2  9  1 -1</clus>
<clus scale="   91.574">  7  8 -1 -1</clus>
<clus scale="   91.926">  5  6 -1 -1</clus>
<clus scale="   93.141">  1  7  2 -1</clus>
<clus scale="   28.264">  2  5  1 -1</clus>
</clustering>
</event>
<event>
 9    1  0.1321469E-005  0.1046598E+03  0.7546771E-02  0.1271282E+00
         21   -1    0    0  501  502  0.00000000000E+00  0.00000000000E+00  0.15919305050E+03  0.15919305050E+03  0.00000000000E+00 0. -1.
         -1   -1    0    0    0  501 -0.00000000000E+00 -0.00000000000E+00 -0.11820989204E+03  0.11820989204E+03  0.00000000000E+00 0.  1.
         23    2    1    2    0    0  0.48249673684E+02 -0.31732169624E+02 -0.44712280595E+02  0.11715477119E+03  0.91602897212E+02 0.  0.
         23    2    1    2    0    0 -0.12712947879E+02  0.35177626322E+02  0.73847649731E+02  0.12263035423E+03  0.90474548744E+02 0.  0.
        -11    1    3    3    0    0  0.65385725459E+02  0.65424790433E+01 -0.33435554874E+02  0.73729461246E+02  0.00000000000E+00 0.  1.
         11    1    3    3    0    0 -0.17136051775E+02 -0.38274648667E+02 -0.11276725721E+02  0.43425309948E+02  0.00000000000E+00 0. -1.
        -13    1    4    4    0    0 -0.33808849360E+02  0.55063576504E+02  0.66502147186E+02  0.92723089535E+02  0.00000000000E+00 0. -1.
         13    1    4    4    0    0  0.21095901481E+02 -0.19885950182E+02  0.73455025445E+01  0.29907264695E+02  0.00000000000E+00 0.  1.
         -1    1    1    2    0  502 -0.35536725804E+02 -0.34454566976E+01  0.11847789326E+02  0.37617817117E+02  0.00000000000E+00 0.  1.
<scales pt_clust_5="13000.00000" pt_clust_6="13000.00000" pt_clust_7="13000.00000" pt_clust_8="13000.00000" pt_clust_9="35.70336"></scales>
<clustering>
<clus scale="   35.703">  1  9  2 -1</clus>
<clus scale="   90.475">  7  8 -1 -1</clus>
<clus scale="   91.603">  5  6 -1 -1</clus>
<clus scale="  103.674">  1  7  2 -1</clus>
<clus scale="   35.703">  1  5  2 -1</clus>
</clustering>
</event>
<event>
 9    1  0.1321469E-005  0.1192435E+03  0.7546771E-02  0.1245893E+00
         21   -1    0    0  501  502  0.00000000000E+00  0.00000000000E+00  0.27568091172E+02  0.27568091172E+02  0.00000000000E+00 0.  1.
          3   -1    0    0  502    0 -0.00000000000E+00 -0.00000000000E+00 -0.81543741201E+03  0.81543741201E+03  0.00000000000E+00 0. -1.
         23    2    1    2    0    0 -0.84074307806E+02 -0.97767771598E+01 -0.47373940679E+03  0.48938127336E+03  0.88887178813E+02 0.  0.
         23    2    1    2    0    0  0.45956778883E+02  0.38205887680E+02 -0.18199359328E+03  0.21319215514E+03  0.93581577455E+02 0.  0.
        -13    1    4    4    0    0  0.60437129665E+02  0.58705602090E+02 -0.12309428903E+03  0.14916835573E+03  0.00000000000E+00 0.  1.
         13    1    4    4    0    0 -0.14480350782E+02 -0.20499714410E+02 -0.58899304258E+02  0.64023799417E+02  0.00000000000E+00 0. -1.
        -13    1    3    3    0    0  0.92619351945E-02  0.29222774570E+02 -0.90916258712E+02  0.95497312725E+02  0.00000000000E+00 0.  1.
         13    1    3    3    0    0 -0.84083569741E+02 -0.38999551730E+02 -0.38282314808E+03  0.39388396063E+03  0.00000000000E+00 0. -1.
          3    1    1    2  501    0  0.38117528923E+02 -0.28429110520E+02 -0.13213632076E+03  0.14043207469E+03  0.00000000000E+00 0. -1.
<scales pt_clust_5="13000.00000" pt_clust_6="13000.00000" pt_clust_7="13000.00000" pt_clust_8="13000.00000" pt_clust_9="47.55168"></scales>
<clustering>
<clus scale="   47.552">  1  9  2 -1</clus>
<clus scale="   88.887">  7  8 -1 -1</clus>
<clus scale="   93.582">  5  6 -1 -1</clus>
<clus scale="  115.596">  2  7  1 -1</clus>
<clus scale="   47.552">  1  5  2 -1</clus>
</clustering>
</event>
<event>
 9    1  0.1321469E-005  0.1532145E+03  0.7546771E-02  0.1198042E+00
         -4   -1    0    0    0  501 -0.00000000000E+00  0.00000000000E+00  0.30330307543E+03  0.30330307543E+03  0.00000000000E+00 0.  1.
         21   -1    0    0  501  502  0.00000000000E+00 -0.00000000000E+00 -0.79325116448E+03  0.79325116448E+03  0.00000000000E+00 0.  1.
         23    2    1    2    0    0 -0.70092128610E+01 -0.10628723213E+03  0.17649668960E+03  0.22887863752E+03  0.99439652538E+02 0.  0.
         23    2    1    2    0    0 -0.69793622250E+02  0.15081591948E+03  0.54392717561E+01  0.18995172302E+03  0.91844869889E+02 0.  0.
        -11    1    4    4    0    0 -0.41091946550E+02  0.15478218869E+03 -0.15287210226E+01  0.16015121291E+03  0.00000000000E+00 0.  1.
         11    1    4    4    0    0 -0.28701675700E+02 -0.39662692129E+01  0.69679927787E+01  0.29800510110E+02  0.00000000000E+00 0. -1.
        -11    1    3    3    0    0  0.17061304257E+02 -0.11770130895E+03  0.14808738645E+03  0.18993304151E+03  0.00000000000E+00 0.  1.
         11    1    3    3    0    0 -0.24070517118E+02  0.11414076813E+02  0.28409303145E+02  0.38945596015E+02  0.00000000000E+00 0. -1.
         -4    1    1    2    0  502  0.76802835111E+02 -0.44528687347E+02 -0.67188405041E+03  0.67772387937E+03  0.00000000000E+00 0.  1.
<scales pt_clust_5="13000.00000" pt_clust_6="13000.00000" pt_clust_7="13000.00000" pt_clust_8="13000.00000" pt_clust_9="88.77770"></scales>
<clustering>
<clus scale="   88.778">  2  9  1 -1</clus>
<clus scale="   91.845">  5  6 -1 -1</clus>
<clus scale="   99.440">  7  8 -1 -1</clus>
<clus scale="  148.398">  2  5  1 -1</clus>
<clus scale="   88.778">  2  5  1 -1</clus>
</clustering>
</event>
<event>
 9    1  0.1321469E-005  0.2713297E+03  0.7546771E-02  0.1139079E+00
          2   -1    0    0  502    0 -0.00000000000E+00  0.00000000000E+00  0.12335135416E+04  0.12335135416E+04  0.00000000000E+00 0. -1.
         21   -1    0    0  501  502  0.00000000000E+00 -0.00000000000E+00 -0.97962144984E+02  0.97962144984E+02  0.00000000000E+00 0. -1.
         23    2    1    2    0    0  0.82445940458E+01  0.47531913928E+02  0.36272451365E+03  0.37716848525E+03  0.91431598972E+02 0.  0.
         23    2    1    2    0    0 -0.18886361966E+03 -0.20976809588E+03  0.54856992684E+03  0.62380002513E+03  0.92333015970E+02 0.  0.
        -11    1    3    3    0    0  0.34657675719E+02  0.62646021405E+02  0.22474083110E+03  0.23586886113E+03  0.00000000000E+00 0.  1.
         11    1    3    3    0    0 -0.26413081673E+02 -0.15114107477E+02  0.13798368255E+03  0.14129962413E+03  0.00000000000E+00 0. -1.
        -13    1    4    4    0    0 -0.11494905305E+03 -0.18709580958E+03  0.39926444778E+03  0.45566459816E+03  0.00000000000E+00 0. -1.
         13    1    4    4    0    0 -0.73914566618E+02 -0.22672286303E+02  0.14930547906E+03  0.16813542697E+03  0.00000000000E+00 0.  1.
          2    1    1    2  501    0  0.18061902562E+03  0.16223618195E+03  0.22425695612E+03  0.33050717619E+03  0.00000000000E+00 0. -1.
<scales pt_clust_5="13000.00000" pt_clust_6="13000.00000" pt_clust_7="13000.00000" pt_clust_8="13000.00000" pt_clust_9="255.13610"></scales>
<clustering>
<clus scale="   91.432">  5  6 -1 -1</clus>
<clus scale="   92.333">  7  8 -1 -1</clus>
<clus scale="  103.378">  1  5  2 -1</clus>
<clus scale="  255.136">  2  9  1 -1</clus>
<clus scale="  255.136">  2  5  1 -1</clus>
</clustering>
</event>
<event>
 9    1  0.1321469E-005  0.1451593E+03  0.7546771E-02  0.1206939E+00
         21   -1    0    0  501  502  0.00000000000E+00  0.00000000000E+00  0.38663532569E+03  0.38663532569E+03  0.00000000000E+00 0.  1.
         -4   -1    0    0    0  501 -0.00000000000E+00 -0.00000000000E+00 -0.13093422969E+03  0.13093422969E+03  0.00000000000E+00 0.  1.
         23    2    1    2    0    0  0.62578206598E+02 -0.93179429492E+02  0.59063902342E+01  0.14368598147E+03  0.89511662945E+02 0.  0.
         23    2    1    2    0    0 -0.38224444787E+02  0.10878932689E+03  0.27496203983E+02  0.14971087596E+03  0.91438937675E+02 0.  0.
        -11    1    3    3    0    0  0.76922327022E+02 -0.36993643053E+02 -0.39697014187E+00  0.85356497152E+02  0.00000000000E+00 0.  1.
         11    1    3    3    0    0 -0.14344120424E+02 -0.56185786439E+02  0.63033603761E+01  0.58329484315E+02  0.00000000000E+00 0. -1.
        -13    1    4    4    0    0 -0.28344990294E+02  0.66442967023E+02 -0.29494417197E+02  0.78025809751E+02  0.00000000000E+00 0.  1.
         13    1    4    4    0    0 -0.98794544926E+01  0.42346359870E+02  0.56990621180E+02  0.71685066212E+02  0.00000000000E+00 0. -1.
         -4    1    1    2    0  502 -0.24353761811E+02 -0.15609897401E+02  0.22229850178E+03  0.22417269795E+03  0.00000000000E+00 0.  1.
<scales pt_clust_5="13000.00000" pt_clust_6="13000.00000" pt_clust_7="13000.00000" pt_clust_8="13000.00000" pt_clust_9="28.92706"></scales>
<clustering>
<clus scale="   28.927">  1  9  2 -1</clus>
<clus scale="   89.512">  5  6 -1 -1</clus>
<clus scale="   91.439">  7  8 -1 -1</clus>
<clus scale="  143.953">  2  5  1 -1</clus>
<clus scale="   28.927">  1  5  2 -1</clus>
</clustering>
</event>
<event>
 9    1  0.1321469E-005  0.1235184E+03  0.7546771E-02  0.1238299E+00
         21   -1    0    0  501  502  0.00000000000E+00  0.00000000000E+00  0.88024598259E+02  0.88024598259E+02  0.00000000000E+00 0.  1.
          1   -1    0    0  502    0 -0.00000000000E+00 -0.00000000000E+00 -0.75990705243E+03  0.75990705243E+03  0.00000000000E+00 0. -1.
         23    2    1    2    0    0 -0.89530995537E+02 -0.68761622960E+01 -0.57042611615E+03  0.58509993175E+03  0.94302149376E+02 0.  0.
         23    2    1    2    0    0  0.39604500848E+02  0.62699758689E+02 -0.13644058406E+03  0.18017080763E+03  0.91354861485E+02 0.  0.
        -11    1    3    3    0    0 -0.69182674614E+02  0.37804753255E+02 -0.29614177908E+03  0.30645618798E+03  0.00000000000E+00 0. -1.
         11    1    3    3    0    0 -0.20348320924E+02 -0.44680915551E+02 -0.27428433708E+03  0.27864374377E+03  0.00000000000E+00 0.  1.
        -13    1    4    4    0    0  0.11106600634E+02  0.64977307565E+02 -0.13649795163E+03  0.15158198400E+03  0.00000000000E+00 0. -1.
         13    1    4    4    0    0  0.28497900214E+02 -0.22775488766E+01  0.57367564989E-01  0.28588823629E+02  0.00000000000E+00 0.  1.
          1    1    1    2  501    0  0.49926494689E+02 -0.55823596393E+02  0.34984246045E+02  0.82660911303E+02  0.00000000000E+00 0. -1.
<scales pt_clust_5="13000.00000" pt_clust_6="13000.00000" pt_clust_7="13000.00000" pt_clust_8="13000.00000" pt_clust_9="74.89278"></scales>
<clustering>
<clus scale="   74.893">  1  9  2 -1</clus>
<clus scale="   91.355">  7  8 -1 -1</clus>
<clus scale="   94.302">  5  6 -1 -1</clus>
<clus scale="  121.283">  1  7  2 -1</clus>
<clus scale="   74.893">  1  5  2 -1</clus>
</clustering>
</event>
<event>
 9    1  0.1321469E-005  0.1484428E+03  0.7546771E-02  0.1206236E+00
         21   -1    0    0  501  502  0.00000000000E+00  0.00000000000E+00  0.28269258319E+03  0.28269258319E+03  0.00000000000E+00 0. -1.
         -1   -1    0    0    0  501 -0.00000000000E+00 -0.00000000000E+00 -0.13928309178E+03  0.13928309178E+03  0.00000000000E+00 0.  1.
         23    2    1    2    0    0  0.45633505936E+02 -0.85183127870E+02 -0.32690719299E+02  0.13599462604E+03  0.89929266910E+02 0.  0.
         23    2    1    2    0    0 -0.58218704962E+02  0.10153169163E+03  0.62375150218E+02  0.17039968297E+03  0.10699201175E+03 0.  0.
        -11    1    4    4    0    0 -0.39393068580E+02  0.92221871331E+02 -0.44202231292E+01  0.10038040534E+03  0.00000000000E+00 0.  1.
         11    1    4    4    0    0 -0.18825636382E+02  0.93098203009E+01  0.66795373348E+02  0.70019277630E+02  0.00000000000E+00 0. -1.
        -13    1    3    3    0    0 -0.20875493013E+02 -0.48742295293E+02 -0.28119318960E+02  0.60019110770E+02  0.00000000000E+00 0. -1.
         13    1    3    3    0    0  0.66508998949E+02 -0.36440832577E+02 -0.45714003393E+01  0.75975515274E+02  0.00000000000E+00 0.  1.
         -1    1    1    2    0  502  0.12585199026E+02 -0.16348563762E+02  0.11372506049E+03  0.11558136595E+03  0.00000000000E+00 0.  1.
<scales pt_clust_5="13000.00000" pt_clust_6="13000.00000" pt_clust_7="13000.00000" pt_clust_8="13000.00000" pt_clust_9="20.63160"></scales>
<clustering>
<clus scale="   20.632">  1  9  2 -1</clus>
<clus scale="   89.929">  7  8 -1 -1</clus>
<clus scale="  106.992">  5  6 -1 -1</clus>
<clus scale="  136.657">  2  7  1 -1</clus>
<clus scale="   20.632">  1  5  2 -1</clus>
</clustering>
</event>
<event>
 9    1  0.1321469E-005  0.9526045E+02  0.7546771E-02  0.1298111E+00
         21   -1    0    0  501  502  0.00000000000E+00  0.00000000000E+00  0.85678573137E+02  0.85678573137E+02  0.00000000000E+00 0.  1.
         -1   -1    0    0    0  501 -0.00000000000E+00 -0.00000000000E+00 -0.18856697963E+03  0.18856697963E+03  0.00000000000E+00 0.  1.
         23    2    1    2    0    0 -0.68941635837E+01  0.16985169724E+02 -0.95452928302E+02  0.12540510403E+03  0.79241107465E+02 0.  0.
         23    2    1    2    0    0 -0.21497777044E+01 -0.38950815120E+02 -0.40638969163E+02  0.10801454686E+03  0.92161971425E+02 0.  0.
        -11    1    3    3    0    0 -0.24245449817E+02  0.41137451713E+02 -0.39220208298E+02  0.61792851603E+02  0.00000000000E+00 0.  1.
         11    1    3    3    0    0  0.17351286233E+02 -0.24152281989E+02 -0.56232720004E+02  0.63612252423E+02  0.00000000000E+00 0. -1.
        -13    1    4    4    0    0  0.19889108038E+02 -0.63819972537E+02 -0.27414686924E+02  0.72250471087E+02  0.00000000000E+00 0.  1.
         13    1    4    4    0    0 -0.22038885742E+02  0.24869157417E+02 -0.13224282239E+02  0.35764075776E+02  0.00000000000E+00 0. -1.
         -1    1    1    2    0  502  0.90439412881E+01  0.21965645396E+02  0.33203490971E+02  0.40825901880E+02  0.00000000000E+00 0.  1.
<scales pt_clust_5="13000.00000" pt_clust_6="13000.00000" pt_clust_7="13000.00000" pt_clust_8="13000.00000" pt_clust_9="23.75463"></scales>
<clustering>
<clus scale="   23.755">  1  9  2 -1</clus>
<clus scale="   79.241">  5  6 -1 -1</clus>
<clus scale="   82.824">  2  5  1 -1</clus>
<clus scale="   92.162">  7  8 -1 -1</clus>
<clus scale="   23.755">  1  5  2 -1</clus>
</clustering>
</event>
<event>
 9    1  0.1321469E-005  0.1138920E+03  0.7546771E-02  0.1253971E+00
         -1   -1    0    0    0  501 -0.00000000000E+00  0.00000000000E+00  0.13294851176E+03  0.13294851176E+03  0.00000000000E+00 0.  1.
         21   -1    0    0  501  502  0.00000000000E+00 -0.00000000000E+00 -0.21261869282E+03  0.21261869282E+03  0.00000000000E+00 0.  1.
         23    2    1    2    0    0 -0.56299140899E+02  0.10210056994E+02  0.45815438957E+02  0.11763613444E+03  0.92007429864E+02 0.  0.
         23    2    1    2    0    0  0.86817790883E+02 -0.46446309756E+02 -0.59108164951E+02  0.14638095946E+03  0.90769056539E+02 0.  0.
        -11    1    3    3    0    0 -0.50599922670E+02 -0.32511458218E+02  0.43958272113E+02  0.74496152766E+02  0.00000000000E+00 0.  1.
         11    1    3    3    0    0 -0.56992182288E+01  0.42721515213E+02  0.18571668443E+01  0.43139981678E+02  0.00000000000E+00 0. -1.
        -11    1    4    4    0    0  0.10165680964E+02 -0.20180567100E+02  0.22139770353E+02  0.31634882475E+02  0.00000000000E+00 0.  1.
         11    1    4    4    0    0  0.76652109919E+02 -0.26265742656E+02 -0.81247935304E+02  0.11474607699E+03  0.00000000000E+00 0. -1.
         -1    1    1    2    0  502 -0.30518649984E+02  0.36236252761E+02 -0.66377455062E+02  0.81550110677E+02  0.00000000000E+00 0.  1.
<scales pt_clust_5="13000.00000" pt_clust_6="13000.00000" pt_clust_7="13000.00000" pt_clust_8="13000.00000" pt_clust_9="47.37567"></scales>
<clustering>
<clus scale="   47.376">  2  9  1 -1</clus>
<clus scale="   90.769">  7  8 -1 -1</clus>
<clus scale="   92.007">  5  6 -1 -1</clus>
<clus scale="  112.894">  2  7  1 -1</clus>
<clus scale="   47.376">  2  5  1 -1</clus>
</clustering>
</event>
<event>
 9    1  0.1321469E-005  0.1012416E+03  0.7546771E-02  0.1277754E+00
         21   -1    0    0  501  502  0.00000000000E+00  0.00000000000E+00  0.79701781860E+03  0.79701781860E+03  0.00000000000E+00 0.  1.
         -1   -1    0    0    0  501 -0.00000000000E+00 -0.00000000000E+00 -0.84432399723E+02  0.84432399723E+02  0.00000000000E+00 0.  1.
         23    2    1    2    0    0  0.11425155905E+02  0.25910546217E+02  0.17905371959E+02  0.99038799695E+02  0.93199736627E+02 0.  0.
         23    2    1    2    0    0  0.67667431126E+02 -0.49401987701E+02  0.53920993430E+02  0.13636215598E+03  0.93100625272E+02 0.  0.
        -11    1    4    4    0    0 -0.75294286047E+01 -0.46487246252E+02  0.68209481037E+01  0.47584469023E+02  0.00000000000E+00 0. -1.
         11    1    4    4    0    0  0.75196859731E+02 -0.29147414495E+01  0.47100045326E+02  0.88777686954E+02  0.00000000000E+00 0.  1.
        -13    1    3    3    0    0  0.38131747016E+02  0.72668439245E+01 -0.24247528538E+02  0.45768764363E+02  0.00000000000E+00 0.  1.
         13    1    3    3    0    0 -0.26706591111E+02  0.18643702292E+02  0.42152900497E+02  0.53270035332E+02  0.00000000000E+00 0. -1.
         -1    1    1    2    0  502 -0.79092587031E+02  0.23491441484E+02  0.64075905349E+03  0.64604926265E+03  0.00000000000E+00 0.  1.
<scales pt_clust_5="13000.00000" pt_clust_6="13000.00000" pt_clust_7="13000.00000" pt_clust_8="13000.00000" pt_clust_9="82.50749"></scales>
<clustering>
<clus scale="   82.507">  1  9  2 -1</clus>
<clus scale="   93.101">  5  6 -1 -1</clus>
<clus scale="   93.200">  7  8 -1 -1</clus>
<clus scale="  101.150">  1  5  2 -1</clus>
<clus scale="   82.507">  1  5  2 -1</clus>
</clustering>
</event>
<event>
 9    1  0.1321469E-005  0.1926699E+03  0.7546771E-02  0.1162594E+00
          1   -1    0    0  502    0 -0.00000000000E+00  0.00000000000E+00  0.54421648885E+03  0.54421648885E+03  0.00000000000E+00 0. -1.
         21   -1    0    0  501  502  0.00000000000E+00 -0.00000000000E+00 -0.15288688651E+03  0.15288688651E+03  0.00000000000E+00 0. -1.
         23    2    1    2    0    0  0.34488390012E+02 -0.13346604748E+03  0.16520895550E+03  0.23385624306E+03  0.91608452475E+02 0.  0.
         23    2    1    2    0    0 -0.18836849359E+03  0.58879444001E+02  0.18697334035E+03  0.28781977041E+03  0.94507734771E+02 0.  0.
        -11    1    4    4    0    0 -0.52640409454E+02 -0.11282145658E+02  0.11319666680E+02  0.55013038199E+02  0.00000000000E+00 0.  1.
         11    1    4    4    0    0 -0.13572808414E+03  0.70161589659E+02  0.17565367367E+03  0.23280673221E+03  0.00000000000E+00 0. -1.
        -13    1    3    3    0    0  0.52666109979E+02 -0.40999416441E+02  0.42456388751E+02  0.79102567813E+02  0.00000000000E+00 0. -1.
         13    1    3    3    0    0 -0.18177719966E+02 -0.92466631037E+02  0.12275256675E+03  0.15475367525E+03  0.00000000000E+00 0.  1.
          1    1    1    2  501    0  0.15388010358E+03  0.74586603477E+02  0.39147306481E+02  0.17542736189E+03  0.00000000000E+00 0. -1.
<scales pt_clust_5="13000.00000" pt_clust_6="13000.00000" pt_clust_7="13000.00000" pt_clust_8="13000.00000" pt_clust_9="167.89877"></scales>
<clustering>
<clus scale="   91.608">  7  8 -1 -1</clus>
<clus scale="   94.508">  5  6 -1 -1</clus>
<clus scale="  165.514">  1  7  2 -1</clus>
<clus scale="  167.899">  2  9  1 -1</clus>
<clus scale="  167.899">  2  5  1 -1</clus>
</clustering>
</event>
<event>
 9    1  0.1321469E-005  0.9580712E+02  0.7546771E-02  0.1290009E+00
         21   -1    0    0  501  502  0.00000000000E+00  0.00000000000E+00  0.33446956182E+03  0.33446956182E+03  0.00000000000E+00 0.  1.
         -4   -1    0    0    0  501 -0.00000000000E+00 -0.00000000000E+00 -0.21797322501E+03  0.21797322501E+03  0.00000000000E+00 0.  1.
         23    2    1    2    0    0 -0.35270216157E+02 -0.16662924258E+02 -0.16192187901E+03  0.18882216786E+03  0.88957714565E+02 0.  0.
         23    2    1    2    0    0  0.12904083460E+02 -0.12953954909E+02  0.98884995651E+01  0.92538321632E+02  0.90173378716E+02 0.  0.
        -13    1    3    3    0    0  0.24290491712E+02  0.11120769687E+02 -0.76583303292E+02  0.81109197069E+02  0.00000000000E+00 0.  1.
         13    1    3    3    0    0 -0.59560707869E+02 -0.27783693944E+02 -0.85338575715E+02  0.10771297079E+03  0.00000000000E+00 0. -1.
        -13    1    4    4    0    0  0.46926351949E+02 -0.25567630106E+02  0.15908201229E+02  0.55757125848E+02  0.00000000000E+00 0.  1.
         13    1    4    4    0    0 -0.34022268489E+02  0.12613675197E+02 -0.60197016643E+01  0.36781195783E+02  0.00000000000E+00 0. -1.
         -4    1    1    2    0  502  0.22366132697E+02  0.29616879167E+02  0.26852971625E+03  0.27108229734E+03  0.00000000000E+00 0.  1.
<scales pt_clust_5="13000.00000" pt_clust_6="13000.00000" pt_clust_7="13000.00000" pt_clust_8="13000.00000" pt_clust_9="37.11339"></scales>
<clustering>
<clus scale="   37.113">  1  9  2 -1</clus>
<clus scale="   88.958">  5  6 -1 -1</clus>
<clus scale="   90.173">  7  8 -1 -1</clus>
<clus scale="   94.664">  2  5  1 -1</clus>
<clus scale="   37.113">  1  5  2 -1</clus>
</clustering>
</event>
<event>
 9    1  0.1321469E-005  0.1328394E+03  0.7546771E-02  0.1242792E+00
          3   -1    0    0  502    0 -0.00000000000E+00  0.00000000000E+00  0.74568930236E+02  0.74568930236E+02  0.00000000000E+00 0. -1.
         21   -1    0    0  501  502  0.00000000000E+00 -0.00000000000E+00 -0.54956603868E+03  0.54956603868E+03  0.00000000000E+00 0. -1.
         23    2    1    2    0    0 -0.12407741058E+02  0.26040283660E+02 -0.10459054729E+03  0.13733648557E+03  0.84202608481E+02 0.  0.
         23    2    1    2    0    0 -0.83143904955E+02 -0.59661936182E+01 -0.23592436337E+02  0.12650260033E+03  0.92183515014E+02 0.  0.
        -11    1    3    3    0    0 -0.48118178051E+02  0.17998894556E+02 -0.50613862248E+02  0.72118529629E+02  0.00000000000E+00 0. -1.
         11    1    3    3    0    0  0.35710436993E+02  0.80413891037E+01 -0.53976685047E+02  0.65217955944E+02  0.00000000000E+00 0.  1.
        -13    1    4    4    0    0  0.18045355167E+02 -0.13288868650E+02 -0.31534092658E+00  0.22412681968E+02  0.00000000000E+00 0.  1.
         13    1    4    4    0    0 -0.10118926012E+03  0.73226750315E+01 -0.23277095410E+02  0.10408991836E+03  0.00000000000E+00 0. -1.
          3    1    1    2  501    0  0.95551646013E+02 -0.20074090042E+02 -0.34681412482E+03  0.36029588302E+03  0.00000000000E+00 0. -1.
<scales pt_clust_5="13000.00000" pt_clust_6="13000.00000" pt_clust_7="13000.00000" pt_clust_8="13000.00000" pt_clust_9="95.64779"></scales>
<clustering>
<clus scale="   84.203">  5  6 -1 -1</clus>
<clus scale="   89.006">  1  5  2 -1</clus>
<clus scale="   92.184">  7  8 -1 -1</clus>
<clus scale="   95.648">  2  9  1 -1</clus>
<clus scale="   95.648">  2  5  1 -1</clus>
</clustering>
</event>
<event>
 9    1  0.1321469E-005  0.9936309E+02  0.7546771E-02  0.1282610E+00
         -3   -1    0    0    0  501 -0.00000000000E+00  0.00000000000E+00  0.14930230978E+03  0.14930230978E+03  0.00000000000E+00 0.  1.
         21   -1    0    0  501  502  0.00000000000E+00 -0.00000000000E+00 -0.12602954170E+03  0.12602954170E+03  0.00000000000E+00 0.  1.
         23    2    1    2    0    0 -0.29075656524E+02  0.60525264775E+01  0.72471308414E+02  0.12136236649E+03  0.92707640339E+02 0.  0.
         23    2    1    2    0    0  0.18350704391E+02 -0.43139369712E+02 -0.46180515257E+02  0.11524524174E+03  0.94610106144E+02 0.  0.
        -11    1    3    3    0    0 -0.48837413627E+02  0.18500998545E+02  0.81102823905E+02  0.96462676525E+02  0.00000000000E+00 0.  1.
         11    1    3    3    0    0  0.19761757103E+02 -0.12448472067E+02 -0.86315154907E+01  0.24899689963E+02  0.00000000000E+00 0. -1.
        -13    1    4    4    0    0  0.47757202961E+02 -0.30014371003E+02 -0.58034936182E+02  0.80930011238E+02  0.00000000000E+00 0.  1.
         13    1    4    4    0    0 -0.29406498570E+02 -0.13124998709E+02  0.11854420925E+02  0.34315230507E+02  0.00000000000E+00 0. -1.
         -3    1    1    2    0  502  0.10724952133E+02  0.37086843234E+02 -0.30180250829E+01  0.38724243243E+02  0.00000000000E+00 0.  1.
<scales pt_clust_5="13000.00000" pt_clust_6="13000.00000" pt_clust_7="13000.00000" pt_clust_8="13000.00000" pt_clust_9="38.60646"></scales>
<clustering>
<clus scale="   38.606">  2  9  1 -1</clus>
<clus scale="   92.708">  5  6 -1 -1</clus>
<clus scale="   94.610">  7  8 -1 -1</clus>
<clus scale="   97.553">  1  5  2 -1</clus>
<clus scale="   38.606">  2  5  1 -1</clus>
</clustering>
</event>
<event>
 9    1  0.1321469E-005  0.9152092E+02  0.7546771E-02  0.1301022E+00
          1   -1    0    0  502    0 -0.00000000000E+00  0.00000000000E+00  0.43405973873E+02  0.43405973873E+02  0.00000000000E+00 0. -1.
         21   -1    0    0  501  502  0.00000000000E+00 -0.00000000000E+00 -0.42787783458E+03  0.42787783458E+03  0.00000000000E+00 0.  1.
         23    2    1    2    0    0  0.53447710563E+01  0.44925808069E+01 -0.40838610842E+02  0.97667907606E+02  0.88444774750E+02 0.  0.
         23    2    1    2    0    0  0.34210969811E+02  0.20603138747E+02 -0.23564279996E+03  0.25590273656E+03  0.91453822368E+02 0.  0.
        -11    1    4    4    0    0  0.62922582066E+02  0.27900447391E+02 -0.18269249894E+03  0.19522867481E+03  0.00000000000E+00 0.  1.
         11    1    4    4    0    0 -0.28711612254E+02 -0.72973086441E+01 -0.52950301018E+02  0.60674061753E+02  0.00000000000E+00 0. -1.
        -11    1    3    3    0    0  0.23984110336E+02 -0.32764563891E+02 -0.19084333597E+01  0.40649677901E+02  0.00000000000E+00 0.  1.
         11    1    3    3    0    0 -0.18639339279E+02  0.37257144698E+02 -0.38930177483E+02  0.57018229705E+02  0.00000000000E+00 0. -1.
          1    1    1    2  501    0 -0.39555740868E+02 -0.25095719553E+02 -0.10799044991E+03  0.11771316429E+03  0.00000000000E+00 0. -1.
<scales pt_clust_5="13000.00000" pt_clust_6="13000.00000" pt_clust_7="13000.00000" pt_clust_8="13000.00000" pt_clust_9="46.84498"></scales>
<clustering>
<clus scale="   46.845">  2  9  1 -1</clus>
<clus scale="   88.445">  7  8 -1 -1</clus>
<clus scale="   88.514">  1  7  2 -1</clus>
<clus scale="   91.454">  5  6 -1 -1</clus>
<clus scale="   46.845">  2  5  1 -1</clus>
</clustering>
</event>
<event>
 9    1  0.1321469E-005  0.9252719E+02  0.7546771E-02  0.1298019E+00
         -2   -1    0    0    0  501 -0.00000000000E+00  0.00000000000E+00  0.72544546440E+02  0.72544546440E+02  0.00000000000E+00 0.  1.
         21   -1    0    0  501  502  0.00000000000E+00 -0.00000000000E+00 -0.18365936826E+03  0.18365936826E+03  0.00000000000E+00 0.  1.
         23    2    1    2    0    0 -0.23987015332E+01 -0.18739623844E+02 -0.15991527276E+02  0.93661478244E+02  0.90331701476E+02 0.  0.
         23    2    1    2    0    0 -0.79316057984E+01 -0.12191572978E+02 -0.47547740566E+02  0.10486325891E+03  0.92325351953E+02 0.  0.
        -13    1    3    3    0    0 -0.44663274306E+02 -0.48116348800E+01  0.35452522533E+01  0.45061388300E+02  0.00000000000E+00 0. -1.
         13    1    3    3    0    0  0.42264572773E+02 -0.13927988964E+02 -0.19536779529E+02  0.48600089945E+02  0.00000000000E+00 0.  1.
        -13    1    4    4    0    0  0.35556672025E+02  0.18417574638E+02 -0.16722414230E+02  0.43394966514E+02  0.00000000000E+00 0. -1.
         13    1    4    4    0    0 -0.43488277824E+02 -0.30609147616E+02 -0.30825326336E+02  0.61468292392E+02  0.00000000000E+00 0.  1.
         -2    1    1    2    0  502  0.10330307332E+02  0.30931196821E+02 -0.47575553975E+02  0.57679177546E+02  0.00000000000E+00 0.  1.
<scales pt_clust_5="13000.00000" pt_clust_6="13000.00000" pt_clust_7="13000.00000" pt_clust_8="13000.00000" pt_clust_9="32.61065"></scales>
<clustering>
<clus scale="   32.611">  2  9  1 -1</clus>
<clus scale="   90.332">  5  6 -1 -1</clus>
<clus scale="   90.538">  1  5  2 -1</clus>
<clus scale="   92.325">  7  8 -1 -1</clus>
<clus scale="   32.611">  2  5  1 -1</clus>
</clustering>
</event>
<event>
 9    1  0.1321469E-005  0.1122035E+03  0.7546771E-02  0.1256597E+00
         -3   -1    0    0    0  501 -0.00000000000E+00  0.00000000000E+00  0.30585656086E+03  0.30585656086E+03  0.00000000000E+00 0.  1.
         21   -1    0    0  501  502  0.00000000000E+00 -0.00000000000E+00 -0.67989624734E+02  0.67989624734E+02  0.00000000000E+00 0. -1.
         23    2    1    2    0    0 -0.30245304242E+02 -0.34280027550E+02  0.10427740728E+03  0.14700118572E+03  0.92982106961E+02 0.  0.
         23    2    1    2    0    0  0.77973291043E+02  0.38048836425E+02  0.12492275776E+03  0.17819032317E+03  0.92836134109E+02 0.  0.
        -13    1    4    4    0    0 -0.12536839622E+02  0.24717714860E+02  0.59745695065E+02  0.65861110334E+02  0.00000000000E+00 0.  1.
         13    1    4    4    0    0  0.90510130666E+02  0.13331121564E+02  0.65177062697E+02  0.11232921284E+03  0.00000000000E+00 0. -1.
        -13    1    3    3    0    0  0.30045713168E+02 -0.23330894542E+02  0.61339762095E+02  0.72177849329E+02  0.00000000000E+00 0. -1.
         13    1    3    3    0    0 -0.60291017410E+02 -0.10949133008E+02  0.42937645188E+02  0.74823336388E+02  0.00000000000E+00 0.  1.
         -3    1    1    2    0  502 -0.47727986802E+02 -0.37688088745E+01  0.86667710841E+01  0.48654676707E+02  0.00000000000E+00 0.  1.
<scales pt_clust_5="13000.00000" pt_clust_6="13000.00000" pt_clust_7="13000.00000" pt_clust_8="13000.00000" pt_clust_9="47.87656"></scales>
<clustering>
<clus scale="   47.877">  2  9  1 -1</clus>
<clus scale="   92.836">  5  6 -1 -1</clus>
<clus scale="   92.982">  7  8 -1 -1</clus>
<clus scale="  112.083">  2  5  1 -1</clus>
<clus scale="   47.877">  2  5  1 -1</clus>
</clustering>
</event>
<event>
 9    1  0.1321469E-005  0.1493171E+03  0.7546771E-02  0.1202456E+00
         21   -1    0    0  501  502  0.00000000000E+00  0.00000000000E+00  0.15099562183E+03  0.15099562183E+03  0.00000000000E+00 0.  1.
          1   -1    0    0  502    0 -0.00000000000E+00 -0.00000000000E+00 -0.22969157586E+03  0.22969157586E+03  0.00000000000E+00 0. -1.
         23    2    1    2    0    0  0.11519388650E+03  0.67536542295E+02 -0.10284908013E+03  0.19479044216E+03  0.97645107613E+02 0.  0.
         23    2    1    2    0    0 -0.78185052655E+02 -0.38444960304E+02 -0.10968667015E+02  0.12716418980E+03  0.91975551527E+02 0.  0.
        -13    1    3    3    0    0  0.65848267064E+02  0.72339162004E+02 -0.22498385093E+02  0.10037492698E+03  0.00000000000E+00 0.  1.
         13    1    3    3    0    0  0.49345619441E+02 -0.48026197094E+01 -0.80350695032E+02  0.94415515178E+02  0.00000000000E+00 0. -1.
        -13    1    4    4    0    0 -0.96675837155E+02 -0.27499430266E+02 -0.22178005721E+02  0.10292861649E+03  0.00000000000E+00 0. -1.
         13    1    4    4    0    0  0.18490784500E+02 -0.10945530038E+02  0.11209338707E+02  0.24235573306E+02  0.00000000000E+00 0.  1.
          1    1    1    2  501    0 -0.37008833849E+02 -0.29091581991E+02  0.35121793110E+02  0.58732565727E+02  0.00000000000E+00 0. -1.
<scales pt_clust_5="13000.00000" pt_clust_6="13000.00000" pt_clust_7="13000.00000" pt_clust_8="13000.00000" pt_clust_9="47.07413"></scales>
<clustering>
<clus scale="   47.074">  1  9  2 -1</clus>
<clus scale="   91.976">  7  8 -1 -1</clus>
<clus scale="   97.645">  5  6 -1 -1</clus>
<clus scale="  145.673">  1  7  2 -1</clus>
<clus scale="   47.074">  1  5  2 -1</clus>
</clustering>
</event>
<event>
 9    1  0.1321469E-005  0.1862031E+03  0.7546771E-02  0.1162681E+00
         21   -1    0    0  501  502  0.00000000000E+00  0.00000000000E+00  0.32844920871E+03  0.32844920871E+03  0.00000000000E+00 0. -1.
          2   -1    0    0  502    0 -0.00000000000E+00 -0.00000000000E+00 -0.69888697872E+03  0.69888697872E+03  0.00000000000E+00 0. -1.
         23    2    1    2    0    0  0.13217994735E+02 -0.15377580654E+03 -0.50054102960E+03  0.53166543402E+03  0.91132306896E+02 0.  0.
         23    2    1    2    0    0 -0.60476818707E+01  0.19460202683E+03 -0.11890246229E+03  0.24323849878E+03  0.84383934773E+02 0.  0.
        -11    1    4    4    0    0 -0.10507666180E+02  0.13026320539E+03 -0.31170873570E+02  0.13435228724E+03  0.00000000000E+00 0.  1.
         11    1    4    4    0    0  0.44599843089E+01  0.64338821440E+02 -0.87731588724E+02  0.10888621154E+03  0.00000000000E+00 0. -1.
        -13    1    3    3    0    0  0.52458675733E+02 -0.80028216414E+02 -0.26408361282E+03  0.28088535498E+03  0.00000000000E+00 0.  1.
         13    1    3    3    0    0 -0.39240680999E+02 -0.73747590128E+02 -0.23645741677E+03  0.25078007904E+03  0.00000000000E+00 0. -1.
          2    1    1    2  501    0 -0.71703128638E+01 -0.40826220287E+02  0.24900572188E+03  0.25243225463E+03  0.00000000000E+00 0. -1.
<scales pt_clust_5="13000.00000" pt_clust_6="13000.00000" pt_clust_7="13000.00000" pt_clust_8="13000.00000" pt_clust_9="41.45110"></scales>
<clustering>
<clus scale="   41.451">  1  9  2 -1</clus>
<clus scale="   84.384">  5  6 -1 -1</clus>
<clus scale="   91.132">  7  8 -1 -1</clus>
<clus scale="  182.995">  1  5  2 -1</clus>
<clus scale="   41.451">  1  5  2 -1</clus>
</clustering>
</event>
<event>
 9    1  0.1321469E-005  0.1253383E+03  0.7546771E-02  0.1244500E+00
          1   -1    0    0  502    0 -0.00000000000E+00  0.00000000000E+00  0.20017142397E+03  0.20017142397E+03  0.00000000000E+00 0. -1.
         21   -1    0    0  501  502  0.00000000000E+00 -0.00000000000E+00 -0.12405093806E+03  0.12405093806E+03  0.00000000000E+00 0. -1.
         23    2    1    2    0    0 -0.30784926398E+02 -0.36480469219E+02  0.11334638557E+03  0.15288784659E+03  0.90822652371E+02 0.  0.
         23    2    1    2    0    0  0.10498425317E+02  0.49018277155E+02  0.78675443173E+00  0.12646023969E+03  0.11609722137E+03 0.  0.
        -11    1    4    4    0    0  0.58615360344E+02  0.42833369540E+02 -0.17394002916E+02  0.74652591059E+02  0.00000000000E+00 0.  1.
         11    1    4    4    0    0 -0.48116935026E+02  0.61849076149E+01  0.18180757348E+02  0.51807648627E+02  0.00000000000E+00 0. -1.
        -13    1    3    3    0    0  0.20044794192E+02 -0.18031193548E+02 -0.37595457177E+00  0.26964032651E+02  0.00000000000E+00 0. -1.
         13    1    3    3    0    0 -0.50829720591E+02 -0.18449275671E+02  0.11372234015E+03  0.12592381394E+03  0.00000000000E+00 0.  1.
          1    1    1    2  501    0  0.20286501081E+02 -0.12537807936E+02 -0.38012654096E+02  0.44874275764E+02  0.00000000000E+00 0. -1.
<scales pt_clust_5="13000.00000" pt_clust_6="13000.00000" pt_clust_7="13000.00000" pt_clust_8="13000.00000" pt_clust_9="23.84824"></scales>
<clustering>
<clus scale="   23.848">  2  9  1 -1</clus>
<clus scale="   90.823">  7  8 -1 -1</clus>
<clus scale="  102.371">  1  7  2 -1</clus>
<clus scale="  116.097">  5  6 -1 -1</clus>
<clus scale="   23.848">  2  5  1 -1</clus>
</clustering>
</event>
<event>
 9    1  0.1321469E-005  0.1546829E+03  0.7546771E-02  0.1195017E+00
         21   -1    0    0  501  502  0.00000000000E+00  0.00000000000E+00  0.13792909774E+03  0.13792909774E+03  0.00000000000E+00 0.  1.
          1   -1    0    0  502    0 -0.00000000000E+00 -0.00000000000E+00 -0.35492271856E+03  0.35492271856E+03  0.00000000000E+00 0. -1.
         23    2    1    2    0    0  0.75215619018E+02  0.71516663420E+02 -0.14105574971E+03  0.19780946056E+03  0.91977364993E+02 0.  0.
         23    2    1    2    0    0 -0.12377230692E+03 -0.13526735063E+03 -0.48381054403E+02  0.21029992123E+03  0.90931239630E+02 0.  0.
        -11    1    4    4    0    0 -0.10200308717E+03 -0.57392604048E+02 -0.54701898155E+02  0.12919302788E+03  0.00000000000E+00 0. -1.
         11    1    4    4    0    0 -0.21769219744E+02 -0.77874746581E+02  0.63208437518E+01  0.81106893351E+02  0.00000000000E+00 0.  1.
        -11    1    3    3    0    0  0.38674053270E+02  0.12146318004E+02 -0.78422401345E-01  0.40536669665E+02  0.00000000000E+00 0.  1.
         11    1    3    3    0    0  0.36541565747E+02  0.59370345416E+02 -0.14097732731E+03  0.15727279090E+03  0.00000000000E+00 0. -1.
          1    1    1    2  501    0  0.48556687897E+02  0.63750687210E+02 -0.27556816703E+02  0.84742434506E+02  0.00000000000E+00 0. -1.
<scales pt_clust_5="13000.00000" pt_clust_6="13000.00000" pt_clust_7="13000.00000" pt_clust_8="13000.00000" pt_clust_9="80.13677"></scales>
<clustering>
<clus scale="   80.137">  1  9  2 -1</clus>
<clus scale="   90.931">  5  6 -1 -1</clus>
<clus scale="   91.977">  7  8 -1 -1</clus>
<clus scale="  154.063">  1  5  2 -1</clus>
<clus scale="   80.137">  1  5  2 -1</clus>
</clustering>
</event>
<event>
 9    1  0.1321469E-005  0.1125536E+03  0.7546771E-02  0.1259697E+00
         21   -1    0    0  501  502  0.00000000000E+00  0.00000000000E+00  0.10406028532E+03  0.10406028532E+03  0.00000000000E+00 0. -1.
         -1   -1    0    0    0  501 -0.00000000000E+00 -0.00000000000E+00 -0.16817357127E+03  0.16817357127E+03  0.00000000000E+00 0.  1.
         23    2    1    2    0    0 -0.34377492866E+02 -0.53470841788E+02 -0.57144055747E+02  0.12184175525E+03  0.86827572103E+02 0.  0.
         23    2    1    2    0    0  0.11570402444E+02  0.51855661178E+02 -0.33784231982E+02  0.11515268445E+03  0.96415157506E+02 0.  0.
        -11    1    3    3    0    0 -0.57703900977E+02 -0.58958207966E+02 -0.51400483611E+02  0.97199898097E+02  0.00000000000E+00 0. -1.
         11    1    3    3    0    0  0.23326408112E+02  0.54873661776E+01 -0.57435721362E+01  0.24641857151E+02  0.00000000000E+00 0.  1.
        -13    1    4    4    0    0  0.35049735264E+02 -0.92707520217E+01 -0.33953747290E+02  0.49671800251E+02  0.00000000000E+00 0. -1.
         13    1    4    4    0    0 -0.23479332820E+02  0.61126413200E+02  0.16951530820E+00  0.65480884202E+02  0.00000000000E+00 0.  1.
         -1    1    1    2    0  502  0.22807090421E+02  0.16151806100E+01  0.26815001781E+02  0.35239416885E+02  0.00000000000E+00 0.  1.
<scales pt_clust_5="13000.00000" pt_clust_6="13000.00000" pt_clust_7="13000.00000" pt_clust_8="13000.00000" pt_clust_9="22.86421"></scales>
<clustering>
<clus scale="   22.864">  1  9  2 -1</clus>
<clus scale="   86.828">  5  6 -1 -1</clus>
<clus scale="   96.415">  7  8 -1 -1</clus>
<clus scale="  104.458">  2  5  1 -1</clus>
<clus scale="   22.864">  1  5  2 -1</clus>
</clustering>
</event>
<event>
 9    1  0.1321469E-005  0.1174973E+03  0.7546771E-02  0.1248144E+00
         21   -1    0    0  501  502  0.00000000000E+00  0.00000000000E+00  0.51195395105E+02  0.51195395105E+02  0.00000000000E+00 0.  1.
          1   -1    0    0  502    0 -0.00000000000E+00 -0.00000000000E+00 -0.40650969798E+03  0.40650969798E+03  0.00000000000E+00 0. -1.
         23    2    1    2    0    0  0.15460469518E+02  0.86168434988E+02 -0.20865473582E+03  0.24498239992E+03  0.93891172032E+02 0.  0.
         23    2    1    2    0    0  0.90720542058E+01 -0.47594570788E+02 -0.75098105790E+02  0.12780608432E+03  0.91362598251E+02 0.  0.
        -11    1    4    4    0    0  0.11139856744E+02 -0.71522096909E+02 -0.33472902129E+02  0.79749244081E+02  0.00000000000E+00 0.  1.
         11    1    4    4    0    0 -0.20678025385E+01  0.23927526122E+02 -0.41625203661E+02  0.48056840236E+02  0.00000000000E+00 0. -1.
        -11    1    3    3    0    0 -0.37886090234E+02  0.45254987251E+02 -0.11990835087E+03  0.13364648261E+03  0.00000000000E+00 0.  1.
         11    1    3    3    0    0  0.53346559752E+02  0.40913447736E+02 -0.88746384945E+02  0.11133591731E+03  0.00000000000E+00 0. -1.
          1    1    1    2  501    0 -0.24532523724E+02 -0.38573864200E+02 -0.71561461264E+02  0.84916608846E+02  0.00000000000E+00 0. -1.
<scales pt_clust_5="13000.00000" pt_clust_6="13000.00000" pt_clust_7="13000.00000" pt_clust_8="13000.00000" pt_clust_9="45.71422"></scales>
<clustering>
<clus scale="   45.714">  1  9  2 -1</clus>
<clus scale="   91.363">  5  6 -1 -1</clus>
<clus scale="   93.891">  7  8 -1 -1</clus>
<clus scale="  115.487">  1  5  2 -1</clus>
<clus scale="   45.714">  1  5  2 -1</clus>
</clustering>
</event>
<event>
 9    1  0.1321469E-005  0.1850314E+03  0.7546771E-02  0.1163162E+00
         21   -1    0    0  501  502  0.00000000000E+00  0.00000000000E+00  0.29616497484E+02  0.29616497484E+02  0.00000000000E+00 0. -1.
          1   -1    0    0  502    0 -0.00000000000E+00 -0.00000000000E+00 -0.17541738803E+04  0.17541738803E+04  0.00000000000E+00 0. -1.
         23    2    1    2    0    0  0.11132787818E+03 -0.10173188686E+03 -0.98994469756E+03  0.10056233348E+04  0.92436540254E+02 0.  0.
         23    2    1    2    0    0 -0.11179253125E+03  0.13945899582E+03 -0.69530009282E+03  0.72367823151E+03  0.91222706245E+02 0.  0.
        -11    1    3    3    0    0  0.96931315470E+02 -0.26991095418E+02 -0.54299754045E+03  0.55224136759E+03  0.00000000000E+00 0.  1.
         11    1    3    3    0    0  0.14396562711E+02 -0.74740791442E+02 -0.44694715711E+03  0.45338196719E+03  0.00000000000E+00 0. -1.
        -13    1    4    4    0    0 -0.33817323322E+02  0.91726891618E+02 -0.23742034850E+03  0.25676030823E+03  0.00000000000E+00 0.  1.
         13    1    4    4    0    0 -0.77975207926E+02  0.47732104207E+02 -0.45787974431E+03  0.46691792328E+03  0.00000000000E+00 0. -1.
          1    1    1    2  501    0  0.46465306805E+00 -0.37727108965E+02 -0.39312592456E+02  0.54488811502E+02  0.00000000000E+00 0. -1.
<scales pt_clust_5="13000.00000" pt_clust_6="13000.00000" pt_clust_7="13000.00000" pt_clust_8="13000.00000" pt_clust_9="37.72997"></scales>
<clustering>
<clus scale="   37.730">  1  9  2 -1</clus>
<clus scale="   91.223">  7  8 -1 -1</clus>
<clus scale="   92.437">  5  6 -1 -1</clus>
<clus scale="  184.428">  1  7  2 -1</clus>
<clus scale="   37.730">  1  5  2 -1</clus>
</clustering>
</event>
<event>
 9    1  0.1321469E-005  0.9743542E+02  0.7546771E-02  0.1285859E+00
         21   -1    0    0  501  502  0.00000000000E+00  0.00000000000E+00  0.25829011645E+03  0.25829011645E+03  0.00000000000E+00 0.  1.
          2   -1    0    0  502    0 -0.00000000000E+00 -0.00000000000E+00 -0.46539798242E+03  0.46539798242E+03  0.00000000000E+00 0. -1.
         23    2    1    2    0    0 -0.28665861782E+02 -0.13892877846E+02 -0.41539734177E+03  0.42653651542E+03  0.91453287291E+02 0.  0.
         23    2    1    2    0    0  0.69460827442E+02  0.55419241649E+02  0.20154196360E+03  0.23854956100E+03  0.91600387915E+02 0.  0.
        -11    1    4    4    0    0  0.91421032363E+02  0.51805969752E+02  0.17208218277E+03  0.20162822542E+03  0.00000000000E+00 0.  1.
         11    1    4    4    0    0 -0.21960204922E+02  0.36132718966E+01  0.29459780832E+02  0.36921335576E+02  0.00000000000E+00 0. -1.
        -11    1    3    3    0    0 -0.49032845779E+02  0.23406956746E+02 -0.22989364083E+03  0.23622699186E+03  0.00000000000E+00 0.  1.
         11    1    3    3    0    0  0.20366983997E+02 -0.37299834591E+02 -0.18550370094E+03  0.19030952357E+03  0.00000000000E+00 0. -1.
          2    1    1    2  501    0 -0.40794965660E+02 -0.41526363803E+02  0.67475121908E+01  0.58602022445E+02  0.00000000000E+00 0. -1.
<scales pt_clust_5="13000.00000" pt_clust_6="13000.00000" pt_clust_7="13000.00000" pt_clust_8="13000.00000" pt_clust_9="58.21227"></scales>
<clustering>
<clus scale="   58.212">  1  9  2 -1</clus>
<clus scale="   91.453">  7  8 -1 -1</clus>
<clus scale="   91.600">  5  6 -1 -1</clus>
<clus scale="   97.297">  2  7  1 -1</clus>
<clus scale="   58.212">  1  5  2 -1</clus>
</clustering>
</event>
<event>
 9    1  0.1321469E-005  0.1228133E+03  0.7546771E-02  0.1238615E+00
          2   -1    0    0  502    0 -0.00000000000E+00  0.00000000000E+00  0.13355925801E+04  0.13355925801E+04  0.00000000000E+00 0. -1.
         21   -1    0    0  501  502  0.00000000000E+00 -0.00000000000E+00 -0.18163536994E+02  0.18163536994E+02  0.00000000000E+00 0.  1.
         23    2    1    2    0    0 -0.65967776870E+02  0.24574568282E+02  0.54238838257E+03  0.55440733837E+03  0.90701060140E+02 0.  0.
         23    2    1    2    0    0  0.78909323630E+02 -0.72228173086E+02  0.47701326931E+03  0.49725826975E+03  0.90997458190E+02 0.  0.
        -11    1    3    3    0    0 -0.30814244500E+01  0.47260067002E+02  0.19747989708E+03  0.20307958751E+03  0.00000000000E+00 0.  1.
         11    1    3    3    0    0 -0.62886352420E+02 -0.22685498720E+02  0.34490848548E+03  0.35132775087E+03  0.00000000000E+00 0. -1.
        -13    1    4    4    0    0  0.53920334642E+02 -0.10041936131E+02  0.97458633901E+02  0.11183214337E+03  0.00000000000E+00 0.  1.
         13    1    4    4    0    0  0.24988988988E+02 -0.62186236955E+02  0.37955463541E+03  0.38542612638E+03  0.00000000000E+00 0. -1.
          2    1    1    2  501    0 -0.12941546760E+02  0.47653604804E+02  0.29802739121E+03  0.30209050895E+03  0.00000000000E+00 0. -1.
<scales pt_clust_5="13000.00000" pt_clust_6="13000.00000" pt_clust_7="13000.00000" pt_clust_8="13000.00000" pt_clust_9="49.37967"></scales>
<clustering>
<clus scale="   49.380">  2  9  1 -1</clus>
<clus scale="   90.701">  5  6 -1 -1</clus>
<clus scale="   90.997">  7  8 -1 -1</clus>
<clus scale="  122.594">  1  5  2 -1</clus>
<clus scale="   49.380">  2  5  1 -1</clus>
</clustering>
</event>
<event>
 9    1  0.1321469E-005  0.1278887E+03  0.7546771E-02  0.1230951E+00
         21   -1    0    0  501  502  0.00000000000E+00  0.00000000000E+00  0.72293995164E+02  0.72293995164E+02  0.00000000000E+00 0.  1.
         -2   -1    0    0    0  501 -0.00000000000E+00 -0.00000000000E+00 -0.76893131952E+03  0.76893131952E+03  0.00000000000E+00 0.  1.
         23    2    1    2    0    0 -0.64560062076E+02 -0.30176129628E+02 -0.33924054318E+03  0.35896046231E+03  0.93219455866E+02 0.  0.
         23    2    1    2    0    0  0.89472919142E+02  0.61396503668E+02 -0.39958907713E+03  0.42416535116E+03  0.92031954480E+02 0.  0.
        -11    1    4    4    0    0  0.82701425161E+02  0.15127556851E+02 -0.32840481840E+03  0.33899571302E+03  0.00000000000E+00 0.  1.
         11    1    4    4    0    0  0.67714939809E+01  0.46268946817E+02 -0.71184258727E+02  0.85169638139E+02  0.00000000000E+00 0. -1.
        -13    1    3    3    0    0  0.84872954437E+01 -0.41149406058E+02 -0.97015408193E+02  0.10572273752E+03  0.00000000000E+00 0.  1.
         13    1    3    3    0    0 -0.73047357520E+02  0.10973276430E+02 -0.24222513499E+03  0.25323772479E+03  0.00000000000E+00 0. -1.
         -2    1    1    2    0  502 -0.24912857066E+02 -0.31220374040E+02  0.42192295954E+02  0.58099501205E+02  0.00000000000E+00 0.  1.
<scales pt_clust_5="13000.00000" pt_clust_6="13000.00000" pt_clust_7="13000.00000" pt_clust_8="13000.00000" pt_clust_9="39.94199"></scales>
<clustering>
<clus scale="   39.942">  1  9  2 -1</clus>
<clus scale="   92.032">  5  6 -1 -1</clus>
<clus scale="   93.219">  7  8 -1 -1</clus>
<clus scale="  127.026">  1  5  2 -1</clus>
<clus scale="   39.942">  1  5  2 -1</clus>
</clustering>
</event>
<event>
 9    1  0.1321469E-005  0.9653827E+02  0.7546771E-02  0.1289449E+00
          1   -1    0    0  502    0 -0.00000000000E+00  0.00000000000E+00  0.11842646473E+03  0.11842646473E+03  0.00000000000E+00 0. -1.
         21   -1    0    0  501  502  0.00000000000E+00 -0.00000000000E+00 -0.27210474763E+03  0.27210474763E+03  0.00000000000E+00 0.  1.
         23    2    1    2    0    0  0.37686463253E+02  0.29083167706E+02  0.39738822529E+02  0.10823752307E+03  0.88713512097E+02 0.  0.
         23    2    1    2    0    0 -0.68331856686E+01  0.55528231173E+01 -0.97258443177E+01  0.92836422327E+02  0.91904749560E+02 0.  0.
        -11    1    3    3    0    0  0.47515939626E+02  0.46567502577E+02  0.32628250102E+01  0.66610380886E+02  0.00000000000E+00 0.  1.
         11    1    3    3    0    0 -0.98294763729E+01 -0.17484334871E+02  0.36475997518E+02  0.41627142187E+02  0.00000000000E+00 0. -1.
        -13    1    4    4    0    0  0.33526850445E+01  0.45225782025E+02 -0.21542210233E+02  0.50206360937E+02  0.00000000000E+00 0.  1.
         13    1    4    4    0    0 -0.10185870713E+02 -0.39672958908E+02  0.11816365915E+02  0.42630061390E+02  0.00000000000E+00 0. -1.
          1    1    1    2  501    0 -0.30853277584E+02 -0.34635990823E+02 -0.18369126110E+03  0.18945726696E+03  0.00000000000E+00 0. -1.
<scales pt_clust_5="13000.00000" pt_clust_6="13000.00000" pt_clust_7="13000.00000" pt_clust_8="13000.00000" pt_clust_9="46.38509"></scales>
<clustering>
<clus scale="   46.385">  2  9  1 -1</clus>
<clus scale="   88.714">  5  6 -1 -1</clus>
<clus scale="   91.905">  7  8 -1 -1</clus>
<clus scale="   93.505">  1  5  2 -1</clus>
<clus scale="   46.385">  2  5  1 -1</clus>
</clustering>
</event>
<event>
 9    1  0.1321469E-005  0.1571769E+03  0.7546771E-02  0.1192245E+00
         21   -1    0    0  501  502  0.00000000000E+00  0.00000000000E+00  0.34686620265E+03  0.34686620265E+03  0.00000000000E+00 0. -1.
          1   -1    0    0  502    0 -0.00000000000E+00 -0.00000000000E+00 -0.43562513007E+03  0.43562513007E+03  0.00000000000E+00 0. -1.
         23    2    1    2    0    0  0.87902204042E+02 -0.10047858954E+03 -0.39120693064E+03  0.42377364388E+03  0.93372877442E+02 0.  0.
         23    2    1    2    0    0 -0.52849665805E+02  0.26010510470E+02  0.14778333325E+03  0.18351684588E+03  0.91481611840E+02 0.  0.
        -11    1    4    4    0    0 -0.81639759212E+01  0.38967755677E+02  0.12600559814E+03  0.13214593164E+03  0.00000000000E+00 0. -1.
         11    1    4    4    0    0 -0.44685689884E+02 -0.12957245207E+02  0.21777735110E+02  0.51370914244E+02  0.00000000000E+00 0.  1.
        -13    1    3    3    0    0  0.89817470961E+02 -0.33518185705E+02 -0.23588541037E+03  0.25462241395E+03  0.00000000000E+00 0. -1.
         13    1    3    3    0    0 -0.19152669190E+01 -0.66960403830E+02 -0.15532152027E+03  0.16915122993E+03  0.00000000000E+00 0.  1.
          1    1    1    2  501    0 -0.35052538236E+02  0.74468079065E+02  0.15466466996E+03  0.17520084295E+03  0.00000000000E+00 0. -1.
<scales pt_clust_5="13000.00000" pt_clust_6="13000.00000" pt_clust_7="13000.00000" pt_clust_8="13000.00000" pt_clust_9="82.30538"></scales>
<clustering>
<clus scale="   82.305">  1  9  2 -1</clus>
<clus scale="   91.482">  5  6 -1 -1</clus>
<clus scale="   93.373">  7  8 -1 -1</clus>
<clus scale="  156.061">  1  5  2 -1</clus>
<clus scale="   82.305">  1  5  2 -1</clus>
</clustering>
</event>
<event>
 9    1  0.1321469E-005  0.1275620E+03  0.7546771E-02  0.1232657E+00
          1   -1    0    0  502    0 -0.00000000000E+00  0.00000000000E+00  0.23782603338E+03  0.23782603338E+03  0.00000000000E+00 0. -1.
         21   -1    0    0  501  502  0.00000000000E+00 -0.00000000000E+00 -0.15224184284E+03  0.15224184284E+03  0.00000000000E+00 0. -1.
         23    2    1    2    0    0 -0.64276202762E+02 -0.35161732843E+02  0.12131935846E+03  0.17213150688E+03  0.97688746660E+02 0.  0.
         23    2    1    2    0    0  0.97592116876E+02  0.29895209907E+02  0.32794405478E+02  0.14155581666E+03  0.92437175144E+02 0.  0.
        -13    1    4    4    0    0  0.60269574762E+02  0.59356294021E+02  0.14466032710E+01  0.84603096533E+02  0.00000000000E+00 0. -1.
         13    1    4    4    0    0  0.37322542114E+02 -0.29461084114E+02  0.31347802207E+02  0.56952720130E+02  0.00000000000E+00 0.  1.
        -13    1    3    3    0    0 -0.57362909953E+02  0.62965980945E+01  0.17776996311E+02  0.60383542325E+02  0.00000000000E+00 0.  1.
         13    1    3    3    0    0 -0.69132928082E+01 -0.41458330937E+02  0.10354236215E+03  0.11174796455E+03  0.00000000000E+00 0. -1.
          1    1    1    2  501    0 -0.33315914114E+02  0.52665229360E+01 -0.68529573400E+02  0.76380552679E+02  0.00000000000E+00 0. -1.
<scales pt_clust_5="13000.00000" pt_clust_6="13000.00000" pt_clust_7="13000.00000" pt_clust_8="13000.00000" pt_clust_9="33.72961"></scales>
<clustering>
<clus scale="   33.730">  2  9  1 -1</clus>
<clus scale="   92.437">  5  6 -1 -1</clus>
<clus scale="   97.689">  7  8 -1 -1</clus>
<clus scale="  123.586">  2  5  1 -1</clus>
<clus scale="   33.730">  2  5  1 -1</clus>
</clustering>
</event>
<event>
 9    1  0.1321469E-005  0.9858771E+02  0.7546771E-02  0.1283726E+00
          2   -1    0    0  502    0 -0.00000000000E+00  0.00000000000E+00  0.40597556238E+03  0.40597556238E+03  0.00000000000E+00 0. -1.
         21   -1    0    0  501  502  0.00000000000E+00 -0.00000000000E+00 -0.38484797456E+02  0.38484797456E+02  0.00000000000E+00 0.  1.
         23    2    1    2    0    0 -0.30097111508E+02  0.15929021646E+02  0.23307705401E+03  0.25446306918E+03  0.96265105935E+02 0.  0.
         23    2    1    2    0    0 -0.46707308110E+01 -0.79394364745E+01  0.11374265475E+03  0.14876709670E+03  0.95443214389E+02 0.  0.
        -13    1    3    3    0    0 -0.64166615764E+02  0.20591974887E+02  0.16380488169E+03  0.17712544502E+03  0.00000000000E+00 0.  1.
         13    1    3    3    0    0  0.34069504256E+02 -0.46629532414E+01  0.69272172316E+02  0.77337624159E+02  0.00000000000E+00 0. -1.
        -13    1    4    4    0    0 -0.28238286961E+02  0.35562078993E+02  0.65197675325E+02  0.79453125681E+02  0.00000000000E+00 0.  1.
         13    1    4    4    0    0  0.23567556150E+02 -0.43501515468E+02  0.48544979423E+02  0.69313971016E+02  0.00000000000E+00 0. -1.
          2    1    1    2  501    0  0.34767842319E+02 -0.79895851710E+01  0.20671056171E+02  0.41230193960E+02  0.00000000000E+00 0. -1.
<scales pt_clust_5="13000.00000" pt_clust_6="13000.00000" pt_clust_7="13000.00000" pt_clust_8="13000.00000" pt_clust_9="35.67403"></scales>
<clustering>
<clus scale="   35.674">  2  9  1 -1</clus>
<clus scale="   95.443">  7  8 -1 -1</clus>
<clus scale="   96.265">  5  6 -1 -1</clus>
<clus scale="   97.785">  2  7  1 -1</clus>
<clus scale="   35.674">  2  5  1 -1</clus>
</clustering>
</event>
<event>
 9    1  0.1321469E-005  0.1098671E+03  0.7546771E-02  0.1260876E+00
         21   -1    0    0  501  502  0.00000000000E+00  0.00000000000E+00  0.91765478151E+02  0.91765478151E+02  0.00000000000E+00 0.  1.
         -1   -1    0    0    0  501 -0.00000000000E+00 -0.00000000000E+00 -0.41681431092E+03  0.41681431092E+03  0.00000000000E+00 0.  1.
         23    2    1    2    0    0  0.48440144245E+02  0.37728381013E+02 -0.23661263861E+03  0.26137132122E+03  0.92517828013E+02 0.  0.
         23    2    1    2    0    0 -0.55137100649E+02 -0.17308348612E+02 -0.14797294298E+03  0.18391193234E+03  0.92671075336E+02 0.  0.
        -11    1    4    4    0    0 -0.28144919137E+02  0.20473958670E+02 -0.12923601337E+03  0.13384045206E+03  0.00000000000E+00 0. -1.
         11    1    4    4    0    0 -0.26992181512E+02 -0.37782307282E+02 -0.18736929615E+02  0.50071480283E+02  0.00000000000E+00 0.  1.
        -11    1    3    3    0    0  0.21547583490E+02 -0.17564656733E+01 -0.17395051513E+01  0.21688923534E+02  0.00000000000E+00 0. -1.
         11    1    3    3    0    0  0.26892560755E+02  0.39484846687E+02 -0.23487313345E+03  0.23968239769E+03  0.00000000000E+00 0.  1.
         -1    1    1    2    0  502  0.66969564043E+01 -0.20420032401E+02  0.59536748814E+02  0.63296535511E+02  0.00000000000E+00 0.  1.
<scales pt_clust_5="13000.00000" pt_clust_6="13000.00000" pt_clust_7="13000.00000" pt_clust_8="13000.00000" pt_clust_9="21.49016"></scales>
<clustering>
<clus scale="   21.490">  1  9  2 -1</clus>
<clus scale="   92.518">  7  8 -1 -1</clus>
<clus scale="   92.671">  5  6 -1 -1</clus>
<clus scale="  109.738">  2  7  1 -1</clus>
<clus scale="   21.490">  1  5  2 -1</clus>
</clustering>
</event>
<event>
 9    1  0.1321469E-005  0.1177388E+03  0.7546771E-02  0.1247246E+00
         21   -1    0    0  501  502  0.00000000000E+00  0.00000000000E+00  0.54283701183E+02  0.54283701183E+02  0.00000000000E+00 0.  1.
         -3   -1    0    0    0  501 -0.00000000000E+00 -0.00000000000E+00 -0.50985335493E+03  0.50985335493E+03  0.00000000000E+00 0.  1.
         23    2    1    2    0    0 -0.66306601530E+02  0.80429977592E+02 -0.29112522682E+03  0.32224968420E+03  0.90694071324E+02 0.  0.
         23    2    1    2    0    0  0.36971805650E+02 -0.21901646955E+02 -0.13810715184E+03  0.17132004381E+03  0.91817076135E+02 0.  0.
        -13    1    3    3    0    0 -0.76192033358E+01  0.76136668377E+02 -0.13174448534E+03  0.15235305691E+03  0.00000000000E+00 0.  1.
         13    1    3    3    0    0 -0.58687398195E+02  0.42933092147E+01 -0.15938074148E+03  0.16989662729E+03  0.00000000000E+00 0. -1.
        -13    1    4    4    0    0  0.13260293409E+01 -0.52329474295E+02 -0.90279651620E+02  0.10435778711E+03  0.00000000000E+00 0. -1.
         13    1    4    4    0    0  0.35645776310E+02  0.30427827340E+02 -0.47827500221E+02  0.66962256703E+02  0.00000000000E+00 0.  1.
         -3    1    1    2    0  502  0.29334795880E+02 -0.58528330637E+02 -0.26337275088E+02  0.70567328103E+02  0.00000000000E+00 0.  1.
<scales pt_clust_5="13000.00000" pt_clust_6="13000.00000" pt_clust_7="13000.00000" pt_clust_8="13000.00000" pt_clust_9="65.46828"></scales>
<clustering>
<clus scale="   65.468">  1  9  2 -1</clus>
<clus scale="   90.694">  5  6 -1 -1</clus>
<clus scale="   91.817">  7  8 -1 -1</clus>
<clus scale="  116.865">  2  5  1 -1</clus>
<clus scale="   65.468">  1  5  2 -1</clus>
</clustering>
</event>
<event>
 9    1  0.1321469E-005  0.1092284E+03  0.7546771E-02  0.1263157E+00
         21   -1    0    0  501  502  0.00000000000E+00  0.00000000000E+00  0.12925072074E+03  0.12925072074E+03  0.00000000000E+00 0. -1.
          2   -1    0    0  502    0 -0.00000000000E+00 -0.00000000000E+00 -0.15397839367E+03  0.15397839367E+03  0.00000000000E+00 0. -1.
         23    2    1    2    0    0 -0.23934687455E+02 -0.46952839043E+02 -0.40890091529E+02  0.11366396069E+03  0.92032918117E+02 0.  0.
         23    2    1    2    0    0  0.16975548149E+01  0.69698357096E+02 -0.26625329870E+02  0.11624873899E+03  0.89129784312E+02 0.  0.
        -11    1    4    4    0    0  0.38753769279E+02  0.29710230232E+02  0.10939227930E+02  0.50042173429E+02  0.00000000000E+00 0.  1.
         11    1    4    4    0    0 -0.37056214464E+02  0.39988126864E+02 -0.37564557800E+02  0.66206565560E+02  0.00000000000E+00 0. -1.
        -11    1    3    3    0    0 -0.49198368453E+02 -0.35581821154E+02  0.40701482043E+01  0.60853196805E+02  0.00000000000E+00 0. -1.
         11    1    3    3    0    0  0.25263680998E+02 -0.11371017889E+02 -0.44960239733E+02  0.52810763887E+02  0.00000000000E+00 0.  1.
          2    1    1    2  501    0  0.22237132640E+02 -0.22745518054E+02  0.42787748472E+02  0.53316414722E+02  0.00000000000E+00 0. -1.
<scales pt_clust_5="13000.00000" pt_clust_6="13000.00000" pt_clust_7="13000.00000" pt_clust_8="13000.00000" pt_clust_9="31.80957"></scales>
<clustering>
<clus scale="   31.810">  1  9  2 -1</clus>
<clus scale="   89.130">  5  6 -1 -1</clus>
<clus scale="   92.033">  7  8 -1 -1</clus>
<clus scale="  106.794">  1  5  2 -1</clus>
<clus scale="   31.810">  1  5  2 -1</clus>
</clustering>
</event>
<event>
 9    1  0.1321469E-005  0.1152078E+03  0.7546771E-02  0.1252114E+00
         -1   -1    0    0    0  501 -0.00000000000E+00  0.00000000000E+00  0.26899126825E+03  0.26899126825E+03  0.00000000000E+00 0.  1.
         21   -1    0    0  501  502  0.00000000000E+00 -0.00000000000E+00 -0.17509597249E+03  0.17509597249E+03  0.00000000000E+00 0.  1.
         23    2    1    2    0    0 -0.53561330874E+02 -0.61192209363E+02  0.21306987919E+03  0.24536847353E+03  0.90518571208E+02 0.  0.
         23    2    1    2    0    0  0.26070253192E+02  0.15955850411E+02 -0.35314946989E+02  0.99549587793E+02  0.87913182658E+02 0.  0.
        -11    1    4    4    0    0  0.48578519866E+02 -0.11486520974E+02 -0.62790733995E+00  0.49922009416E+02  0.00000000000E+00 0.  1.
         11    1    4    4    0    0 -0.22508266674E+02  0.27442371385E+02 -0.34687039649E+02  0.49627578377E+02  0.00000000000E+00 0. -1.
        -13    1    3    3    0    0  0.14689065094E+02 -0.32347244364E+02  0.25605768572E+02  0.43792330784E+02  0.00000000000E+00 0. -1.
         13    1    3    3    0    0 -0.68250395968E+02 -0.28844964998E+02  0.18746411061E+03  0.20157614274E+03  0.00000000000E+00 0.  1.
         -1    1    1    2    0  502  0.27491077682E+02  0.45236358952E+02 -0.83859636439E+02  0.99169179421E+02  0.00000000000E+00 0.  1.
<scales pt_clust_5="13000.00000" pt_clust_6="13000.00000" pt_clust_7="13000.00000" pt_clust_8="13000.00000" pt_clust_9="52.93475"></scales>
<clustering>
<clus scale="   52.935">  2  9  1 -1</clus>
<clus scale="   87.913">  5  6 -1 -1</clus>
<clus scale="   90.519">  7  8 -1 -1</clus>
<clus scale="  113.172">  2  5  1 -1</clus>
<clus scale="   52.935">  2  5  1 -1</clus>
</clustering>
</event>
<event>
 9    1  0.1321469E-005  0.1053302E+03  0.7546771E-02  0.1271071E+00
         -4   -1    0    0    0  501 -0.00000000000E+00  0.00000000000E+00  0.24562042837E+03  0.24562042837E+03  0.00000000000E+00 0.  1.
         21   -1    0    0  501  502  0.00000000000E+00 -0.00000000000E+00 -0.66983001514E+02  0.66983001514E+02  0.00000000000E+00 0. -1.
         23    2    1    2    0    0  0.47338064949E+01  0.48192208077E+02  0.12517685453E+03  0.16073301948E+03  0.88436196199E+02 0.  0.
         23    2    1    2    0    0 -0.35363182187E+02 -0.50988990727E+02  0.37597803159E+02  0.11726393566E+03  0.92123851277E+02 0.  0.
        -13    1    3    3    0    0 -0.27403891828E+02 -0.55984149627E+00  0.86387518514E+02  0.90631617357E+02  0.00000000000E+00 0. -1.
         13    1    3    3    0    0  0.32137698322E+02  0.48752049573E+02  0.38789336013E+02  0.70101402121E+02  0.00000000000E+00 0.  1.
        -13    1    4    4    0    0 -0.57907837526E+02 -0.79894591544E+01  0.36069128077E+02  0.68688653392E+02  0.00000000000E+00 0.  1.
         13    1    4    4    0    0  0.22544655339E+02 -0.42999531572E+02  0.15286750819E+01  0.48575282267E+02  0.00000000000E+00 0. -1.
         -4    1    1    2    0  502  0.30629375692E+02  0.27967826499E+01  0.15862769165E+02  0.34606474742E+02  0.00000000000E+00 0.  1.
<scales pt_clust_5="13000.00000" pt_clust_6="13000.00000" pt_clust_7="13000.00000" pt_clust_8="13000.00000" pt_clust_9="30.75680"></scales>
<clustering>
<clus scale="   30.757">  2  9  1 -1</clus>
<clus scale="   88.436">  5  6 -1 -1</clus>
<clus scale="   92.124">  7  8 -1 -1</clus>
<clus scale="  102.121">  1  5  2 -1</clus>
<clus scale="   30.757">  2  5  1 -1</clus>
</clustering>
</event>
<event>
 9    1  0.1321469E-005  0.9981859E+02  0.7546771E-02  0.1281023E+00
          2   -1    0    0  502    0 -0.00000000000E+00  0.00000000000E+00  0.43501056253E+03  0.43501056253E+03  0.00000000000E+00 0. -1.
         21   -1    0    0  501  502  0.00000000000E+00 -0.00000000000E+00 -0.55914716728E+02  0.55914716728E+02  0.00000000000E+00 0.  1.
         23    2    1    2    0    0  0.37227993984E+02 -0.12255371242E+01  0.30560912086E+03  0.32088760685E+03  0.90468204367E+02 0.  0.
         23    2    1    2    0    0 -0.50710964440E+02 -0.21916948342E+02  0.89180349184E+02  0.13899487989E+03  0.91183811152E+02 0.  0.
        -11    1    4    4    0    0 -0.74737189017E+02 -0.16457263348E+01  0.56986401284E+02  0.93998966849E+02  0.00000000000E+00 0. -1.
         11    1    4    4    0    0  0.24026224577E+02 -0.20271222007E+02  0.32193947900E+02  0.44995913042E+02  0.00000000000E+00 0.  1.
        -13    1    3    3    0    0  0.37672258898E+02  0.39709892135E+02  0.14067207877E+03  0.15094604456E+03  0.00000000000E+00 0.  1.
         13    1    3    3    0    0 -0.44426491472E+00 -0.40935429259E+02  0.16493704209E+03  0.16994156229E+03  0.00000000000E+00 0. -1.
          2    1    1    2  501    0  0.13482970456E+02  0.23142485466E+02 -0.15693624235E+02  0.31042792521E+02  0.00000000000E+00 0. -1.
<scales pt_clust_5="13000.00000" pt_clust_6="13000.00000" pt_clust_7="13000.00000" pt_clust_8="13000.00000" pt_clust_9="26.78367"></scales>
<clustering>
<clus scale="   26.784">  2  9  1 -1</clus>
<clus scale="   90.468">  7  8 -1 -1</clus>
<clus scale="   91.184">  5  6 -1 -1</clus>
<clus scale="   99.165">  1  7  2 -1</clus>
<clus scale="   26.784">  2  5  1 -1</clus>
</clustering>
</event>
<event>
 9    1  0.1321469E-005  0.1009172E+03  0.7546771E-02  0.1279195E+00
         21   -1    0    0  501  502  0.00000000000E+00  0.00000000000E+00  0.43901116797E+02  0.43901116797E+02  0.00000000000E+00 0. -1.
          1   -1    0    0  502    0 -0.00000000000E+00 -0.00000000000E+00 -0.46982049569E+03  0.46982049569E+03  0.00000000000E+00 0. -1.
         23    2    1    2    0    0  0.20764207214E+02 -0.26787597782E+01 -0.18315292838E+03  0.20582537530E+03  0.91546501227E+02 0.  0.
         23    2    1    2    0    0 -0.56997948093E+02  0.43767751968E+02 -0.22061233565E+03  0.24880314062E+03  0.89826599301E+02 0.  0.
        -11    1    3    3    0    0 -0.11025902841E+01 -0.29323008577E+02 -0.12789046532E+02  0.32009596194E+02  0.00000000000E+00 0.  1.
         11    1    3    3    0    0  0.21866797498E+02  0.26644248798E+02 -0.17036388185E+03  0.17381577910E+03  0.00000000000E+00 0. -1.
        -13    1    4    4    0    0 -0.24753187076E+02  0.66778825056E+02 -0.17154294035E+03  0.18573936613E+03  0.00000000000E+00 0. -1.
         13    1    4    4    0    0 -0.32244761017E+02 -0.23011073088E+02 -0.49069395294E+02  0.63063774484E+02  0.00000000000E+00 0.  1.
          1    1    1    2  501    0  0.36233740879E+02 -0.41088992190E+02 -0.22154114869E+02  0.59093096576E+02  0.00000000000E+00 0. -1.
<scales pt_clust_5="13000.00000" pt_clust_6="13000.00000" pt_clust_7="13000.00000" pt_clust_8="13000.00000" pt_clust_9="54.78311"></scales>
<clustering>
<clus scale="   54.783">  1  9  2 -1</clus>
<clus scale="   89.827">  7  8 -1 -1</clus>
<clus scale="   91.547">  5  6 -1 -1</clus>
<clus scale="   99.360">  1  7  2 -1</clus>
<clus scale="   54.783">  1  5  2 -1</clus>
</clustering>
</event>
<event>
 9    1  0.1321469E-005  0.1187810E+03  0.7546771E-02  0.1245848E+00
          1   -1    0    0  502    0 -0.00000000000E+00  0.00000000000E+00  0.59636583550E+03  0.59636583550E+03  0.00000000000E+00 0. -1.
         21   -1    0    0  501  502  0.00000000000E+00 -0.00000000000E+00 -0.46449491148E+02  0.46449491148E+02  0.00000000000E+00 0. -1.
         23    2    1    2    0    0 -0.77695590286E+02 -0.66798336240E+02  0.37344025721E+03  0.39827517692E+03  0.93096016955E+02 0.  0.
         23    2    1    2    0    0  0.32600568895E+02  0.16322726902E+02  0.12857029349E+03  0.16161661171E+03  0.90886634363E+02 0.  0.
        -11    1    3    3    0    0 -0.26048293161E+02 -0.44804045862E+02  0.57592834954E+02  0.77478066188E+02  0.00000000000E+00 0.  1.
         11    1    3    3    0    0 -0.51647297125E+02 -0.21994290378E+02  0.31584742225E+03  0.32079711073E+03  0.00000000000E+00 0. -1.
        -13    1    4    4    0    0 -0.15581732413E+02 -0.25757854698E+02  0.63981745573E+02  0.70710121130E+02  0.00000000000E+00 0. -1.
         13    1    4    4    0    0  0.48182301308E+02  0.42080581600E+02  0.64588547920E+02  0.90906490580E+02  0.00000000000E+00 0.  1.
          1    1    1    2  501    0  0.45095021392E+02  0.50475609338E+02  0.47905793652E+02  0.82923538020E+02  0.00000000000E+00 0. -1.
<scales pt_clust_5="13000.00000" pt_clust_6="13000.00000" pt_clust_7="13000.00000" pt_clust_8="13000.00000" pt_clust_9="67.68566"></scales>
<clustering>
<clus scale="   67.686">  2  9  1 -1</clus>
<clus scale="   90.887">  7  8 -1 -1</clus>
<clus scale="   93.096">  5  6 -1 -1</clus>
<clus scale="  117.057">  2  7  1 -1</clus>
<clus scale="   67.686">  2  5  1 -1</clus>
</clustering>
</event>
<event>
 9    1  0.1321469E-005  0.1786856E+03  0.7546771E-02  0.1169657E+00
         -2   -1    0    0    0  501 -0.00000000000E+00  0.00000000000E+00  0.22850095916E+03  0.22850095916E+03  0.00000000000E+00 0.  1.
         21   -1    0    0  501  502  0.00000000000E+00 -0.00000000000E+00 -0.21714629806E+03  0.21714629806E+03  0.00000000000E+00 0.  1.
         23    2    1    2    0    0 -0.13763055594E+03  0.65466606475E+02  0.10333359594E+03  0.20327407460E+03  0.86107321773E+02 0.  0.
         23    2    1    2    0    0  0.15528262249E+03 -0.37940672169E+02 -0.52661988806E+02  0.19123518541E+03  0.90804314992E+02 0.  0.
        -11    1    4    4    0    0  0.74238708257E+02 -0.32066078551E+02  0.18800628662E+02  0.83024591751E+02  0.00000000000E+00 0.  1.
         11    1    4    4    0    0  0.81043914236E+02 -0.58745936175E+01 -0.71462617468E+02  0.10821059366E+03  0.00000000000E+00 0. -1.
        -13    1    3    3    0    0 -0.45918838079E+02 -0.18683273026E+02  0.19844630936E+02  0.53398630680E+02  0.00000000000E+00 0.  1.
         13    1    3    3    0    0 -0.91711717864E+02  0.84149879500E+02  0.83488965001E+02  0.14987544392E+03  0.00000000000E+00 0. -1.
         -2    1    1    2    0  502 -0.17652066550E+02 -0.27525934306E+02 -0.39316946035E+02  0.51137997208E+02  0.00000000000E+00 0.  1.
<scales pt_clust_5="13000.00000" pt_clust_6="13000.00000" pt_clust_7="13000.00000" pt_clust_8="13000.00000" pt_clust_9="32.69973"></scales>
<clustering>
<clus scale="   32.700">  2  9  1 -1</clus>
<clus scale="   86.107">  7  8 -1 -1</clus>
<clus scale="   90.804">  5  6 -1 -1</clus>
<clus scale="  176.345">  1  7  2 -1</clus>
<clus scale="   32.700">  2  5  1 -1</clus>
</clustering>
</event>
<event>
 9    1  0.1321469E-005  0.1095039E+03  0.7546771E-02  0.1262854E+00
          1   -1    0    0  502    0 -0.00000000000E+00  0.00000000000E+00  0.47956735655E+03  0.47956735655E+03  0.00000000000E+00 0. -1.
         21   -1    0    0  501  502  0.00000000000E+00 -0.00000000000E+00 -0.68047219119E+02  0.68047219119E+02  0.00000000000E+00 0.  1.
         23    2    1    2    0    0  0.54158987541E+02 -0.40201768501E+01  0.37220893006E+03  0.38686067500E+03  0.90400976140E+02 0.  0.
         23    2    1    2    0    0 -0.72981831795E+02  0.14882981784E+02  0.46651388314E+01  0.11985585595E+03  0.93785989180E+02 0.  0.
        -13    1    4    4    0    0 -0.69587585718E+02 -0.28121240470E+02  0.12274345741E+02  0.76051928411E+02  0.00000000000E+00 0.  1.
         13    1    4    4    0    0 -0.33942460769E+01  0.43004222254E+02 -0.76092069093E+01  0.43803927540E+02  0.00000000000E+00 0. -1.
        -13    1    3    3    0    0  0.47158199909E+02  0.37248274455E+02  0.26593899373E+03  0.27264423368E+03  0.00000000000E+00 0.  1.
         13    1    3    3    0    0  0.70007876319E+01 -0.41268451305E+02  0.10626993633E+03  0.11421644132E+03  0.00000000000E+00 0. -1.
          1    1    1    2  501    0  0.18822844255E+02 -0.10862804934E+02  0.34646068533E+02  0.40898044717E+02  0.00000000000E+00 0. -1.
<scales pt_clust_5="13000.00000" pt_clust_6="13000.00000" pt_clust_7="13000.00000" pt_clust_8="13000.00000" pt_clust_9="21.73247"></scales>
<clustering>
<clus scale="   21.732">  2  9  1 -1</clus>
<clus scale="   90.401">  7  8 -1 -1</clus>
<clus scale="   93.786">  5  6 -1 -1</clus>
<clus scale="  106.619">  1  7  2 -1</clus>
<clus scale="   21.732">  2  5  1 -1</clus>
</clustering>
</event>
<event>
 9    1  0.1321469E-005  0.9947509E+02  0.7546771E-02  0.1283813E+00
         21   -1    0    0  501  502  0.00000000000E+00  0.00000000000E+00  0.14694050869E+03  0.14694050869E+03  0.00000000000E+00 0.  1.
         -1   -1    0    0    0  501 -0.00000000000E+00 -0.00000000000E+00 -0.39103808115E+03  0.39103808115E+03  0.00000000000E+00 0.  1.
         23    2    1    2    0    0  0.87460684231E+01  0.30601239769E+02 -0.33149927127E+03  0.34622284650E+03  0.94686656915E+02 0.  0.
         23    2    1    2    0    0 -0.25084592214E+02  0.66652510873E+00  0.11412362439E+03  0.14749874630E+03  0.90011096513E+02 0.  0.
        -13    1    4    4    0    0 -0.47411794071E+00  0.39714210318E+02  0.82457690550E+02  0.91524390300E+02  0.00000000000E+00 0.  1.
         13    1    4    4    0    0 -0.24610474273E+02 -0.39047685210E+02  0.31665933838E+02  0.55974356003E+02  0.00000000000E+00 0. -1.
        -13    1    3    3    0    0 -0.26374397692E+02  0.40380609141E+02 -0.27348034139E+03  0.27770073744E+03  0.00000000000E+00 0.  1.
         13    1    3    3    0    0  0.35120466115E+02 -0.97793693726E+01 -0.58018929876E+02  0.68522109055E+02  0.00000000000E+00 0. -1.
         -1    1    1    2    0  502  0.16338523791E+02 -0.31267764877E+02 -0.26721925579E+02  0.44256997037E+02  0.00000000000E+00 0.  1.
<scales pt_clust_5="13000.00000" pt_clust_6="13000.00000" pt_clust_7="13000.00000" pt_clust_8="13000.00000" pt_clust_9="35.27920"></scales>
<clustering>
<clus scale="   35.279">  1  9  2 -1</clus>
<clus scale="   90.011">  5  6 -1 -1</clus>
<clus scale="   94.687">  7  8 -1 -1</clus>
<clus scale="   95.035">  1  5  2 -1</clus>
<clus scale="   35.279">  1  5  2 -1</clus>
</clustering>
</event>
<event>
 9    1  0.1321469E-005  0.9727586E+02  0.7546771E-02  0.1288108E+00
         21   -1    0    0  501  502  0.00000000000E+00  0.00000000000E+00  0.42290635155E+03  0.42290635155E+03  0.00000000000E+00 0. -1.
          1   -1    0    0  502    0 -0.00000000000E+00 -0.00000000000E+00 -0.86411711391E+02  0.86411711391E+02  0.00000000000E+00 0. -1.
         23    2    1    2    0    0  0.42659254761E+02  0.19294561191E+02 -0.25742251540E+02  0.10525283191E+03  0.90682980781E+02 0.  0.
         23    2    1    2    0    0 -0.98051847213E+01  0.28207357791E+02  0.10100102044E+03  0.13652083722E+03  0.86861592112E+02 0.  0.
        -11    1    3    3    0    0  0.23002835425E+02 -0.32901502210E+02  0.67429270620E+01  0.40707571170E+02  0.00000000000E+00 0.  1.
         11    1    3    3    0    0  0.19656419336E+02  0.52196063401E+02 -0.32485178602E+02  0.64545260744E+02  0.00000000000E+00 0. -1.
        -13    1    4    4    0    0 -0.14043103305E+02 -0.26598024850E+02  0.13009299714E+02  0.32770498248E+02  0.00000000000E+00 0.  1.
         13    1    4    4    0    0  0.42379185837E+01  0.54805382641E+02  0.87991720728E+02  0.10375033897E+03  0.00000000000E+00 0. -1.
          1    1    1    2  501    0 -0.32854070039E+02 -0.47501918982E+02  0.26123587125E+03  0.26754439380E+03  0.00000000000E+00 0. -1.
<scales pt_clust_5="13000.00000" pt_clust_6="13000.00000" pt_clust_7="13000.00000" pt_clust_8="13000.00000" pt_clust_9="57.75658"></scales>
<clustering>
<clus scale="   57.757">  1  9  2 -1</clus>
<clus scale="   86.862">  7  8 -1 -1</clus>
<clus scale="   90.683">  5  6 -1 -1</clus>
<clus scale="   93.724">  1  7  2 -1</clus>
<clus scale="   57.757">  1  5  2 -1</clus>
</clustering>
</event>
<event>
 9    1  0.1514994E-005  0.9756048E+02  0.7546771E-02  0.1285608E+00
         21   -1    0    0  501  502  0.00000000000E+00  0.00000000000E+00  0.42917700344E+03  0.42917700344E+03  0.00000000000E+00 0.  1.
          1   -1    0    0  502    0 -0.00000000000E+00 -0.00000000000E+00 -0.16297194182E+03  0.16297194182E+03  0.00000000000E+00 0. -1.
         23    2    1    2    0    0  0.51570307225E+01  0.38938980881E+02 -0.13029561447E+03  0.16372376906E+03  0.91025744757E+02 0.  0.
         23    2    1    2    0    0  0.15694701471E+02  0.10411606441E+01  0.13759551643E+03  0.16562280148E+03  0.90834897257E+02 0.  0.
        -11    1    3    3    0    0 -0.16522588446E+02  0.63771840224E+02 -0.92680407174E+02  0.11370796546E+03  0.00000000000E+00 0. -1.
         11    1    3    3    0    0  0.21679619169E+02 -0.24832859344E+02 -0.37615207295E+02  0.50015803606E+02  0.00000000000E+00 0.  1.
        -11    1    4    4    0    0  0.30130486652E+02  0.18443067387E+02  0.13855956851E+03  0.14299212211E+03  0.00000000000E+00 0.  1.
         11    1    4    4    0    0 -0.14435785181E+02 -0.17401906743E+02 -0.96405208664E+00  0.22630679365E+02  0.00000000000E+00 0. -1.
          1    1    1    2  501    0 -0.20851732194E+02 -0.39980141525E+02  0.25890515967E+03  0.26280237472E+03  0.00000000000E+00 0. -1.
<scales pt_clust_5="13000.00000" pt_clust_6="13000.00000" pt_clust_7="13000.00000" pt_clust_8="13000.00000" pt_clust_9="45.09109"></scales>
<clustering>
<clus scale="   45.091">  1  9  2 -1</clus>
<clus scale="   90.835">  7  8 -1 -1</clus>
<clus scale="   91.026">  5  6 -1 -1</clus>
<clus scale="   97.382">  1  7  2 -1</clus>
<clus scale="   45.091">  1  5  2 -1</clus>
</clustering>
</event>
<event>
 9    1  0.1321469E-005  0.1797520E+03  0.7546771E-02  0.1168612E+00
          2   -1    0    0  502    0 -0.00000000000E+00  0.00000000000E+00  0.13605146453E+04  0.13605146453E+04  0.00000000000E+00 0. -1.
         21   -1    0    0  501  502  0.00000000000E+00 -0.00000000000E+00 -0.35644572860E+02  0.35644572860E+02  0.00000000000E+00 0. -1.
         23    2    1    2    0    0 -0.16186050439E+03  0.44414937834E+02  0.80726257501E+03  0.83014609513E+03  0.96426991314E+02 0.  0.
         23    2    1    2    0    0  0.12074685304E+03 -0.58801097846E+02  0.48502511423E+03  0.51161729948E+03  0.92008304323E+02 0.  0.
        -13    1    4    4    0    0  0.41706587114E+02 -0.69681564643E+02  0.20665430262E+03  0.22203819638E+03  0.00000000000E+00 0.  1.
         13    1    4    4    0    0  0.79040265927E+02  0.10880466796E+02  0.27837081161E+03  0.28957910310E+03  0.00000000000E+00 0. -1.
        -13    1    3    3    0    0 -0.41514643133E+02  0.59017179877E+02  0.31901637481E+03  0.32707482403E+03  0.00000000000E+00 0.  1.
         13    1    3    3    0    0 -0.12034586125E+03 -0.14602242043E+02  0.48824620020E+03  0.50307127110E+03  0.00000000000E+00 0. -1.
          2    1    1    2  501    0  0.41113651345E+02  0.14386160012E+02  0.32582383227E+02  0.54395823586E+02  0.00000000000E+00 0. -1.
<scales pt_clust_5="13000.00000" pt_clust_6="13000.00000" pt_clust_7="13000.00000" pt_clust_8="13000.00000" pt_clust_9="43.55794"></scales>
<clustering>
<clus scale="   43.558">  2  9  1 -1</clus>
<clus scale="   92.008">  5  6 -1 -1</clus>
<clus scale="   96.427">  7  8 -1 -1</clus>
<clus scale="  177.421">  2  5  1 -1</clus>
<clus scale="   43.558">  2  5  1 -1</clus>
</clustering>
</event>
<event>
 9    1  0.1321469E-005  0.1465180E+03  0.7546771E-02  0.1205035E+00
          1   -1    0    0  502    0 -0.00000000000E+00  0.00000000000E+00  0.39752397842E+03  0.39752397842E+03  0.00000000000E+00 0. -1.
         21   -1    0    0  501  502  0.00000000000E+00 -0.00000000000E+00 -0.18181946154E+03  0.18181946154E+03  0.00000000000E+00 0.  1.
         23    2    1    2    0    0  0.10940406865E+03  0.14912677193E+02  0.30460979780E+03  0.33665388159E+03  0.91417005507E+02 0.  0.
         23    2    1    2    0    0 -0.12991236554E+03 -0.13815121604E+02 -0.91578257613E+01  0.16033998960E+03  0.92503871202E+02 0.  0.
        -11    1    4    4    0    0 -0.49099090248E+02  0.19802875058E+02 -0.41250093460E+02  0.67115160241E+02  0.00000000000E+00 0.  1.
         11    1    4    4    0    0 -0.80813275291E+02 -0.33617996662E+02  0.32092267699E+02  0.93224829359E+02  0.00000000000E+00 0. -1.
        -13    1    3    3    0    0  0.11277285818E+03 -0.11646090569E+02  0.27046208869E+03  0.29326283499E+03  0.00000000000E+00 0. -1.
         13    1    3    3    0    0 -0.33687895248E+01  0.26558767761E+02  0.34147709114E+02  0.43391046607E+02  0.00000000000E+00 0.  1.
          1    1    1    2  501    0  0.20508296887E+02 -0.10975555885E+01 -0.79747455166E+02  0.82349568760E+02  0.00000000000E+00 0. -1.
<scales pt_clust_5="13000.00000" pt_clust_6="13000.00000" pt_clust_7="13000.00000" pt_clust_8="13000.00000" pt_clust_9="20.53765"></scales>
<clustering>
<clus scale="   20.538">  2  9  1 -1</clus>
<clus scale="   91.417">  7  8 -1 -1</clus>
<clus scale="   92.504">  5  6 -1 -1</clus>
<clus scale="  145.834">  1  7  2 -1</clus>
<clus scale="   20.538">  2  5  1 -1</clus>
</clustering>
</event>
<event>
 9    1  0.1321469E-005  0.1117457E+03  0.7546771E-02  0.1263048E+00
         21   -1    0    0  501  502  0.00000000000E+00  0.00000000000E+00  0.13159042033E+03  0.13159042033E+03  0.00000000000E+00 0.  1.
          4   -1    0    0  502    0 -0.00000000000E+00 -0.00000000000E+00 -0.18039541452E+03  0.18039541452E+03  0.00000000000E+00 0. -1.
         23    2    1    2    0    0 -0.36242190791E+02  0.44836792533E+02 -0.95112066757E+02  0.14281943920E+03  0.89594936305E+02 0.  0.
         23    2    1    2    0    0  0.65961258021E+02 -0.63905903965E+02  0.10120982844E+02  0.11860665815E+03  0.74365670452E+02 0.  0.
        -11    1    3    3    0    0 -0.39043593331E+02 -0.18358053482E+02 -0.42189135327E+02  0.60343545201E+02  0.00000000000E+00 0. -1.
         11    1    3    3    0    0  0.28014025391E+01  0.63194846016E+02 -0.52922931430E+02  0.82475893995E+02  0.00000000000E+00 0.  1.
        -13    1    4    4    0    0  0.25313669748E+02 -0.72930617046E+01 -0.28595987862E+02  0.38880601165E+02  0.00000000000E+00 0. -1.
         13    1    4    4    0    0  0.40647588273E+02 -0.56612842260E+02  0.38716970707E+02  0.79726056982E+02  0.00000000000E+00 0.  1.
          4    1    1    2  501    0 -0.29719067229E+02  0.19069111431E+02  0.36186089724E+02  0.50559737512E+02  0.00000000000E+00 0. -1.
<scales pt_clust_5="13000.00000" pt_clust_6="13000.00000" pt_clust_7="13000.00000" pt_clust_8="13000.00000" pt_clust_9="35.31082"></scales>
<clustering>
<clus scale="   35.311">  1  9  2 -1</clus>
<clus scale="   74.366">  7  8 -1 -1</clus>
<clus scale="   89.595">  5  6 -1 -1</clus>
<clus scale="   99.951">  1  7  2 -1</clus>
<clus scale="   35.311">  1  5  2 -1</clus>
</clustering>
</event>
<event>
 9    1  0.1321469E-005  0.1384335E+03  0.7546771E-02  0.1217695E+00
         21   -1    0    0  501  502  0.00000000000E+00  0.00000000000E+00  0.52749979981E+03  0.52749979981E+03  0.00000000000E+00 0.  1.
          2   -1    0    0  502    0 -0.00000000000E+00 -0.00000000000E+00 -0.28820620507E+03  0.28820620507E+03  0.00000000000E+00 0. -1.
         23    2    1    2    0    0  0.24588179761E+02  0.91131587287E+02 -0.24397175606E+03  0.27960130277E+03  0.98717404576E+02 0.  0.
         23    2    1    2    0    0 -0.51723684991E+02 -0.13606601394E+03  0.29772966936E+03  0.34328632272E+03  0.89516722508E+02 0.  0.
        -11    1    3    3    0    0  0.59952450044E+02  0.74992363152E+02 -0.15242350016E+03  0.18014181690E+03  0.00000000000E+00 0.  1.
         11    1    3    3    0    0 -0.35364270283E+02  0.16139224135E+02 -0.91548255908E+02  0.99459485863E+02  0.00000000000E+00 0. -1.
        -13    1    4    4    0    0  0.63405282333E+01 -0.66543589298E+02  0.19594514558E+03  0.20703321388E+03  0.00000000000E+00 0.  1.
         13    1    4    4    0    0 -0.58064213224E+02 -0.69522424641E+02  0.10178452378E+03  0.13625310883E+03  0.00000000000E+00 0. -1.
          2    1    1    2  501    0  0.27135505229E+02  0.44934426652E+02  0.18553568145E+03  0.19281837939E+03  0.00000000000E+00 0. -1.
<scales pt_clust_5="13000.00000" pt_clust_6="13000.00000" pt_clust_7="13000.00000" pt_clust_8="13000.00000" pt_clust_9="52.49227"></scales>
<clustering>
<clus scale="   52.492">  1  9  2 -1</clus>
<clus scale="   89.517">  7  8 -1 -1</clus>
<clus scale="   98.717">  5  6 -1 -1</clus>
<clus scale="  132.030">  1  7  2 -1</clus>
<clus scale="   52.492">  1  5  2 -1</clus>
</clustering>
</event>
<event>
 9    1  0.1321469E-005  0.1061378E+03  0.7546771E-02  0.1269728E+00
         21   -1    0    0  501  502  0.00000000000E+00  0.00000000000E+00  0.17463896067E+03  0.17463896067E+03  0.00000000000E+00 0.  1.
          4   -1    0    0  502    0 -0.00000000000E+00 -0.00000000000E+00 -0.99404468994E+02  0.99404468994E+02  0.00000000000E+00 0. -1.
         23    2    1    2    0    0  0.50444613866E+02 -0.56251065447E+00 -0.19851367681E+02  0.10614118898E+03  0.91251847723E+02 0.  0.
         23    2    1    2    0    0 -0.60197144482E+02  0.23067850576E+02  0.56224399557E+02  0.12194774976E+03  0.86915180675E+02 0.  0.
        -11    1    4    4    0    0 -0.52960192940E+02 -0.21924954638E+02  0.49790252421E+02  0.75924666007E+02  0.00000000000E+00 0.  1.
         11    1    4    4    0    0 -0.72369515415E+01  0.44992805214E+02  0.64341471359E+01  0.46023083751E+02  0.00000000000E+00 0. -1.
        -13    1    3    3    0    0 -0.21540171393E+02  0.12227102168E+02  0.10599443801E+02  0.26941217863E+02  0.00000000000E+00 0.  1.
         13    1    3    3    0    0  0.71984785259E+02 -0.12789612823E+02 -0.30450811482E+02  0.79199971116E+02  0.00000000000E+00 0. -1.
          4    1    1    2  501    0  0.97525306157E+01 -0.22505339921E+02  0.38861459800E+02  0.45954490925E+02  0.00000000000E+00 0. -1.
<scales pt_clust_5="13000.00000" pt_clust_6="13000.00000" pt_clust_7="13000.00000" pt_clust_8="13000.00000" pt_clust_9="24.52758"></scales>
<clustering>
<clus scale="   24.528">  1  9  2 -1</clus>
<clus scale="   86.915">  5  6 -1 -1</clus>
<clus scale="   91.252">  7  8 -1 -1</clus>
<clus scale="  102.433">  1  5  2 -1</clus>
<clus scale="   24.528">  1  5  2 -1</clus>
</clustering>
</event>
<event>
 9    1  0.1321469E-005  0.8537168E+02  0.7546771E-02  0.1315405E+00
          1   -1    0    0  502    0 -0.00000000000E+00  0.00000000000E+00  0.18205773439E+03  0.18205773439E+03  0.00000000000E+00 0. -1.
         21   -1    0    0  501  502  0.00000000000E+00 -0.00000000000E+00 -0.72575601945E+02  0.72575601945E+02  0.00000000000E+00 0. -1.
         23    2    1    2    0    0 -0.10013449817E+02  0.13552100113E+02  0.95119905540E+02  0.12744712964E+03  0.83132700123E+02 0.  0.
         23    2    1    2    0    0  0.37092909307E+02  0.89730806544E+01  0.17515989516E+02  0.91822000025E+02  0.81658249446E+02 0.  0.
        -11    1    4    4    0    0  0.19168220380E+02  0.45487161396E+02  0.11736269830E+02  0.50736993938E+02  0.00000000000E+00 0. -1.
         11    1    4    4    0    0  0.17924688927E+02 -0.36514080741E+02  0.57797196861E+01  0.41085006087E+02  0.00000000000E+00 0.  1.
        -13    1    3    3    0    0  0.36142218262E+02  0.87075380242E+00  0.49725846616E+02  0.61479085670E+02  0.00000000000E+00 0. -1.
         13    1    3    3    0    0 -0.46155668079E+02  0.12681346311E+02  0.45394058924E+02  0.65968043973E+02  0.00000000000E+00 0.  1.
          1    1    1    2  501    0 -0.27079459490E+02 -0.22525180768E+02 -0.31537626067E+01  0.35364206671E+02  0.00000000000E+00 0. -1.
<scales pt_clust_5="13000.00000" pt_clust_6="13000.00000" pt_clust_7="13000.00000" pt_clust_8="13000.00000" pt_clust_9="35.22330"></scales>
<clustering>
<clus scale="   35.223">  2  9  1 -1</clus>
<clus scale="   81.658">  5  6 -1 -1</clus>
<clus scale="   83.133">  7  8 -1 -1</clus>
<clus scale="   83.937">  2  5  1 -1</clus>
<clus scale="   35.223">  2  5  1 -1</clus>
</clustering>
</event>
<event>
 9    1  0.1321469E-005  0.9664654E+02  0.7546771E-02  0.1289034E+00
         21   -1    0    0  501  502  0.00000000000E+00  0.00000000000E+00  0.31540255618E+03  0.31540255618E+03  0.00000000000E+00 0. -1.
         -3   -1    0    0    0  501 -0.00000000000E+00 -0.00000000000E+00 -0.60504559279E+02  0.60504559279E+02  0.00000000000E+00 0.  1.
         23    2    1    2    0    0 -0.10082689520E+02  0.14947134904E+02  0.14037272814E+02  0.93091056405E+02  0.90243128740E+02 0.  0.
         23    2    1    2    0    0  0.35820692976E+02 -0.43758325697E+02  0.18920392807E+03  0.21831060105E+03  0.93077811659E+02 0.  0.
        -11    1    3    3    0    0 -0.15755532679E+02  0.51887297013E+02  0.12699789646E+02  0.55693922994E+02  0.00000000000E+00 0.  1.
         11    1    3    3    0    0  0.56728431594E+01 -0.36940162109E+02  0.13374831681E+01  0.37397133411E+02  0.00000000000E+00 0. -1.
        -13    1    4    4    0    0  0.55490427427E+02 -0.51392422887E+02  0.93260270560E+02  0.12007433835E+03  0.00000000000E+00 0. -1.
         13    1    4    4    0    0 -0.19669734451E+02  0.76340971905E+01  0.95943657507E+02  0.98236262699E+02  0.00000000000E+00 0.  1.
         -3    1    1    2    0  502 -0.25738003456E+02  0.28811190792E+02  0.51656796019E+02  0.64505457999E+02  0.00000000000E+00 0.  1.
<scales pt_clust_5="13000.00000" pt_clust_6="13000.00000" pt_clust_7="13000.00000" pt_clust_8="13000.00000" pt_clust_9="38.63327"></scales>
<clustering>
<clus scale="   38.633">  1  9  2 -1</clus>
<clus scale="   90.243">  5  6 -1 -1</clus>
<clus scale="   93.078">  7  8 -1 -1</clus>
<clus scale="   93.920">  2  5  1 -1</clus>
<clus scale="   38.633">  1  5  2 -1</clus>
</clustering>
</event>
<event>
 9    1  0.1321469E-005  0.1355973E+03  0.7546771E-02  0.1223435E+00
          2   -1    0    0  502    0 -0.00000000000E+00  0.00000000000E+00  0.15725997410E+03  0.15725997410E+03  0.00000000000E+00 0. -1.
         21   -1    0    0  501  502  0.00000000000E+00 -0.00000000000E+00 -0.14833221966E+03  0.14833221966E+03  0.00000000000E+00 0.  1.
         23    2    1    2    0    0  0.75659090435E+02  0.48901440328E+02  0.65957621202E+02  0.15495189978E+03  0.10744316925E+03 0.  0.
         23    2    1    2    0    0 -0.58195379518E+02 -0.38095103157E+02 -0.37053955993E+02  0.12199077159E+03  0.93117203660E+02 0.  0.
        -13    1    4    4    0    0 -0.23944761520E+02 -0.63266772583E+02 -0.41326375560E+02  0.79271088262E+02  0.00000000000E+00 0.  1.
         13    1    4    4    0    0 -0.34250617998E+02  0.25171669426E+02  0.42724195672E+01  0.42719683331E+02  0.00000000000E+00 0. -1.
        -13    1    3    3    0    0  0.34763721880E+02  0.32180982487E+02  0.92133208613E+02  0.10359855270E+03  0.00000000000E+00 0. -1.
         13    1    3    3    0    0  0.40895368555E+02  0.16720457841E+02 -0.26175587412E+02  0.51353347077E+02  0.00000000000E+00 0.  1.
          2    1    1    2  501    0 -0.17463710917E+02 -0.10806337171E+02 -0.19975910773E+02  0.28649522392E+02  0.00000000000E+00 0. -1.
<scales pt_clust_5="13000.00000" pt_clust_6="13000.00000" pt_clust_7="13000.00000" pt_clust_8="13000.00000" pt_clust_9="20.53675"></scales>
<clustering>
<clus scale="   20.537">  2  9  1 -1</clus>
<clus scale="   93.117">  5  6 -1 -1</clus>
<clus scale="  107.443">  7  8 -1 -1</clus>
<clus scale="  124.553">  2  5  1 -1</clus>
<clus scale="   20.537">  2  5  1 -1</clus>
</clustering>
</event>
<event>
 9    1  0.1321469E-005  0.1151540E+03  0.7546771E-02  0.1252489E+00
         21   -1    0    0  501  502  0.00000000000E+00  0.00000000000E+00  0.73301651874E+02  0.73301651874E+02  0.00000000000E+00 0. -1.
          2   -1    0    0  502    0 -0.00000000000E+00 -0.00000000000E+00 -0.57221950536E+03  0.57221950536E+03  0.00000000000E+00 0. -1.
         23    2    1    2    0    0  0.59482049063E+02 -0.59622794331E+01 -0.30564426959E+03  0.32354674345E+03  0.87694998283E+02 0.  0.
         23    2    1    2    0    0 -0.84398547915E+02  0.44376889660E+02 -0.22875851301E+03  0.26404605814E+03  0.91090286625E+02 0.  0.
        -11    1    4    4    0    0 -0.27580436108E+02  0.13074038803E+02 -0.48194431216E+01  0.30900452724E+02  0.00000000000E+00 0.  1.
         11    1    4    4    0    0 -0.56818111807E+02  0.31302850857E+02 -0.22393906989E+03  0.23314560542E+03  0.00000000000E+00 0. -1.
        -11    1    3    3    0    0  0.69215119464E+01  0.37374311605E+02 -0.10929188208E+03  0.11571284278E+03  0.00000000000E+00 0. -1.
         11    1    3    3    0    0  0.52560537116E+02 -0.43336591039E+02 -0.19635238751E+03  0.20783390067E+03  0.00000000000E+00 0.  1.
          2    1    1    2  501    0  0.24916498853E+02 -0.38414610227E+02  0.35484929116E+02  0.57928355650E+02  0.00000000000E+00 0. -1.
<scales pt_clust_5="13000.00000" pt_clust_6="13000.00000" pt_clust_7="13000.00000" pt_clust_8="13000.00000" pt_clust_9="45.78771"></scales>
<clustering>
<clus scale="   45.788">  1  9  2 -1</clus>
<clus scale="   87.695">  7  8 -1 -1</clus>
<clus scale="   91.090">  5  6 -1 -1</clus>
<clus scale="  112.487">  2  7  1 -1</clus>
<clus scale="   45.788">  1  5  2 -1</clus>
</clustering>
</event>
<event>
 9    1  0.1321469E-005  0.9926224E+02  0.7546771E-02  0.1282352E+00
         -3   -1    0    0    0  501 -0.00000000000E+00  0.00000000000E+00  0.31643237434E+03  0.31643237434E+03  0.00000000000E+00 0.  1.
         21   -1    0    0  501  502  0.00000000000E+00 -0.00000000000E+00 -0.22701490063E+03  0.22701490063E+03  0.00000000000E+00 0.  1.
         23    2    1    2    0    0 -0.27379524105E+02  0.11857112716E+02  0.14624594067E+03  0.17496518182E+03  0.91294634159E+02 0.  0.
         23    2    1    2    0    0  0.53804597302E+02  0.27223952907E+02  0.13368407901E+03  0.17221532481E+03  0.90280711204E+02 0.  0.
        -11    1    3    3    0    0  0.27002164615E+02 -0.12991266305E+02  0.81507291295E+02  0.86840822361E+02  0.00000000000E+00 0.  1.
         11    1    3    3    0    0 -0.54381688719E+02  0.24848379020E+02  0.64738649374E+02  0.88124359462E+02  0.00000000000E+00 0. -1.
        -13    1    4    4    0    0  0.50424570547E+02  0.45406341587E+01  0.17162761768E+02  0.53458535940E+02  0.00000000000E+00 0. -1.
         13    1    4    4    0    0  0.33800267553E+01  0.22683318749E+02  0.11652131724E+03  0.11875678887E+03  0.00000000000E+00 0.  1.
         -3    1    1    2    0  502 -0.26425073197E+02 -0.39081065623E+02 -0.19051254597E+03  0.19626676834E+03  0.00000000000E+00 0.  1.
<scales pt_clust_5="13000.00000" pt_clust_6="13000.00000" pt_clust_7="13000.00000" pt_clust_8="13000.00000" pt_clust_9="47.17642"></scales>
<clustering>
<clus scale="   47.176">  2  9  1 -1</clus>
<clus scale="   90.281">  7  8 -1 -1</clus>
<clus scale="   91.295">  5  6 -1 -1</clus>
<clus scale="   98.331">  2  7  1 -1</clus>
<clus scale="   47.176">  2  5  1 -1</clus>
</clustering>
</event>
<event>
 9    1  0.1321469E-005  0.9657092E+02  0.7546771E-02  0.1288711E+00
         -3   -1    0    0    0  501 -0.00000000000E+00  0.00000000000E+00  0.18745566244E+03  0.18745566244E+03  0.00000000000E+00 0.  1.
         21   -1    0    0  501  502  0.00000000000E+00 -0.00000000000E+00 -0.13206048473E+03  0.13206048473E+03  0.00000000000E+00 0.  1.
         23    2    1    2    0    0  0.36020187997E+01 -0.39163319363E+02  0.10587961186E+03  0.14543948222E+03  0.91626473562E+02 0.  0.
         23    2    1    2    0    0  0.23019746782E+01 -0.74694527752E+01  0.13335616678E+02  0.94814621924E+02  0.93546149286E+02 0.  0.
        -11    1    4    4    0    0 -0.44632990868E+01 -0.34953084592E+02 -0.27799403285E+02  0.44882579964E+02  0.00000000000E+00 0.  1.
         11    1    4    4    0    0  0.67652737650E+01  0.27483631817E+02  0.41135019963E+02  0.49932041960E+02  0.00000000000E+00 0. -1.
        -13    1    3    3    0    0 -0.42784089588E+02 -0.13900118328E+02  0.62964394696E+02  0.77383503480E+02  0.00000000000E+00 0.  1.
         13    1    3    3    0    0  0.46386108387E+02 -0.25263201036E+02  0.42915217166E+02  0.68055978740E+02  0.00000000000E+00 0. -1.
         -3    1    1    2    0  502 -0.59039934778E+01  0.46632772139E+02 -0.63820050834E+02  0.79262043027E+02  0.00000000000E+00 0.  1.
<scales pt_clust_5="13000.00000" pt_clust_6="13000.00000" pt_clust_7="13000.00000" pt_clust_8="13000.00000" pt_clust_9="47.00503"></scales>
<clustering>
<clus scale="   47.005">  2  9  1 -1</clus>
<clus scale="   91.626">  7  8 -1 -1</clus>
<clus scale="   93.546">  5  6 -1 -1</clus>
<clus scale="   94.713">  1  7  2 -1</clus>
<clus scale="   47.005">  2  5  1 -1</clus>
</clustering>
</event>
<event>
 9    1  0.1321469E-005  0.1565447E+03  0.7546771E-02  0.1194722E+00
         21   -1    0    0  501  502  0.00000000000E+00  0.00000000000E+00  0.90586959903E+02  0.90586959903E+02  0.00000000000E+00 0. -1.
         -1   -1    0    0    0  501 -0.00000000000E+00 -0.00000000000E+00 -0.35550256565E+03  0.35550256565E+03  0.00000000000E+00 0.  1.
         23    2    1    2    0    0 -0.54965975531E+02 -0.10114320911E+03 -0.14764678465E+03  0.20720056918E+03  0.88776661552E+02 0.  0.
         23    2    1    2    0    0  0.87122855393E+02  0.99675838877E+02 -0.66474433571E+02  0.17875337703E+03  0.10004126496E+03 0.  0.
        -11    1    4    4    0    0  0.57495316205E+02  0.10057277333E+03 -0.85101070591E+02  0.14374556110E+03  0.00000000000E+00 0. -1.
         11    1    4    4    0    0  0.29627539187E+02 -0.89693445054E+00  0.18626637021E+02  0.35007815933E+02  0.00000000000E+00 0.  1.
        -13    1    3    3    0    0  0.20761599185E+02 -0.17792448091E+02 -0.54815762214E+02  0.61256697568E+02  0.00000000000E+00 0. -1.
         13    1    3    3    0    0 -0.75727574716E+02 -0.83350761022E+02 -0.92831022432E+02  0.14594387161E+03  0.00000000000E+00 0.  1.
         -1    1    1    2    0  502 -0.32156879862E+02  0.14673702366E+01 -0.50794387528E+02  0.60135579337E+02  0.00000000000E+00 0.  1.
<scales pt_clust_5="13000.00000" pt_clust_6="13000.00000" pt_clust_7="13000.00000" pt_clust_8="13000.00000" pt_clust_9="32.19036"></scales>
<clustering>
<clus scale="   32.190">  1  9  2 -1</clus>
<clus scale="   88.777">  7  8 -1 -1</clus>
<clus scale="  100.041">  5  6 -1 -1</clus>
<clus scale="  149.597">  2  7  1 -1</clus>
<clus scale="   32.190">  1  5  2 -1</clus>
</clustering>
</event>
<event>
 9    1  0.1321469E-005  0.1470824E+03  0.7546771E-02  0.1204294E+00
         21   -1    0    0  501  502  0.00000000000E+00  0.00000000000E+00  0.85723992829E+02  0.85723992829E+02  0.00000000000E+00 0.  1.
          2   -1    0    0  502    0 -0.00000000000E+00 -0.00000000000E+00 -0.58298003063E+03  0.58298003063E+03  0.00000000000E+00 0. -1.
         23    2    1    2    0    0  0.59218339339E+02  0.73936827680E+02 -0.26990736183E+03  0.30013463022E+03  0.90869940489E+02 0.  0.
         23    2    1    2    0    0 -0.74294112665E+02 -0.15732624232E+03 -0.19902466927E+03  0.27921995133E+03  0.89898835045E+02 0.  0.
        -13    1    3    3    0    0  0.20947883380E+02 -0.12436966532E+02 -0.12359254645E+03  0.12597066918E+03  0.00000000000E+00 0.  1.
         13    1    3    3    0    0  0.38270455960E+02  0.86373794212E+02 -0.14631481538E+03  0.17416396104E+03  0.00000000000E+00 0. -1.
        -13    1    4    4    0    0 -0.75328644027E+02 -0.10219073965E+03 -0.85647902302E+02  0.15314344599E+03  0.00000000000E+00 0.  1.
         13    1    4    4    0    0  0.10345313622E+01 -0.55135502667E+02 -0.11337676697E+03  0.12607650534E+03  0.00000000000E+00 0. -1.
          2    1    1    2  501    0  0.15075773326E+02  0.83389414637E+02 -0.28324006701E+02  0.89349441915E+02  0.00000000000E+00 0. -1.
<scales pt_clust_5="13000.00000" pt_clust_6="13000.00000" pt_clust_7="13000.00000" pt_clust_8="13000.00000" pt_clust_9="84.74121"></scales>
<clustering>
<clus scale="   84.741">  1  9  2 -1</clus>
<clus scale="   89.899">  7  8 -1 -1</clus>
<clus scale="   90.870">  5  6 -1 -1</clus>
<clus scale="  146.484">  1  7  2 -1</clus>
<clus scale="   84.741">  1  5  2 -1</clus>
</clustering>
</event>
<event>
 9    1  0.1321469E-005  0.1074209E+03  0.7546771E-02  0.1272904E+00
          3   -1    0    0  502    0 -0.00000000000E+00  0.00000000000E+00  0.12415758438E+03  0.12415758438E+03  0.00000000000E+00 0. -1.
         21   -1    0    0  501  502  0.00000000000E+00 -0.00000000000E+00 -0.26120094778E+03  0.26120094778E+03  0.00000000000E+00 0. -1.
         23    2    1    2    0    0  0.39799278123E+02  0.35027087805E+01  0.52887416255E+02  0.12340573093E+03  0.10409440005E+03 0.  0.
         23    2    1    2    0    0 -0.22897550956E-01 -0.15926649250E+02 -0.27949683641E+02  0.94697337306E+02  0.89065942967E+02 0.  0.
        -13    1    3    3    0    0 -0.75087597985E+01  0.40508986915E+02 -0.30734511596E+01  0.41313503804E+02  0.00000000000E+00 0.  1.
         13    1    3    3    0    0  0.47308037921E+02 -0.37006278134E+02  0.55960867415E+02  0.82092227130E+02  0.00000000000E+00 0. -1.
        -13    1    4    4    0    0  0.28086616301E+02  0.22671108761E+02 -0.29956432556E+02  0.46906556462E+02  0.00000000000E+00 0. -1.
         13    1    4    4    0    0 -0.28109513852E+02 -0.38597758010E+02  0.20067489147E+01  0.47790780844E+02  0.00000000000E+00 0.  1.
          3    1    1    2  501    0 -0.39776380572E+02  0.12423940469E+02 -0.16198109600E+03  0.16725546392E+03  0.00000000000E+00 0. -1.
<scales pt_clust_5="13000.00000" pt_clust_6="13000.00000" pt_clust_7="13000.00000" pt_clust_8="13000.00000" pt_clust_9="41.67151"></scales>
<clustering>
<clus scale="   41.672">  2  9  1 -1</clus>
<clus scale="   89.066">  7  8 -1 -1</clus>
<clus scale="   92.932">  2  7  1 -1</clus>
<clus scale="  104.094">  5  6 -1 -1</clus>
<clus scale="   41.672">  2  5  1 -1</clus>
</clustering>
</event>
<event>
 9    1  0.1321469E-005  0.9761051E+02  0.7546771E-02  0.1285888E+00
         21   -1    0    0  501  502  0.00000000000E+00  0.00000000000E+00  0.38686548548E+03  0.38686548548E+03  0.00000000000E+00 0. -1.
          1   -1    0    0  502    0 -0.00000000000E+00 -0.00000000000E+00 -0.42542956347E+03  0.42542956347E+03  0.00000000000E+00 0. -1.
         23    2    1    2    0    0 -0.16755983829E-01 -0.37252929639E+02 -0.38883973224E+03  0.40124076158E+03  0.91706217540E+02 0.  0.
         23    2    1    2    0    0 -0.30660009826E+02 -0.25123634570E+02  0.67480214777E+02  0.11984103164E+03  0.90758251754E+02 0.  0.
        -11    1    4    4    0    0 -0.38583841385E+02 -0.51694321087E+01  0.84111372658E+02  0.92683109868E+02  0.00000000000E+00 0.  1.
         11    1    4    4    0    0  0.79238315590E+01 -0.19954202461E+02 -0.16631157882E+02  0.27157921771E+02  0.00000000000E+00 0. -1.
        -11    1    3    3    0    0 -0.23476805448E+02  0.23740820329E+02 -0.11843220930E+03  0.12304866981E+03  0.00000000000E+00 0.  1.
         11    1    3    3    0    0  0.23460049464E+02 -0.60993749967E+02 -0.27040752295E+03  0.27819209177E+03  0.00000000000E+00 0. -1.
          1    1    1    2  501    0  0.30676765810E+02  0.62376564209E+02  0.28279543948E+03  0.29121325573E+03  0.00000000000E+00 0. -1.
<scales pt_clust_5="13000.00000" pt_clust_6="13000.00000" pt_clust_7="13000.00000" pt_clust_8="13000.00000" pt_clust_9="69.51187"></scales>
<clustering>
<clus scale="   69.512">  1  9  2 -1</clus>
<clus scale="   90.758">  5  6 -1 -1</clus>
<clus scale="   91.706">  7  8 -1 -1</clus>
<clus scale="   96.720">  1  5  2 -1</clus>
<clus scale="   69.512">  1  5  2 -1</clus>
</clustering>
</event>
<event>
 9    1  0.1321469E-005  0.1121809E+03  0.7546771E-02  0.1256736E+00
          4   -1    0    0  502    0 -0.00000000000E+00  0.00000000000E+00  0.20522838704E+03  0.20522838704E+03  0.00000000000E+00 0. -1.
         21   -1    0    0  501  502  0.00000000000E+00 -0.00000000000E+00 -0.14511191420E+03  0.14511191420E+03  0.00000000000E+00 0. -1.
         23    2    1    2    0    0 -0.17116048170E+02 -0.58375948515E+02  0.13551154545E+03  0.17471706244E+03  0.91988925894E+02 0.  0.
         23    2    1    2    0    0  0.58552882056E+00  0.80523817516E+02 -0.35348645753E+02  0.12696625086E+03  0.91577694168E+02 0.  0.
        -13    1    3    3    0    0 -0.45540493617E+02 -0.61141065780E+02  0.12013104638E+03  0.14228012787E+03  0.00000000000E+00 0. -1.
         13    1    3    3    0    0  0.28424445448E+02  0.27651172646E+01  0.15380499078E+02  0.32436934571E+02  0.00000000000E+00 0.  1.
        -13    1    4    4    0    0 -0.15646407093E+02 -0.15204368453E+02  0.40371659998E+01  0.22187419505E+02  0.00000000000E+00 0.  1.
         13    1    4    4    0    0  0.16231935913E+02  0.95728185969E+02 -0.39385811753E+02  0.10477883135E+03  0.00000000000E+00 0. -1.
          4    1    1    2  501    0  0.16530519349E+02 -0.22147869001E+02 -0.40046426860E+02  0.48656987941E+02  0.00000000000E+00 0. -1.
<scales pt_clust_5="13000.00000" pt_clust_6="13000.00000" pt_clust_7="13000.00000" pt_clust_8="13000.00000" pt_clust_9="27.63668"></scales>
<clustering>
<clus scale="   27.637">  2  9  1 -1</clus>
<clus scale="   91.578">  7  8 -1 -1</clus>
<clus scale="   91.989">  5  6 -1 -1</clus>
<clus scale="  111.844">  2  7  1 -1</clus>
<clus scale="   27.637">  2  5  1 -1</clus>
</clustering>
</event>
<event>
 9    1  0.1321469E-005  0.9553723E+02  0.7546771E-02  0.1291894E+00
         21   -1    0    0  501  502  0.00000000000E+00  0.00000000000E+00  0.20699650494E+02  0.20699650494E+02  0.00000000000E+00 0. -1.
          2   -1    0    0  502    0 -0.00000000000E+00 -0.00000000000E+00 -0.60769333694E+03  0.60769333694E+03  0.00000000000E+00 0.  1.
         23    2    1    2    0    0  0.21646229990E+00  0.32322554909E+00 -0.35166702709E+03  0.36347676140E+03  0.91899438553E+02 0.  0.
         23    2    1    2    0    0 -0.20684550504E+02  0.74140217388E+01 -0.17119227552E+03  0.19715173076E+03  0.95284790988E+02 0.  0.
        -13    1    3    3    0    0  0.30308370383E+02 -0.34213787808E+02 -0.15902091281E+03  0.16545945516E+03  0.00000000000E+00 0.  1.
         13    1    3    3    0    0 -0.30091908083E+02  0.34537013357E+02 -0.19264611428E+03  0.19801730624E+03  0.00000000000E+00 0. -1.
        -13    1    4    4    0    0  0.38286948161E+02  0.28683181637E+01 -0.74289006085E+02  0.83624004171E+02  0.00000000000E+00 0.  1.
         13    1    4    4    0    0 -0.58971498665E+02  0.45457035750E+01 -0.96903269438E+02  0.11352772658E+03  0.00000000000E+00 0. -1.
          2    1    1    2  501    0  0.20468088204E+02 -0.77372472879E+01 -0.64134383830E+02  0.67764495273E+02  0.00000000000E+00 0.  1.
<scales pt_clust_5="13000.00000" pt_clust_6="13000.00000" pt_clust_7="13000.00000" pt_clust_8="13000.00000" pt_clust_9="21.88168"></scales>
<clustering>
<clus scale="   21.882">  1  9  2 -1</clus>
<clus scale="   91.899">  5  6 -1 -1</clus>
<clus scale="   92.161">  2  5  1 -1</clus>
<clus scale="   95.285">  7  8 -1 -1</clus>
<clus scale="   21.882">  1  5  2 -1</clus>
</clustering>
</event>
<event>
 9    1  0.1321469E-005  0.1072717E+03  0.7546771E-02  0.1265750E+00
         -1   -1    0    0    0  501 -0.00000000000E+00  0.00000000000E+00  0.61485833997E+03  0.61485833997E+03  0.00000000000E+00 0.  1.
         21   -1    0    0  501  502  0.00000000000E+00 -0.00000000000E+00 -0.67879682308E+02  0.67879682308E+02  0.00000000000E+00 0. -1.
         23    2    1    2    0    0  0.49536225943E+02  0.15576511487E+02  0.49181816352E+03  0.50287368692E+03  0.91106386388E+02 0.  0.
         23    2    1    2    0    0 -0.87157919182E+02 -0.27348801770E+02  0.55319756607E+02  0.14044347812E+03  0.91212034524E+02 0.  0.
        -11    1    4    4    0    0 -0.35181845065E+02  0.33808901531E+02  0.19326265787E+02  0.52481507164E+02  0.00000000000E+00 0.  1.
         11    1    4    4    0    0 -0.51976074117E+02 -0.61157703301E+02  0.35993490819E+02  0.87961970959E+02  0.00000000000E+00 0. -1.
        -13    1    3    3    0    0 -0.61752596445E+01 -0.28072596360E+02  0.79751115303E+02  0.84772901862E+02  0.00000000000E+00 0. -1.
         13    1    3    3    0    0  0.55711485588E+02  0.43649107847E+02  0.41206704821E+03  0.41810078506E+03  0.00000000000E+00 0.  1.
         -1    1    1    2    0  502  0.37621693239E+02  0.11772290283E+02 -0.15926246007E+00  0.39420857236E+02  0.00000000000E+00 0.  1.
<scales pt_clust_5="13000.00000" pt_clust_6="13000.00000" pt_clust_7="13000.00000" pt_clust_8="13000.00000" pt_clust_9="39.42054"></scales>
<clustering>
<clus scale="   39.421">  2  9  1 -1</clus>
<clus scale="   91.106">  7  8 -1 -1</clus>
<clus scale="   91.212">  5  6 -1 -1</clus>
<clus scale="  107.182">  1  7  2 -1</clus>
<clus scale="   39.421">  2  5  1 -1</clus>
</clustering>
</event>
<event>
 9    1  0.1321469E-005  0.1010810E+03  0.7546771E-02  0.1278222E+00
          1   -1    0    0  502    0 -0.00000000000E+00  0.00000000000E+00  0.65370731754E+03  0.65370731754E+03  0.00000000000E+00 0. -1.
         21   -1    0    0  501  502  0.00000000000E+00 -0.00000000000E+00 -0.61883211507E+02  0.61883211507E+02  0.00000000000E+00 0. -1.
         23    2    1    2    0    0 -0.29260157029E+02  0.22132972512E+02  0.47049402922E+03  0.48087601827E+03  0.92363889861E+02 0.  0.
         23    2    1    2    0    0  0.50584186535E+02 -0.58177570781E+02  0.16373796125E+02  0.12171120041E+03  0.92747643833E+02 0.  0.
        -11    1    3    3    0    0  0.15799194387E+02  0.45322747032E+02  0.20028116793E+03  0.20595220846E+03  0.00000000000E+00 0. -1.
         11    1    3    3    0    0 -0.45059351415E+02 -0.23189774520E+02  0.27021286129E+03  0.27492380981E+03  0.00000000000E+00 0.  1.
        -13    1    4    4    0    0  0.67486114220E+02 -0.36567151400E+02 -0.16890518087E+02  0.78592759051E+02  0.00000000000E+00 0. -1.
         13    1    4    4    0    0 -0.16901927685E+02 -0.21610419381E+02  0.33264314212E+02  0.43118441360E+02  0.00000000000E+00 0.  1.
          1    1    1    2  501    0 -0.21324029506E+02  0.36044598269E+02  0.10495628068E+03  0.11300331036E+03  0.00000000000E+00 0. -1.
<scales pt_clust_5="13000.00000" pt_clust_6="13000.00000" pt_clust_7="13000.00000" pt_clust_8="13000.00000" pt_clust_9="41.87994"></scales>
<clustering>
<clus scale="   41.880">  2  9  1 -1</clus>
<clus scale="   92.364">  5  6 -1 -1</clus>
<clus scale="   92.748">  7  8 -1 -1</clus>
<clus scale="  100.729">  1  5  2 -1</clus>
<clus scale="   41.880">  2  5  1 -1</clus>
</clustering>
</event>
<event>
 9    1  0.1321469E-005  0.1059089E+03  0.7546771E-02  0.1269925E+00
         21   -1    0    0  501  502  0.00000000000E+00  0.00000000000E+00  0.80466549186E+03  0.80466549186E+03  0.00000000000E+00 0. -1.
         -3   -1    0    0    0  501 -0.00000000000E+00 -0.00000000000E+00 -0.33940142645E+02  0.33940142645E+02  0.00000000000E+00 0.  1.
         23    2    1    2    0    0  0.29130825386E+01 -0.48003948336E+02  0.70093972816E+02  0.12418572997E+03  0.90532123562E+02 0.  0.
         23    2    1    2    0    0  0.24575367655E+02  0.50960722588E+02  0.50221972326E+03  0.51409132068E+03  0.94150367116E+02 0.  0.
        -11    1    3    3    0    0 -0.51810653162E+01 -0.66352377403E+02  0.18872697732E+02  0.69178465901E+02  0.00000000000E+00 0.  1.
         11    1    3    3    0    0  0.80941478548E+01  0.18348429067E+02  0.51221275085E+02  0.55007264066E+02  0.00000000000E+00 0. -1.
        -11    1    4    4    0    0  0.23081912935E+02  0.78524816665E+02  0.39350126806E+03  0.40192308904E+03  0.00000000000E+00 0. -1.
         11    1    4    4    0    0  0.14934547194E+01 -0.27564094077E+02  0.10871845519E+03  0.11216823164E+03  0.00000000000E+00 0.  1.
         -3    1    1    2    0  502 -0.27488450193E+02 -0.29567742525E+01  0.19841165314E+03  0.20032858386E+03  0.00000000000E+00 0.  1.
<scales pt_clust_5="13000.00000" pt_clust_6="13000.00000" pt_clust_7="13000.00000" pt_clust_8="13000.00000" pt_clust_9="27.64701"></scales>
<clustering>
<clus scale="   27.647">  1  9  2 -1</clus>
<clus scale="   90.532">  5  6 -1 -1</clus>
<clus scale="   94.150">  7  8 -1 -1</clus>
<clus scale="  102.706">  2  5  1 -1</clus>
<clus scale="   27.647">  1  5  2 -1</clus>
</clustering>
</event>
<event>
 9    1  0.1321469E-005  0.1162031E+03  0.7546771E-02  0.1249931E+00
          1   -1    0    0  502    0 -0.00000000000E+00  0.00000000000E+00  0.64818676260E+03  0.64818676260E+03  0.00000000000E+00 0. -1.
         21   -1    0    0  501  502  0.00000000000E+00 -0.00000000000E+00 -0.28536891542E+02  0.28536891542E+02  0.00000000000E+00 0. -1.
         23    2    1    2    0    0 -0.39703305933E+02  0.35821515404E+02  0.24751803160E+03  0.26941998542E+03  0.91991407792E+02 0.  0.
         23    2    1    2    0    0  0.65622391458E+02 -0.61019904779E+02  0.28491726098E+03  0.31289423847E+03  0.93248226921E+02 0.  0.
        -11    1    4    4    0    0 -0.15569774477E+02 -0.35145628937E+02  0.50478525792E+02  0.63448519895E+02  0.00000000000E+00 0.  1.
         11    1    4    4    0    0  0.81192165935E+02 -0.25874275842E+02  0.23443873519E+03  0.24944571858E+03  0.00000000000E+00 0. -1.
        -13    1    3    3    0    0 -0.10329446340E+01 -0.27911592372E+02  0.10413302855E+03  0.10781378204E+03  0.00000000000E+00 0. -1.
         13    1    3    3    0    0 -0.38670361299E+02  0.63733107776E+02  0.14338500305E+03  0.16160620338E+03  0.00000000000E+00 0.  1.
          1    1    1    2  501    0 -0.25919085525E+02  0.25198389375E+02  0.87214578478E+02  0.94409430253E+02  0.00000000000E+00 0. -1.
<scales pt_clust_5="13000.00000" pt_clust_6="13000.00000" pt_clust_7="13000.00000" pt_clust_8="13000.00000" pt_clust_9="36.14912"></scales>
<clustering>
<clus scale="   36.149">  2  9  1 -1</clus>
<clus scale="   91.991">  7  8 -1 -1</clus>
<clus scale="   93.248">  5  6 -1 -1</clus>
<clus scale="  115.197">  1  7  2 -1</clus>
<clus scale="   36.149">  2  5  1 -1</clus>
</clustering>
</event>
<event>
 9    1  0.1321469E-005  0.2884695E+03  0.7546771E-02  0.1128124E+00
         -3   -1    0    0    0  501 -0.00000000000E+00  0.00000000000E+00  0.37168222057E+03  0.37168222057E+03  0.00000000000E+00 0.  1.
         21   -1    0    0  501  502  0.00000000000E+00 -0.00000000000E+00 -0.38684461905E+03  0.38684461905E+03  0.00000000000E+00 0.  1.
         23    2    1    2    0    0 -0.67520494377E+02 -0.15919233190E+02  0.69712971675E+02  0.13224926091E+03  0.88416793909E+02 0.  0.
         23    2    1    2    0    0  0.18477432354E+03  0.24820069669E+03  0.59954591257E+02  0.32848762512E+03  0.92544207633E+02 0.  0.
        -11    1    4    4    0    0  0.16641292515E+03  0.15692869232E+03  0.30042703829E+02  0.23069989203E+03  0.00000000000E+00 0.  1.
         11    1    4    4    0    0  0.18361398389E+02  0.91272004374E+02  0.29911887428E+02  0.97787733090E+02  0.00000000000E+00 0. -1.
        -13    1    3    3    0    0 -0.82114870392E+02 -0.83305425345E+00  0.30179807315E+02  0.87489237558E+02  0.00000000000E+00 0. -1.
         13    1    3    3    0    0  0.14594376014E+02 -0.15086178936E+02  0.39533164360E+02  0.44760023352E+02  0.00000000000E+00 0.  1.
         -3    1    1    2    0  502 -0.11725382916E+03 -0.23228146350E+03 -0.14482996141E+03  0.29778995359E+03  0.00000000000E+00 0.  1.
<scales pt_clust_5="13000.00000" pt_clust_6="13000.00000" pt_clust_7="13000.00000" pt_clust_8="13000.00000" pt_clust_9="273.22192"></scales>
<clustering>
<clus scale="   88.417">  7  8 -1 -1</clus>
<clus scale="   92.544">  5  6 -1 -1</clus>
<clus scale="  112.383">  1  7  2 -1</clus>
<clus scale="  273.222">  2  9  1 -1</clus>
<clus scale="  273.222">  2  5  1 -1</clus>
</clustering>
</event>
<event>
 9    1  0.1321469E-005  0.1506885E+03  0.7546771E-02  0.1215108E+00
         21   -1    0    0  501  502  0.00000000000E+00  0.00000000000E+00  0.21695969288E+03  0.21695969288E+03  0.00000000000E+00 0. -1.
          1   -1    0    0  502    0 -0.00000000000E+00 -0.00000000000E+00 -0.34865056854E+03  0.34865056854E+03  0.00000000000E+00 0. -1.
         23    2    1    2    0    0  0.47303836771E+01  0.57685140211E+02  0.88120030123E+02  0.13947778365E+03  0.91317908941E+02 0.  0.
         23    2    1    2    0    0  0.96224991334E+02  0.16624561745E+02 -0.26188922894E+03  0.29390349142E+03  0.90871717407E+02 0.  0.
        -11    1    4    4    0    0  0.12047643830E+02 -0.22632939192E+02 -0.14061909142E+02  0.29242656292E+02  0.00000000000E+00 0.  1.
         11    1    4    4    0    0  0.84177347504E+02  0.39257500937E+02 -0.24782731980E+03  0.26466083513E+03  0.00000000000E+00 0. -1.
        -13    1    3    3    0    0  0.29301857646E+02  0.65882039519E+02  0.87747733510E+02  0.11357247346E+03  0.00000000000E+00 0. -1.
         13    1    3    3    0    0 -0.24571473968E+02 -0.81968993087E+01  0.37229661343E+00  0.25905310190E+02  0.00000000000E+00 0.  1.
          1    1    1    2  501    0 -0.10095537501E+03 -0.74309701956E+02  0.42078323165E+02  0.13222898634E+03  0.00000000000E+00 0. -1.
<scales pt_clust_5="13000.00000" pt_clust_6="13000.00000" pt_clust_7="13000.00000" pt_clust_8="13000.00000" pt_clust_9="120.20552"></scales>
<clustering>
<clus scale="   90.872">  5  6 -1 -1</clus>
<clus scale="   91.318">  7  8 -1 -1</clus>
<clus scale="  108.115">  2  7  1 -1</clus>
<clus scale="  120.206">  1  9  2 -1</clus>
<clus scale="  120.206">  1  5  2 -1</clus>
</clustering>
</event>
<event>
 9    1  0.1321469E-005  0.1376855E+03  0.7546771E-02  0.1217146E+00
          2   -1    0    0  502    0 -0.00000000000E+00  0.00000000000E+00  0.47449599036E+03  0.47449599036E+03  0.00000000000E+00 0. -1.
         21   -1    0    0  501  502  0.00000000000E+00 -0.00000000000E+00 -0.21995969449E+03  0.21995969449E+03  0.00000000000E+00 0. -1.
         23    2    1    2    0    0 -0.14627165084E+02 -0.84879387121E+02  0.35565084224E+03  0.37962827185E+03  0.10105265404E+03 0.  0.
         23    2    1    2    0    0  0.45100432562E+02  0.17326883742E+03 -0.62260131489E+02  0.21358028706E+03  0.98407702992E+02 0.  0.
        -11    1    3    3    0    0  0.37930258822E+02 -0.46732261299E+02  0.23527536933E+03  0.24285202942E+03  0.00000000000E+00 0. -1.
         11    1    3    3    0    0 -0.52557423906E+02 -0.38147125822E+02  0.12037547291E+03  0.13677624243E+03  0.00000000000E+00 0.  1.
        -13    1    4    4    0    0  0.18898877944E+02  0.71078939612E+02  0.23939376697E+02  0.77346473743E+02  0.00000000000E+00 0.  1.
         13    1    4    4    0    0  0.26201554617E+02  0.10218989781E+03 -0.86199508186E+02  0.13623381332E+03  0.00000000000E+00 0. -1.
          2    1    1    2  501    0 -0.30473267478E+02 -0.88389450302E+02 -0.38854414878E+02  0.10124712594E+03  0.00000000000E+00 0. -1.
<scales pt_clust_5="13000.00000" pt_clust_6="13000.00000" pt_clust_7="13000.00000" pt_clust_8="13000.00000" pt_clust_9="93.49500"></scales>
<clustering>
<clus scale="   93.495">  2  9  1 -1</clus>
<clus scale="   98.408">  7  8 -1 -1</clus>
<clus scale="  101.053">  5  6 -1 -1</clus>
<clus scale="  135.756">  2  7  1 -1</clus>
<clus scale="   93.495">  2  5  1 -1</clus>
</clustering>
</event>
<event>
 9    1  0.1321469E-005  0.9312701E+02  0.7546771E-02  0.1296073E+00
          3   -1    0    0  502    0 -0.00000000000E+00  0.00000000000E+00  0.65885500695E+02  0.65885500695E+02  0.00000000000E+00 0. -1.
         21   -1    0    0  501  502  0.00000000000E+00 -0.00000000000E+00 -0.32369914828E+03  0.32369914828E+03  0.00000000000E+00 0.  1.
         23    2    1    2    0    0 -0.10064789033E+02  0.99739977322E+01  0.14352740209E+02  0.93495516802E+02  0.91294194237E+02 0.  0.
         23    2    1    2    0    0 -0.11967280808E+02 -0.70881139246E+01 -0.23351630310E+03  0.25150696675E+03  0.92371171599E+02 0.  0.
        -11    1    3    3    0    0  0.38731825398E+02  0.18081820053E+02  0.95400664275E+01  0.43796339830E+02  0.00000000000E+00 0.  1.
         11    1    3    3    0    0 -0.48796614431E+02 -0.81078223212E+01  0.48126737812E+01  0.49699176971E+02  0.00000000000E+00 0. -1.
        -13    1    4    4    0    0  0.27513550778E+02 -0.28283344197E+02 -0.16489672388E+03  0.16955197605E+03  0.00000000000E+00 0.  1.
         13    1    4    4    0    0 -0.39480831586E+02  0.21195230272E+02 -0.68619579216E+02  0.81954990701E+02  0.00000000000E+00 0. -1.
          3    1    1    2  501    0  0.22032069841E+02 -0.28858838077E+01 -0.38650084695E+02  0.44582165423E+02  0.00000000000E+00 0. -1.
<scales pt_clust_5="13000.00000" pt_clust_6="13000.00000" pt_clust_7="13000.00000" pt_clust_8="13000.00000" pt_clust_9="22.22027"></scales>
<clustering>
<clus scale="   22.220">  2  9  1 -1</clus>
<clus scale="   91.294">  5  6 -1 -1</clus>
<clus scale="   92.059">  1  5  2 -1</clus>
<clus scale="   92.371">  7  8 -1 -1</clus>
<clus scale="   22.220">  2  5  1 -1</clus>
</clustering>
</event>
<event>
 9    1  0.1321469E-005  0.9358123E+02  0.7546771E-02  0.1294777E+00
         21   -1    0    0  501  502  0.00000000000E+00  0.00000000000E+00  0.28369303634E+03  0.28369303634E+03  0.00000000000E+00 0.  1.
         -1   -1    0    0    0  501 -0.00000000000E+00 -0.00000000000E+00 -0.62510485972E+02  0.62510485972E+02  0.00000000000E+00 0.  1.
         23    2    1    2    0    0 -0.27727523059E+02 -0.74503630877E+01  0.27415858183E+02  0.10016592952E+03  0.91963366135E+02 0.  0.
         23    2    1    2    0    0 -0.18916395309E+02  0.24029795170E+02  0.93498447968E+02  0.13421517336E+03  0.91304391578E+02 0.  0.
        -13    1    4    4    0    0 -0.48587943761E+02  0.31602770094E+02  0.33737575618E+02  0.67065247074E+02  0.00000000000E+00 0.  1.
         13    1    4    4    0    0  0.29671548452E+02 -0.75729749235E+01  0.59760872350E+02  0.67149926290E+02  0.00000000000E+00 0. -1.
        -13    1    3    3    0    0 -0.25989590092E+02  0.34858656382E+02 -0.88988471673E+01  0.44382138285E+02  0.00000000000E+00 0.  1.
         13    1    3    3    0    0 -0.17379329671E+01 -0.42309019469E+02  0.36314705351E+02  0.55783791231E+02  0.00000000000E+00 0. -1.
         -1    1    1    2    0  502  0.46643918368E+02 -0.16579432082E+02  0.10026824422E+03  0.11182241943E+03  0.00000000000E+00 0.  1.
<scales pt_clust_5="13000.00000" pt_clust_6="13000.00000" pt_clust_7="13000.00000" pt_clust_8="13000.00000" pt_clust_9="49.50286"></scales>
<clustering>
<clus scale="   49.503">  1  9  2 -1</clus>
<clus scale="   91.304">  5  6 -1 -1</clus>
<clus scale="   91.963">  7  8 -1 -1</clus>
<clus scale="   92.934">  1  5  2 -1</clus>
<clus scale="   49.503">  1  5  2 -1</clus>
</clustering>
</event>
<event>
 9    1  0.1321469E-005  0.1468014E+03  0.7546771E-02  0.1205588E+00
         21   -1    0    0  501  502  0.00000000000E+00  0.00000000000E+00  0.19544544480E+03  0.19544544480E+03  0.00000000000E+00 0.  1.
          2   -1    0    0  502    0 -0.00000000000E+00 -0.00000000000E+00 -0.63301780957E+03  0.63301780957E+03  0.00000000000E+00 0. -1.
         23    2    1    2    0    0 -0.10658950141E+03 -0.18846402748E+02 -0.40850270217E+03  0.43263027425E+03  0.92617427171E+02 0.  0.
         23    2    1    2    0    0  0.12189854750E+03  0.38706873375E+02 -0.18316410591E+03  0.23971154455E+03  0.86919830708E+02 0.  0.
        -11    1    4    4    0    0  0.10229166568E+03  0.54149596906E+02 -0.10024261801E+03  0.15311546681E+03  0.00000000000E+00 0.  1.
         11    1    4    4    0    0  0.19606881826E+02 -0.15442723531E+02 -0.82921487898E+02  0.86596077742E+02  0.00000000000E+00 0. -1.
        -13    1    3    3    0    0 -0.45746371529E+02 -0.34926711944E+02 -0.31306301207E+03  0.31830968449E+03  0.00000000000E+00 0. -1.
         13    1    3    3    0    0 -0.60843129880E+02  0.16080309196E+02 -0.95439690096E+02  0.11432058976E+03  0.00000000000E+00 0.  1.
          2    1    1    2  501    0 -0.15309046094E+02 -0.19860470626E+02  0.15409444330E+03  0.15612143556E+03  0.00000000000E+00 0. -1.
<scales pt_clust_5="13000.00000" pt_clust_6="13000.00000" pt_clust_7="13000.00000" pt_clust_8="13000.00000" pt_clust_9="25.07599"></scales>
<clustering>
<clus scale="   25.076">  1  9  2 -1</clus>
<clus scale="   86.920">  5  6 -1 -1</clus>
<clus scale="   92.617">  7  8 -1 -1</clus>
<clus scale="  143.275">  1  5  2 -1</clus>
<clus scale="   25.076">  1  5  2 -1</clus>
</clustering>
</event>
<event>
 9    1  0.1321469E-005  0.1279401E+03  0.7546771E-02  0.1231918E+00
         21   -1    0    0  501  502  0.00000000000E+00  0.00000000000E+00  0.27621846310E+02  0.27621846310E+02  0.00000000000E+00 0. -1.
         -1   -1    0    0    0  501 -0.00000000000E+00 -0.00000000000E+00 -0.70599031776E+03  0.70599031776E+03  0.00000000000E+00 0.  1.
         23    2    1    2    0    0 -0.79985912054E+02 -0.36179858061E+02 -0.30937212707E+03  0.33281353213E+03  0.85714677283E+02 0.  0.
         23    2    1    2    0    0  0.72783549998E+02  0.59985132185E+02 -0.32256990746E+03  0.34813005364E+03  0.90815900681E+02 0.  0.
        -11    1    4    4    0    0  0.26447677486E+02  0.64975991540E+02 -0.26464287490E+03  0.27378314476E+03  0.00000000000E+00 0. -1.
         11    1    4    4    0    0  0.46335872512E+02 -0.49908593550E+01 -0.57927032556E+02  0.74346908875E+02  0.00000000000E+00 0.  1.
        -11    1    3    3    0    0 -0.65618926275E+02  0.11364881285E+02 -0.22756381548E+03  0.23710819076E+03  0.00000000000E+00 0.  1.
         11    1    3    3    0    0 -0.14366985778E+02 -0.47544739345E+02 -0.81808311595E+02  0.95705341365E+02  0.00000000000E+00 0. -1.
         -1    1    1    2    0  502  0.72023620553E+01 -0.23805274124E+02 -0.46426436916E+02  0.52668578299E+02  0.00000000000E+00 0.  1.
<scales pt_clust_5="13000.00000" pt_clust_6="13000.00000" pt_clust_7="13000.00000" pt_clust_8="13000.00000" pt_clust_9="24.87097"></scales>
<clustering>
<clus scale="   24.871">  1  9  2 -1</clus>
<clus scale="   85.715">  7  8 -1 -1</clus>
<clus scale="   90.816">  5  6 -1 -1</clus>
<clus scale="  124.371">  2  7  1 -1</clus>
<clus scale="   24.871">  1  5  2 -1</clus>
</clustering>
</event>
<event>
 9    1  0.1321469E-005  0.9317484E+02  0.7546771E-02  0.1295357E+00
          1   -1    0    0  502    0 -0.00000000000E+00  0.00000000000E+00  0.62657825264E+03  0.62657825264E+03  0.00000000000E+00 0. -1.
         21   -1    0    0  501  502  0.00000000000E+00 -0.00000000000E+00 -0.34655641971E+02  0.34655641971E+02  0.00000000000E+00 0. -1.
         23    2    1    2    0    0 -0.54070755841E+01  0.12761031795E+02  0.36162501258E+03  0.37322609842E+03  0.91285214684E+02 0.  0.
         23    2    1    2    0    0  0.34153305523E+02 -0.33876214965E+01  0.23766625852E+03  0.25688700390E+03  0.91256550864E+02 0.  0.
        -11    1    4    4    0    0  0.71190068424E+01 -0.34439094625E+02  0.33357140271E+02  0.48470922253E+02  0.00000000000E+00 0.  1.
         11    1    4    4    0    0  0.27034298681E+02  0.31051473129E+02  0.20430911825E+03  0.20841608164E+03  0.00000000000E+00 0. -1.
        -13    1    3    3    0    0  0.85484063210E+01 -0.38289695691E+02  0.14268959949E+03  0.14798478925E+03  0.00000000000E+00 0.  1.
         13    1    3    3    0    0 -0.13955481905E+02  0.51050727486E+02  0.21893541309E+03  0.22524130917E+03  0.00000000000E+00 0. -1.
          1    1    1    2  501    0 -0.28746229939E+02 -0.93734102985E+01 -0.73686604311E+01  0.31120792292E+02  0.00000000000E+00 0. -1.
<scales pt_clust_5="13000.00000" pt_clust_6="13000.00000" pt_clust_7="13000.00000" pt_clust_8="13000.00000" pt_clust_9="30.23585"></scales>
<clustering>
<clus scale="   30.236">  2  9  1 -1</clus>
<clus scale="   91.257">  5  6 -1 -1</clus>
<clus scale="   91.285">  7  8 -1 -1</clus>
<clus scale="   93.147">  2  5  1 -1</clus>
<clus scale="   30.236">  2  5  1 -1</clus>
</clustering>
</event>
<event>
 9    1  0.1321469E-005  0.3008071E+03  0.7546771E-02  0.1122209E+00
         21   -1    0    0  501  502  0.00000000000E+00  0.00000000000E+00  0.77519696514E+03  0.77519696514E+03  0.00000000000E+00 0. -1.
          3   -1    0    0  502    0 -0.00000000000E+00 -0.00000000000E+00 -0.27194321756E+03  0.27194321756E+03  0.00000000000E+00 0. -1.
         23    2    1    2    0    0 -0.50837267912E+02  0.36783910244E+02  0.20780197496E+03  0.23738390282E+03  0.96083154904E+02 0.  0.
         23    2    1    2    0    0  0.22593382851E+03 -0.24926134780E+03 -0.66358601672E+02  0.35510013074E+03  0.92278515731E+02 0.  0.
        -11    1    4    4    0    0  0.15476947404E+03 -0.10637596899E+03 -0.51781173281E+02  0.19480946276E+03  0.00000000000E+00 0. -1.
         11    1    4    4    0    0  0.71164354471E+02 -0.14288537881E+03 -0.14577428391E+02  0.16029066799E+03  0.00000000000E+00 0.  1.
        -13    1    3    3    0    0 -0.11630423678E+02  0.31390108001E+02  0.19179301626E+03  0.19469249272E+03  0.00000000000E+00 0. -1.
         13    1    3    3    0    0 -0.39206844234E+02  0.53938022437E+01  0.16008958705E+02  0.42691410099E+02  0.00000000000E+00 0.  1.
          3    1    1    2  501    0 -0.17509656060E+03  0.21247743755E+03  0.36181037430E+03  0.45465614914E+03  0.00000000000E+00 0. -1.
<scales pt_clust_5="13000.00000" pt_clust_6="13000.00000" pt_clust_7="13000.00000" pt_clust_8="13000.00000" pt_clust_9="286.30332"></scales>
<clustering>
<clus scale="   92.279">  5  6 -1 -1</clus>
<clus scale="   96.083">  7  8 -1 -1</clus>
<clus scale="  114.758">  2  7  1 -1</clus>
<clus scale="  286.303">  1  9  2 -1</clus>
<clus scale="  286.303">  1  5  2 -1</clus>
</clustering>
</event>
<event>
 9    1  0.1321469E-005  0.1046983E+03  0.7546771E-02  0.1270861E+00
         21   -1    0    0  501  502  0.00000000000E+00  0.00000000000E+00  0.99872732907E+02  0.99872732907E+02  0.00000000000E+00 0. -1.
          2   -1    0    0  502    0 -0.00000000000E+00 -0.00000000000E+00 -0.39328255012E+03  0.39328255012E+03  0.00000000000E+00 0. -1.
         23    2    1    2    0    0  0.35208673369E+02 -0.22993496650E+02 -0.14223033623E+03  0.17376439079E+03  0.90533106627E+02 0.  0.
         23    2    1    2    0    0 -0.71400465481E+02 -0.56205032761E+02 -0.18583779015E+03  0.22567082357E+03  0.90192040569E+02 0.  0.
        -11    1    3    3    0    0  0.56125278452E+02  0.43933935242E+01 -0.49958603379E+02  0.75267594883E+02  0.00000000000E+00 0.  1.
         11    1    3    3    0    0 -0.20916605083E+02 -0.27386890174E+02 -0.92271732847E+02  0.98496795908E+02  0.00000000000E+00 0. -1.
        -13    1    4    4    0    0 -0.39011883640E+01  0.21843653085E+02 -0.17655730498E+02  0.28356467872E+02  0.00000000000E+00 0.  1.
         13    1    4    4    0    0 -0.67499277117E+02 -0.78048685846E+02 -0.16818205965E+03  0.19731435569E+03  0.00000000000E+00 0. -1.
          2    1    1    2  501    0  0.36191792112E+02  0.79198529410E+02  0.34658309166E+02  0.93720068669E+02  0.00000000000E+00 0. -1.
<scales pt_clust_5="13000.00000" pt_clust_6="13000.00000" pt_clust_7="13000.00000" pt_clust_8="13000.00000" pt_clust_9="87.07613"></scales>
<clustering>
<clus scale="   87.076">  1  9  2 -1</clus>
<clus scale="   90.192">  7  8 -1 -1</clus>
<clus scale="   90.533">  5  6 -1 -1</clus>
<clus scale="  104.404">  1  7  2 -1</clus>
<clus scale="   87.076">  1  5  2 -1</clus>
</clustering>
</event>
<event>
 9    1  0.1321469E-005  0.1302507E+03  0.7546771E-02  0.1227090E+00
          1   -1    0    0  502    0 -0.00000000000E+00  0.00000000000E+00  0.90243054352E+03  0.90243054352E+03  0.00000000000E+00 0. -1.
         21   -1    0    0  501  502  0.00000000000E+00 -0.00000000000E+00 -0.41389240224E+02  0.41389240224E+02  0.00000000000E+00 0. -1.
         23    2    1    2    0    0  0.98756509239E+02 -0.76539925380E+00  0.69463838538E+03  0.70750696962E+03  0.91050489633E+02 0.  0.
         23    2    1    2    0    0 -0.77140634245E+02  0.69449049563E+00  0.17602231550E+03  0.21265306160E+03  0.91029167222E+02 0.  0.
        -13    1    4    4    0    0 -0.90510025315E+02  0.22277437122E+02  0.14733925630E+03  0.17434794330E+03  0.00000000000E+00 0.  1.
         13    1    4    4    0    0  0.13369391070E+02 -0.21582946626E+02  0.28683059205E+02  0.38305118301E+02  0.00000000000E+00 0. -1.
        -13    1    3    3    0    0 -0.12865455616E+02 -0.15493825349E+02  0.71650473434E+02  0.74426936760E+02  0.00000000000E+00 0.  1.
         13    1    3    3    0    0  0.11162196486E+03  0.14728426095E+02  0.62298791195E+03  0.63308003286E+03  0.00000000000E+00 0. -1.
          1    1    1    2  501    0 -0.21615874994E+02  0.70908758166E-01 -0.96193975821E+01  0.23659752528E+02  0.00000000000E+00 0. -1.
<scales pt_clust_5="13000.00000" pt_clust_6="13000.00000" pt_clust_7="13000.00000" pt_clust_8="13000.00000" pt_clust_9="21.61599"></scales>
<clustering>
<clus scale="   21.616">  2  9  1 -1</clus>
<clus scale="   91.029">  5  6 -1 -1</clus>
<clus scale="   91.050">  7  8 -1 -1</clus>
<clus scale="  130.236">  2  5  1 -1</clus>
<clus scale="   21.616">  2  5  1 -1</clus>
</clustering>
</event>
<event>
 9    1  0.1321469E-005  0.1038798E+03  0.7546771E-02  0.1274115E+00
          3   -1    0    0  502    0 -0.00000000000E+00  0.00000000000E+00  0.35788113432E+02  0.35788113432E+02  0.00000000000E+00 0. -1.
         21   -1    0    0  501  502  0.00000000000E+00 -0.00000000000E+00 -0.66351596858E+03  0.66351596858E+03  0.00000000000E+00 0.  1.
         23    2    1    2    0    0 -0.32693807628E+01  0.54180107090E+02 -0.71852800715E+02  0.12882455627E+03  0.92123658599E+02 0.  0.
         23    2    1    2    0    0  0.38467016108E+00 -0.19479157448E+02 -0.45172313845E+03  0.46066104339E+03  0.88177194014E+02 0.  0.
        -11    1    4    4    0    0 -0.35404775964E+02 -0.35377076895E+02 -0.21731470453E+03  0.22300384870E+03  0.00000000000E+00 0.  1.
         11    1    4    4    0    0  0.35789446125E+02  0.15897919446E+02 -0.23440843392E+03  0.23765719469E+03  0.00000000000E+00 0. -1.
        -11    1    3    3    0    0 -0.65083103505E+01 -0.25815948273E+02 -0.14278551279E+02  0.30210897297E+02  0.00000000000E+00 0.  1.
         11    1    3    3    0    0  0.32389295877E+01  0.79996055364E+02 -0.57574249436E+02  0.98613658977E+02  0.00000000000E+00 0. -1.
          3    1    1    2  501    0  0.28847106017E+01 -0.34700949642E+02 -0.10415191598E+03  0.10981848235E+03  0.00000000000E+00 0. -1.
<scales pt_clust_5="13000.00000" pt_clust_6="13000.00000" pt_clust_7="13000.00000" pt_clust_8="13000.00000" pt_clust_9="34.82065"></scales>
<clustering>
<clus scale="   34.821">  2  9  1 -1</clus>
<clus scale="   88.177">  5  6 -1 -1</clus>
<clus scale="   92.124">  7  8 -1 -1</clus>
<clus scale="  100.397">  2  5  1 -1</clus>
<clus scale="   34.821">  2  5  1 -1</clus>
</clustering>
</event>
<event>
 9    1  0.1321469E-005  0.2619531E+03  0.7546771E-02  0.1106109E+00
          2   -1    0    0  502    0 -0.00000000000E+00  0.00000000000E+00  0.60850258653E+03  0.60850258653E+03  0.00000000000E+00 0. -1.
         21   -1    0    0  501  502  0.00000000000E+00 -0.00000000000E+00 -0.36767743270E+03  0.36767743270E+03  0.00000000000E+00 0. -1.
         23    2    1    2    0    0  0.20953446069E+03 -0.10080830893E+03  0.30815255825E+03  0.39665740624E+03  0.91170682814E+02 0.  0.
         23    2    1    2    0    0 -0.28544018072E+03  0.17934291696E+03 -0.20455321178E+03  0.40413650979E+03  0.88568185374E+02 0.  0.
        -11    1    3    3    0    0  0.23641910826E+02 -0.22453340763E+02  0.56975005954E+01  0.33099153644E+02  0.00000000000E+00 0.  1.
         11    1    3    3    0    0  0.18589254987E+03 -0.78354968163E+02  0.30245505765E+03  0.36355825260E+03  0.00000000000E+00 0. -1.
        -11    1    4    4    0    0 -0.22420879052E+03  0.12207492629E+03 -0.19185134062E+03  0.31934120667E+03  0.00000000000E+00 0.  1.
         11    1    4    4    0    0 -0.61231390194E+02  0.57267990663E+02 -0.12701871159E+02  0.84795303117E+02  0.00000000000E+00 0. -1.
          2    1    1    2  501    0  0.75905720026E+02 -0.78534608029E+02  0.13722580736E+03  0.17538610320E+03  0.00000000000E+00 0. -1.
<scales pt_clust_5="13000.00000" pt_clust_6="13000.00000" pt_clust_7="13000.00000" pt_clust_8="13000.00000" pt_clust_9="109.22168"></scales>
<clustering>
<clus scale="   88.568">  7  8 -1 -1</clus>
<clus scale="   91.171">  5  6 -1 -1</clus>
<clus scale="  109.222">  2  9  1 -1</clus>
<clus scale="  261.059">  2  7  1 -1</clus>
<clus scale="  109.222">  2  5  1 -1</clus>
</clustering>
</event>
<event>
 9    1  0.1321469E-005  0.3761774E+03  0.7546771E-02  0.1080258E+00
         21   -1    0    0  501  502  0.00000000000E+00  0.00000000000E+00  0.14077781230E+04  0.14077781230E+04  0.00000000000E+00 0. -1.
          1   -1    0    0  502    0 -0.00000000000E+00 -0.00000000000E+00 -0.69273902049E+03  0.69273902049E+03  0.00000000000E+00 0. -1.
         23    2    1    2    0    0 -0.12059746182E+03  0.18550023507E+02  0.17091972763E+02  0.17473535825E+03  0.12390503913E+03 0.  0.
         23    2    1    2    0    0  0.11110761977E+03  0.34707522091E+03 -0.52708219750E+03  0.64731836024E+03  0.91647719253E+02 0.  0.
        -11    1    3    3    0    0 -0.33000001732E+01 -0.40659010856E+02  0.14571423211E+02  0.43317104466E+02  0.00000000000E+00 0. -1.
         11    1    3    3    0    0 -0.11729746164E+03  0.59209034364E+02  0.25205495528E+01  0.13141825379E+03  0.00000000000E+00 0.  1.
        -13    1    4    4    0    0  0.11755821439E+03  0.25545075995E+03 -0.42894842603E+03  0.51290523172E+03  0.00000000000E+00 0. -1.
         13    1    4    4    0    0 -0.64505946180E+01  0.91624460956E+02 -0.98133771472E+02  0.13441312852E+03  0.00000000000E+00 0.  1.
          1    1    1    2  501    0  0.94898420450E+01 -0.36562524441E+03  0.12250293273E+04  0.12784634250E+04  0.00000000000E+00 0. -1.
<scales pt_clust_5="13000.00000" pt_clust_6="13000.00000" pt_clust_7="13000.00000" pt_clust_8="13000.00000" pt_clust_9="364.84262"></scales>
<clustering>
<clus scale="   91.648">  7  8 -1 -1</clus>
<clus scale="  123.905">  5  6 -1 -1</clus>
<clus scale="  173.897">  2  5  1 -1</clus>
<clus scale="  364.843">  1  9  2 -1</clus>
<clus scale="  364.843">  1  5  2 -1</clus>
</clustering>
</event>
<event>
 9    1  0.1321469E-005  0.1500487E+03  0.7546771E-02  0.1200487E+00
         21   -1    0    0  501  502  0.00000000000E+00  0.00000000000E+00  0.22819391902E+03  0.22819391902E+03  0.00000000000E+00 0. -1.
          1   -1    0    0  502    0 -0.00000000000E+00 -0.00000000000E+00 -0.12069317914E+03  0.12069317914E+03  0.00000000000E+00 0. -1.
         23    2    1    2    0    0  0.42922634394E+01 -0.11831057515E+03  0.28020624735E+02  0.15204664650E+03  0.91198747711E+02 0.  0.
         23    2    1    2    0    0 -0.29341140214E+02  0.11720009789E+03  0.53605361489E+02  0.16081015519E+03  0.91594791205E+02 0.  0.
        -13    1    4    4    0    0 -0.11758537148E+02  0.12821559767E+03  0.55013395607E+02  0.14001420063E+03  0.00000000000E+00 0.  1.
         13    1    4    4    0    0 -0.17582603066E+02 -0.11015499777E+02 -0.14080341175E+01  0.20795954558E+02  0.00000000000E+00 0. -1.
        -13    1    3    3    0    0  0.28442129126E+02 -0.12050038449E+03  0.30950244794E+02  0.12762137370E+03  0.00000000000E+00 0. -1.
         13    1    3    3    0    0 -0.24149865687E+02  0.21898093460E+01 -0.29296200589E+01  0.24425272800E+02  0.00000000000E+00 0.  1.
          1    1    1    2  501    0  0.25048876775E+02  0.11104772516E+01  0.25874753655E+02  0.36030296475E+02  0.00000000000E+00 0. -1.
<scales pt_clust_5="13000.00000" pt_clust_6="13000.00000" pt_clust_7="13000.00000" pt_clust_8="13000.00000" pt_clust_9="25.07348"></scales>
<clustering>
<clus scale="   25.073">  1  9  2 -1</clus>
<clus scale="   91.199">  7  8 -1 -1</clus>
<clus scale="   91.595">  5  6 -1 -1</clus>
<clus scale="  149.807">  2  7  1 -1</clus>
<clus scale="   25.073">  1  5  2 -1</clus>
</clustering>
</event>
<event>
 9    1  0.1321469E-005  0.9522179E+02  0.7546771E-02  0.1291932E+00
         -1   -1    0    0    0  501 -0.00000000000E+00  0.00000000000E+00  0.11513405101E+03  0.11513405101E+03  0.00000000000E+00 0.  1.
         21   -1    0    0  501  502  0.00000000000E+00 -0.00000000000E+00 -0.11537769431E+03  0.11537769431E+03  0.00000000000E+00 0. -1.
         23    2    1    2    0    0 -0.17395020846E+02  0.20806163439E+02  0.27252172363E+02  0.98373714784E+02  0.90549564741E+02 0.  0.
         23    2    1    2    0    0  0.36211630968E+02 -0.68787038292E+01  0.53582137130E+00  0.95616644712E+02  0.88225035323E+02 0.  0.
        -13    1    3    3    0    0 -0.23408887864E+02 -0.15132556074E+02  0.48684575092E+02  0.56099537755E+02  0.00000000000E+00 0.  1.
         13    1    3    3    0    0  0.60138670179E+01  0.35938719513E+02 -0.21432402730E+02  0.42274177030E+02  0.00000000000E+00 0. -1.
        -13    1    4    4    0    0  0.18717421727E+02 -0.47408996263E+02  0.51589418132E+01  0.51230552246E+02  0.00000000000E+00 0. -1.
         13    1    4    4    0    0  0.17494209241E+02  0.40530292434E+02 -0.46231204419E+01  0.44386092466E+02  0.00000000000E+00 0.  1.
         -1    1    1    2    0  502 -0.18816610122E+02 -0.13927459610E+02 -0.28031637035E+02  0.36521385824E+02  0.00000000000E+00 0.  1.
<scales pt_clust_5="13000.00000" pt_clust_6="13000.00000" pt_clust_7="13000.00000" pt_clust_8="13000.00000" pt_clust_9="23.41023"></scales>
<clustering>
<clus scale="   23.410">  2  9  1 -1</clus>
<clus scale="   88.225">  7  8 -1 -1</clus>
<clus scale="   90.550">  5  6 -1 -1</clus>
<clus scale="   93.014">  2  7  1 -1</clus>
<clus scale="   23.410">  2  5  1 -1</clus>
</clustering>
</event>
<event>
 9    1  0.1321469E-005  0.1552154E+03  0.7546771E-02  0.1194434E+00
         21   -1    0    0  501  502  0.00000000000E+00  0.00000000000E+00  0.10828452510E+03  0.10828452510E+03  0.00000000000E+00 0.  1.
          4   -1    0    0  502    0 -0.00000000000E+00 -0.00000000000E+00 -0.45703366774E+03  0.45703366774E+03  0.00000000000E+00 0. -1.
         23    2    1    2    0    0 -0.92143220976E+02 -0.49578585683E+02 -0.16361866897E+03  0.21467579741E+03  0.91467042319E+02 0.  0.
         23    2    1    2    0    0  0.17756567436E+03  0.41791071840E+01 -0.14260974345E+03  0.24497252892E+03  0.90149694117E+02 0.  0.
        -11    1    4    4    0    0  0.68610685172E+02  0.20937248651E+02 -0.10758282116E+03  0.12930528957E+03  0.00000000000E+00 0. -1.
         11    1    4    4    0    0  0.10895498919E+03 -0.16758141467E+02 -0.35026922293E+02  0.11566723935E+03  0.00000000000E+00 0.  1.
        -11    1    3    3    0    0 -0.18215220819E+02  0.26407917718E+02 -0.28346655729E+02  0.42810107203E+02  0.00000000000E+00 0.  1.
         11    1    3    3    0    0 -0.73928000157E+02 -0.75986503401E+02 -0.13527201324E+03  0.17186569021E+03  0.00000000000E+00 0. -1.
          4    1    1    2  501    0 -0.85422453382E+02  0.45399478499E+02 -0.42520730221E+02  0.10566986651E+03  0.00000000000E+00 0. -1.
<scales pt_clust_5="13000.00000" pt_clust_6="13000.00000" pt_clust_7="13000.00000" pt_clust_8="13000.00000" pt_clust_9="96.73732"></scales>
<clustering>
<clus scale="   90.150">  5  6 -1 -1</clus>
<clus scale="   91.467">  7  8 -1 -1</clus>
<clus scale="   96.737">  1  9  2 -1</clus>
<clus scale="  154.443">  1  5  2 -1</clus>
<clus scale="   96.737">  1  5  2 -1</clus>
</clustering>
</event>
<event>
 9    1  0.1321469E-005  0.1229485E+03  0.7546771E-02  0.1238409E+00
          2   -1    0    0  502    0 -0.00000000000E+00  0.00000000000E+00  0.94144034850E+03  0.94144034850E+03  0.00000000000E+00 0.  1.
         21   -1    0    0  501  502  0.00000000000E+00 -0.00000000000E+00 -0.29591517718E+02  0.29591517718E+02  0.00000000000E+00 0. -1.
         23    2    1    2    0    0  0.73027289554E+02  0.29889854294E+02  0.50970535044E+03  0.52395967706E+03  0.92237793311E+02 0.  0.
         23    2    1    2    0    0 -0.85666838344E+02 -0.10069078173E+02  0.40427375479E+03  0.42346796434E+03  0.91911122717E+02 0.  0.
        -11    1    3    3    0    0  0.42338288541E+02 -0.28875130695E+02  0.28913725695E+03  0.29364375901E+03  0.00000000000E+00 0. -1.
         11    1    3    3    0    0  0.30689001013E+02  0.58764984990E+02  0.22056809349E+03  0.23031591805E+03  0.00000000000E+00 0.  1.
        -13    1    4    4    0    0 -0.40815362823E+02  0.41033817229E+02  0.19711092489E+03  0.20543219005E+03  0.00000000000E+00 0.  1.
         13    1    4    4    0    0 -0.44851475521E+02 -0.51102895402E+02  0.20716282991E+03  0.21803577429E+03  0.00000000000E+00 0. -1.
          2    1    1    2  501    0  0.12639548790E+02 -0.19820776122E+02 -0.21302744538E+01  0.23604224811E+02  0.00000000000E+00 0.  1.
<scales pt_clust_5="13000.00000" pt_clust_6="13000.00000" pt_clust_7="13000.00000" pt_clust_8="13000.00000" pt_clust_9="23.50790"></scales>
<clustering>
<clus scale="   23.508">  2  9  1 -1</clus>
<clus scale="   91.911">  7  8 -1 -1</clus>
<clus scale="   92.238">  5  6 -1 -1</clus>
<clus scale="  122.704">  2  7  1 -1</clus>
<clus scale="   23.508">  2  5  1 -1</clus>
</clustering>
</event>
<event>
 9    1  0.1321469E-005  0.3209112E+03  0.7546771E-02  0.1076094E+00
          2   -1    0    0  502    0 -0.00000000000E+00  0.00000000000E+00  0.93768744546E+03  0.93768744546E+03  0.00000000000E+00 0. -1.
         21   -1    0    0  501  502  0.00000000000E+00 -0.00000000000E+00 -0.13783650914E+03  0.13783650914E+03  0.00000000000E+00 0. -1.
         23    2    1    2    0    0 -0.22963926481E+03  0.17133542920E+03  0.52262024582E+03  0.60710711255E+03  0.11557293599E+03 0.  0.
         23    2    1    2    0    0  0.25716205015E+03 -0.19826972878E+03  0.25992073335E+03  0.42619605542E+03  0.92957434575E+02 0.  0.
        -11    1    4    4    0    0  0.10808329314E+03 -0.14184881466E+03  0.13435204747E+03  0.22327910143E+03  0.00000000000E+00 0.  1.
         11    1    4    4    0    0  0.14907875701E+03 -0.56420914115E+02  0.12556868588E+03  0.20291695399E+03  0.00000000000E+00 0. -1.
        -13    1    3    3    0    0 -0.10097835400E+03  0.87245860133E+01  0.16057842940E+03  0.18988991118E+03  0.00000000000E+00 0. -1.
         13    1    3    3    0    0 -0.12866091081E+03  0.16261084319E+03  0.36204181641E+03  0.41721720138E+03  0.00000000000E+00 0.  1.
          2    1    1    2  501    0 -0.27522785340E+02  0.26934299580E+02  0.17309957148E+02  0.42220786625E+02  0.00000000000E+00 0. -1.
<scales pt_clust_5="13000.00000" pt_clust_6="13000.00000" pt_clust_7="13000.00000" pt_clust_8="13000.00000" pt_clust_9="38.50922"></scales>
<clustering>
<clus scale="   38.509">  2  9  1 -1</clus>
<clus scale="   92.957">  5  6 -1 -1</clus>
<clus scale="  115.573">  7  8 -1 -1</clus>
<clus scale="  313.477">  2  5  1 -1</clus>
<clus scale="   38.509">  2  5  1 -1</clus>
</clustering>
</event>
<event>
 9    1  0.1321469E-005  0.1912338E+03  0.7546771E-02  0.1181646E+00
         21   -1    0    0  501  502  0.00000000000E+00  0.00000000000E+00  0.11612451463E+03  0.11612451463E+03  0.00000000000E+00 0. -1.
         -1   -1    0    0    0  501 -0.00000000000E+00 -0.00000000000E+00 -0.60772829109E+03  0.60772829109E+03  0.00000000000E+00 0.  1.
         23    2    1    2    0    0  0.11833826358E+02 -0.57608416048E+02 -0.23762692545E+03  0.26170508219E+03  0.92543099662E+02 0.  0.
         23    2    1    2    0    0  0.11466221468E+03  0.14031429836E+03 -0.50441112649E+02  0.20863577479E+03  0.90272115722E+02 0.  0.
        -13    1    3    3    0    0 -0.24148023535E+02 -0.67954998190E+02 -0.15128805447E+03  0.16759798401E+03  0.00000000000E+00 0. -1.
         13    1    3    3    0    0  0.35981849893E+02  0.10346582142E+02 -0.86338870987E+02  0.94107098176E+02  0.00000000000E+00 0.  1.
        -13    1    4    4    0    0  0.12765708749E+03  0.10673393902E+03 -0.39856752375E+02  0.17110530803E+03  0.00000000000E+00 0. -1.
         13    1    4    4    0    0 -0.12994872814E+02  0.33580359335E+02 -0.10584360274E+02  0.37530466756E+02  0.00000000000E+00 0.  1.
         -1    1    1    2    0  502 -0.12649604104E+03 -0.82705882310E+02 -0.20353573836E+03  0.25351194875E+03  0.00000000000E+00 0.  1.
<scales pt_clust_5="13000.00000" pt_clust_6="13000.00000" pt_clust_7="13000.00000" pt_clust_8="13000.00000" pt_clust_9="168.58632"></scales>
<clustering>
<clus scale="   90.272">  7  8 -1 -1</clus>
<clus scale="   92.543">  5  6 -1 -1</clus>
<clus scale="  109.649">  2  5  1 -1</clus>
<clus scale="  168.586">  1  9  2 -1</clus>
<clus scale="  168.586">  1  5  2 -1</clus>
</clustering>
</event>
<event>
 9    1  0.1321469E-005  0.1135879E+03  0.7546771E-02  0.1254872E+00
         -1   -1    0    0    0  501 -0.00000000000E+00  0.00000000000E+00  0.14173123357E+03  0.14173123357E+03  0.00000000000E+00 0.  1.
         21   -1    0    0  501  502  0.00000000000E+00 -0.00000000000E+00 -0.21760326184E+03  0.21760326184E+03  0.00000000000E+00 0. -1.
         23    2    1    2    0    0 -0.60573941945E+02 -0.41676419143E+02  0.29776667991E+02  0.12082441318E+03  0.91135956178E+02 0.  0.
         23    2    1    2    0    0  0.56805450802E+02  0.12462507419E+02  0.17969793010E+02  0.11143063837E+03  0.93336490050E+02 0.  0.
        -11    1    4    4    0    0 -0.61637802400E+01 -0.29084130366E+02 -0.93970201532E+01  0.31179846275E+02  0.00000000000E+00 0. -1.
         11    1    4    4    0    0  0.62969231042E+02  0.41546637785E+02  0.27366813164E+02  0.80250792095E+02  0.00000000000E+00 0.  1.
        -13    1    3    3    0    0 -0.53016777458E+02  0.18467984599E+02  0.18912137301E+02  0.59241151951E+02  0.00000000000E+00 0.  1.
         13    1    3    3    0    0 -0.75571644877E+01 -0.60144403742E+02  0.10864530690E+02  0.61583261230E+02  0.00000000000E+00 0. -1.
         -1    1    1    2    0  502  0.37684911438E+01  0.29213911724E+02 -0.12361848927E+03  0.12707944386E+03  0.00000000000E+00 0.  1.
<scales pt_clust_5="13000.00000" pt_clust_6="13000.00000" pt_clust_7="13000.00000" pt_clust_8="13000.00000" pt_clust_9="29.45597"></scales>
<clustering>
<clus scale="   29.456">  2  9  1 -1</clus>
<clus scale="   91.136">  7  8 -1 -1</clus>
<clus scale="   93.336">  5  6 -1 -1</clus>
<clus scale="  111.787">  1  7  2 -1</clus>
<clus scale="   29.456">  2  5  1 -1</clus>
</clustering>
</event>
<event>
 9    1  0.1321469E-005  0.9751761E+02  0.7546771E-02  0.1285853E+00
         21   -1    0    0  501  502  0.00000000000E+00  0.00000000000E+00  0.56912003370E+02  0.56912003370E+02  0.00000000000E+00 0. -1.
          2   -1    0    0  502    0 -0.00000000000E+00 -0.00000000000E+00 -0.43840993352E+03  0.43840993352E+03  0.00000000000E+00 0.  1.
         23    2    1    2    0    0  0.66589931702E+01  0.12362770854E+02 -0.19112203223E+03  0.21236805823E+03  0.91517105826E+02 0.  0.
         23    2    1    2    0    0 -0.22299873952E+02 -0.53531698826E+02 -0.20893243873E+03  0.23516409954E+03  0.91030009339E+02 0.  0.
        -13    1    4    4    0    0  0.26337452884E+02 -0.12754093980E+02 -0.13308364667E+03  0.13626292727E+03  0.00000000000E+00 0.  1.
         13    1    4    4    0    0 -0.48637326835E+02 -0.40777604846E+02 -0.75848792062E+02  0.98901172268E+02  0.00000000000E+00 0. -1.
        -13    1    3    3    0    0 -0.13451731237E+02 -0.23992288862E+02 -0.14835229774E+02  0.31251608608E+02  0.00000000000E+00 0.  1.
         13    1    3    3    0    0  0.20110724407E+02  0.36355059717E+02 -0.17628680246E+03  0.18111644962E+03  0.00000000000E+00 0. -1.
          2    1    1    2  501    0  0.15640880781E+02  0.41168927972E+02  0.18556540809E+02  0.47789779125E+02  0.00000000000E+00 0.  1.
<scales pt_clust_5="13000.00000" pt_clust_6="13000.00000" pt_clust_7="13000.00000" pt_clust_8="13000.00000" pt_clust_9="44.03996"></scales>
<clustering>
<clus scale="   44.040">  1  9  2 -1</clus>
<clus scale="   91.030">  5  6 -1 -1</clus>
<clus scale="   91.517">  7  8 -1 -1</clus>
<clus scale="   97.061">  1  5  2 -1</clus>
<clus scale="   44.040">  1  5  2 -1</clus>
</clustering>
</event>
<event>
 9    1  0.1321469E-005  0.1314094E+03  0.7546771E-02  0.1225940E+00
          2   -1    0    0  502    0 -0.00000000000E+00  0.00000000000E+00  0.18775427841E+02  0.18775427841E+02  0.00000000000E+00 0. -1.
         21   -1    0    0  501  502  0.00000000000E+00 -0.00000000000E+00 -0.14914734402E+04  0.14914734402E+04  0.00000000000E+00 0. -1.
         23    2    1    2    0    0 -0.17548503087E+02  0.90978079645E+02 -0.53579892182E+03  0.55105140565E+03  0.89399139327E+02 0.  0.
         23    2    1    2    0    0 -0.46348474190E+02 -0.96838882177E+02 -0.66873571572E+03  0.68346431548E+03  0.91597286461E+02 0.  0.
        -11    1    4    4    0    0  0.26771658199E+02 -0.31975921480E+02 -0.25138086418E+03  0.25481664018E+03  0.00000000000E+00 0.  1.
         11    1    4    4    0    0 -0.73120132389E+02 -0.64862960698E+02 -0.41735485155E+03  0.42864767530E+03  0.00000000000E+00 0. -1.
        -13    1    3    3    0    0 -0.53608619033E+02  0.60233164929E+02 -0.30837435829E+03  0.31874231448E+03  0.00000000000E+00 0. -1.
         13    1    3    3    0    0  0.36060115946E+02  0.30744914716E+02 -0.22742456353E+03  0.23230909117E+03  0.00000000000E+00 0.  1.
          2    1    1    2  501    0  0.63896977277E+02  0.58608025322E+01 -0.26816337481E+03  0.27573314691E+03  0.00000000000E+00 0. -1.
<scales pt_clust_5="13000.00000" pt_clust_6="13000.00000" pt_clust_7="13000.00000" pt_clust_8="13000.00000" pt_clust_9="64.16523"></scales>
<clustering>
<clus scale="   64.165">  2  9  1 -1</clus>
<clus scale="   89.399">  7  8 -1 -1</clus>
<clus scale="   91.597">  5  6 -1 -1</clus>
<clus scale="  129.887">  1  7  2 -1</clus>
<clus scale="   64.165">  2  5  1 -1</clus>
</clustering>
</event>
<event>
 9    1  0.1321469E-005  0.1850511E+03  0.7546771E-02  0.1178434E+00
          2   -1    0    0  502    0 -0.00000000000E+00  0.00000000000E+00  0.37166686035E+03  0.37166686035E+03  0.00000000000E+00 0. -1.
         21   -1    0    0  501  502  0.00000000000E+00 -0.00000000000E+00 -0.20509683560E+03  0.20509683560E+03  0.00000000000E+00 0. -1.
         23    2    1    2    0    0 -0.52690852723E+02  0.76802950482E+02  0.16322175524E+03  0.20871050925E+03  0.90794912442E+02 0.  0.
         23    2    1    2    0    0  0.10820911585E+03  0.92877312260E+02  0.61590093934E+02  0.18026133592E+03  0.91462569793E+02 0.  0.
        -11    1    3    3    0    0 -0.38378407072E+02  0.19349122526E+02  0.95524338906E+01  0.44028850373E+02  0.00000000000E+00 0.  1.
         11    1    3    3    0    0 -0.14312445652E+02  0.57453827956E+02  0.15366932135E+03  0.16468165888E+03  0.00000000000E+00 0. -1.
        -13    1    4    4    0    0  0.64329103093E+02  0.15261607410E+01  0.58810787111E+01  0.64615398770E+02  0.00000000000E+00 0.  1.
         13    1    4    4    0    0  0.43880012756E+02  0.91351151519E+02  0.55709015223E+02  0.11564593715E+03  0.00000000000E+00 0. -1.
          2    1    1    2  501    0 -0.55518263126E+02 -0.16968026274E+03 -0.58241824419E+02  0.18779185077E+03  0.00000000000E+00 0. -1.
<scales pt_clust_5="13000.00000" pt_clust_6="13000.00000" pt_clust_7="13000.00000" pt_clust_8="13000.00000" pt_clust_9="160.86794"></scales>
<clustering>
<clus scale="   90.795">  5  6 -1 -1</clus>
<clus scale="   91.463">  7  8 -1 -1</clus>
<clus scale="  130.072">  1  5  2 -1</clus>
<clus scale="  160.868">  2  9  1 -1</clus>
<clus scale="  160.868">  2  5  1 -1</clus>
</clustering>
</event>
<event>
 9    1  0.1321469E-005  0.9229778E+02  0.7546771E-02  0.1298806E+00
         21   -1    0    0  501  502  0.00000000000E+00  0.00000000000E+00  0.45343031484E+03  0.45343031484E+03  0.00000000000E+00 0.  1.
         -2   -1    0    0    0  501 -0.00000000000E+00 -0.00000000000E+00 -0.91799913042E+02  0.91799913042E+02  0.00000000000E+00 0.  1.
         23    2    1    2    0    0 -0.17139141956E+02 -0.14443249158E+02 -0.43138762018E+02  0.10316214597E+03  0.90989658416E+02 0.  0.
         23    2    1    2    0    0 -0.18551382774E+02  0.21778072511E+01  0.99607623493E+02  0.13458178903E+03  0.88553275677E+02 0.  0.
        -11    1    4    4    0    0 -0.49150924096E+02  0.27082281302E+01  0.89865597637E+02  0.10246449862E+03  0.00000000000E+00 0.  1.
         11    1    4    4    0    0  0.30599541321E+02 -0.53042087905E+00  0.97420258559E+01  0.32117290408E+02  0.00000000000E+00 0. -1.
        -13    1    3    3    0    0  0.32736135004E+02 -0.18410020665E+02 -0.37055827965E+02  0.52760949405E+02  0.00000000000E+00 0. -1.
         13    1    3    3    0    0 -0.49875276961E+02  0.39667715071E+01 -0.60829340525E+01  0.50401196561E+02  0.00000000000E+00 0.  1.
         -2    1    1    2    0  502  0.35690524731E+02  0.12265441907E+02  0.30516154032E+03  0.30748629289E+03  0.00000000000E+00 0.  1.
<scales pt_clust_5="13000.00000" pt_clust_6="13000.00000" pt_clust_7="13000.00000" pt_clust_8="13000.00000" pt_clust_9="37.73930"></scales>
<clustering>
<clus scale="   37.739">  1  9  2 -1</clus>
<clus scale="   88.553">  5  6 -1 -1</clus>
<clus scale="   89.897">  1  5  2 -1</clus>
<clus scale="   90.990">  7  8 -1 -1</clus>
<clus scale="   37.739">  1  5  2 -1</clus>
</clustering>
</event>
<event>
 9    1  0.1321469E-005  0.2184992E+03  0.7546771E-02  0.1135399E+00
         21   -1    0    0  501  502  0.00000000000E+00  0.00000000000E+00  0.66311865429E+03  0.66311865429E+03  0.00000000000E+00 0.  1.
         -1   -1    0    0    0  501 -0.00000000000E+00 -0.00000000000E+00 -0.10715018088E+03  0.10715018088E+03  0.00000000000E+00 0.  1.
         23    2    1    2    0    0  0.14059560439E+03 -0.13176703288E+03  0.15140418654E+03  0.26161589677E+03  0.91596805706E+02 0.  0.
         23    2    1    2    0    0 -0.18461939327E+03  0.90505781927E+02  0.22687631356E+03  0.32100006559E+03  0.96397943533E+02 0.  0.
        -11    1    4    4    0    0 -0.47388269668E+02  0.74103464128E+02  0.10250135573E+03  0.13506849901E+03  0.00000000000E+00 0. -1.
         11    1    4    4    0    0 -0.13723112361E+03  0.16402317799E+02  0.12437495784E+03  0.18593156658E+03  0.00000000000E+00 0.  1.
        -13    1    3    3    0    0  0.80944219973E+02 -0.13064041834E+03  0.10811413220E+03  0.18790303678E+03  0.00000000000E+00 0.  1.
         13    1    3    3    0    0  0.59651384421E+02 -0.11266145400E+01  0.43290054338E+02  0.73712859993E+02  0.00000000000E+00 0. -1.
         -1    1    1    2    0  502  0.44023788879E+02  0.41261250950E+02  0.17768797331E+03  0.18765287281E+03  0.00000000000E+00 0.  1.
<scales pt_clust_5="13000.00000" pt_clust_6="13000.00000" pt_clust_7="13000.00000" pt_clust_8="13000.00000" pt_clust_9="60.33726"></scales>
<clustering>
<clus scale="   60.337">  1  9  2 -1</clus>
<clus scale="   91.597">  7  8 -1 -1</clus>
<clus scale="   96.398">  5  6 -1 -1</clus>
<clus scale="  216.424">  2  7  1 -1</clus>
<clus scale="   60.337">  1  5  2 -1</clus>
</clustering>
</event>
<event>
 9    1  0.1321469E-005  0.1608264E+03  0.7546771E-02  0.1188946E+00
          2   -1    0    0  502    0 -0.00000000000E+00  0.00000000000E+00  0.87420311518E+03  0.87420311518E+03  0.00000000000E+00 0. -1.
         21   -1    0    0  501  502  0.00000000000E+00 -0.00000000000E+00 -0.16080862359E+03  0.16080862359E+03  0.00000000000E+00 0. -1.
         23    2    1    2    0    0 -0.11131612216E+03  0.73990286355E+02  0.62039620046E+03  0.64104006594E+03  0.90416143867E+02 0.  0.
         23    2    1    2    0    0  0.68737089482E+02 -0.98682703694E+02  0.21356162959E+03  0.26374798804E+03  0.97423652580E+02 0.  0.
        -11    1    3    3    0    0 -0.11257827298E+03  0.38377574934E+02  0.54241709699E+03  0.55530443265E+03  0.00000000000E+00 0. -1.
         11    1    3    3    0    0  0.12621508228E+01  0.35612711421E+02  0.77979103468E+02  0.85735633299E+02  0.00000000000E+00 0.  1.
        -11    1    4    4    0    0  0.58221991730E+02 -0.11723318888E+03  0.16427855717E+03  0.21004967328E+03  0.00000000000E+00 0.  1.
         11    1    4    4    0    0  0.10515097752E+02  0.18550485188E+02  0.49283072414E+02  0.53698314760E+02  0.00000000000E+00 0. -1.
          2    1    1    2  501    0  0.42579032678E+02  0.24692417339E+02 -0.12056333847E+03  0.13022368479E+03  0.00000000000E+00 0. -1.
<scales pt_clust_5="13000.00000" pt_clust_6="13000.00000" pt_clust_7="13000.00000" pt_clust_8="13000.00000" pt_clust_9="49.22082"></scales>
<clustering>
<clus scale="   49.221">  2  9  1 -1</clus>
<clus scale="   90.416">  5  6 -1 -1</clus>
<clus scale="   97.424">  7  8 -1 -1</clus>
<clus scale="  156.681">  1  5  2 -1</clus>
<clus scale="   49.221">  2  5  1 -1</clus>
</clustering>
</event>
<event>
 9    1  0.1321469E-005  0.1434947E+03  0.7546771E-02  0.1209884E+00
         21   -1    0    0  501  502  0.00000000000E+00  0.00000000000E+00  0.22199583719E+03  0.22199583719E+03  0.00000000000E+00 0. -1.
         -3   -1    0    0    0  501 -0.00000000000E+00 -0.00000000000E+00 -0.14866767311E+03  0.14866767311E+03  0.00000000000E+00 0.  1.
         23    2    1    2    0    0  0.10372629010E+03 -0.38090992959E+02 -0.39768963283E+02  0.14833548546E+03  0.90618865608E+02 0.  0.
         23    2    1    2    0    0 -0.10106885917E+03  0.11680120420E+02  0.41462573471E+02  0.14593361773E+03  0.96052778611E+02 0.  0.
        -13    1    4    4    0    0 -0.10176674607E+02 -0.27751227258E+02 -0.13652113267E+02  0.32558800915E+02  0.00000000000E+00 0.  1.
         13    1    4    4    0    0 -0.90892184561E+02  0.39431347678E+02  0.55114686739E+02  0.11337481682E+03  0.00000000000E+00 0. -1.
        -13    1    3    3    0    0  0.22608384530E+02 -0.38357880504E+02 -0.49565925920E+02  0.66627674881E+02  0.00000000000E+00 0.  1.
         13    1    3    3    0    0  0.81117905568E+02  0.26688754477E+00  0.97969626366E+01  0.81707810579E+02  0.00000000000E+00 0. -1.
         -3    1    1    2    0  502 -0.26574309299E+01  0.26410872539E+02  0.71634553885E+02  0.76394407110E+02  0.00000000000E+00 0.  1.
<scales pt_clust_5="13000.00000" pt_clust_6="13000.00000" pt_clust_7="13000.00000" pt_clust_8="13000.00000" pt_clust_9="26.54423"></scales>
<clustering>
<clus scale="   26.544">  1  9  2 -1</clus>
<clus scale="   90.619">  7  8 -1 -1</clus>
<clus scale="   96.053">  5  6 -1 -1</clus>
<clus scale="  139.916">  2  7  1 -1</clus>
<clus scale="   26.544">  1  5  2 -1</clus>
</clustering>
</event>
<event>
 9    1  0.1321469E-005  0.1361004E+03  0.7546771E-02  0.1239847E+00
          2   -1    0    0  502    0 -0.00000000000E+00  0.00000000000E+00  0.39048733416E+03  0.39048733416E+03  0.00000000000E+00 0. -1.
         21   -1    0    0  501  502  0.00000000000E+00 -0.00000000000E+00 -0.38661130797E+03  0.38661130797E+03  0.00000000000E+00 0. -1.
         23    2    1    2    0    0  0.26964558528E+01  0.58799656555E+01  0.98506858079E+02  0.13198952051E+03  0.87611572091E+02 0.  0.
         23    2    1    2    0    0 -0.54179510944E+02 -0.94399246953E+02  0.24924728191E+03  0.28630788797E+03  0.89450332259E+02 0.  0.
        -11    1    4    4    0    0 -0.30257906529E+02 -0.99521000088E+02  0.14033691994E+03  0.17468377561E+03  0.00000000000E+00 0. -1.
         11    1    4    4    0    0 -0.23921604415E+02  0.51217531351E+01  0.10891036198E+03  0.11162411235E+03  0.00000000000E+00 0.  1.
        -11    1    3    3    0    0  0.23932445422E+02  0.35198161435E+02  0.81602392379E+02  0.92035987278E+02  0.00000000000E+00 0.  1.
         11    1    3    3    0    0 -0.21235989569E+02 -0.29318195779E+02  0.16904465700E+02  0.39953533227E+02  0.00000000000E+00 0. -1.
          2    1    1    2  501    0  0.51483055091E+02  0.88519281297E+02 -0.34387811380E+03  0.35880123366E+03  0.00000000000E+00 0. -1.
<scales pt_clust_5="13000.00000" pt_clust_6="13000.00000" pt_clust_7="13000.00000" pt_clust_8="13000.00000" pt_clust_9="102.57654"></scales>
<clustering>
<clus scale="   87.612">  7  8 -1 -1</clus>
<clus scale="   87.850">  1  7  2 -1</clus>
<clus scale="   89.450">  5  6 -1 -1</clus>
<clus scale="  102.577">  2  9  1 -1</clus>
<clus scale="  102.577">  2  5  1 -1</clus>
</clustering>
</event>
<event>
 9    1  0.1321469E-005  0.1044270E+03  0.7546771E-02  0.1271264E+00
         21   -1    0    0  501  502  0.00000000000E+00  0.00000000000E+00  0.88292593986E+02  0.88292593986E+02  0.00000000000E+00 0.  1.
          4   -1    0    0  502    0 -0.00000000000E+00 -0.00000000000E+00 -0.28632899334E+03  0.28632899334E+03  0.00000000000E+00 0. -1.
         23    2    1    2    0    0 -0.32765695791E+01  0.50713809094E+02 -0.20569522538E+03  0.22969434588E+03  0.88692392274E+02 0.  0.
         23    2    1    2    0    0 -0.32745146692E+01 -0.75511820418E+02 -0.43861539448E+01  0.11659105234E+03  0.88664974318E+02 0.  0.
        -11    1    3    3    0    0 -0.83878920632E+01  0.75395772242E+02 -0.13829423348E+03  0.15773450548E+03  0.00000000000E+00 0. -1.
         11    1    3    3    0    0  0.51113224841E+01 -0.24681963148E+02 -0.67400991895E+02  0.71959840403E+02  0.00000000000E+00 0.  1.
        -13    1    4    4    0    0  0.33074191942E+02 -0.38038437090E+01 -0.12991819176E+02  0.35737358116E+02  0.00000000000E+00 0.  1.
         13    1    4    4    0    0 -0.36348706612E+02 -0.71707976709E+02  0.86056652314E+01  0.80853694227E+02  0.00000000000E+00 0. -1.
          4    1    1    2  501    0  0.65510842483E+01  0.24798011324E+02  0.12044979964E+02  0.28336189102E+02  0.00000000000E+00 0. -1.
<scales pt_clust_5="13000.00000" pt_clust_6="13000.00000" pt_clust_7="13000.00000" pt_clust_8="13000.00000" pt_clust_9="25.64874"></scales>
<clustering>
<clus scale="   25.649">  1  9  2 -1</clus>
<clus scale="   88.665">  7  8 -1 -1</clus>
<clus scale="   88.692">  5  6 -1 -1</clus>
<clus scale="  104.404">  1  7  2 -1</clus>
<clus scale="   25.649">  1  5  2 -1</clus>
</clustering>
</event>
<event>
 9    1  0.1321469E-005  0.9784507E+02  0.7546771E-02  0.1284981E+00
         21   -1    0    0  501  502  0.00000000000E+00  0.00000000000E+00  0.10092514467E+03  0.10092514467E+03  0.00000000000E+00 0. -1.
          2   -1    0    0  502    0 -0.00000000000E+00 -0.00000000000E+00 -0.32031561681E+03  0.32031561681E+03  0.00000000000E+00 0. -1.
         23    2    1    2    0    0  0.41992535145E+02  0.27244195153E+02 -0.17057228920E+03  0.19964661948E+03  0.90874901099E+02 0.  0.
         23    2    1    2    0    0 -0.22734066071E+02  0.17737633956E+01 -0.11401426824E+03  0.14767891970E+03  0.91048481403E+02 0.  0.
        -13    1    3    3    0    0 -0.26567900998E+02  0.13356288994E+02 -0.28030260694E+02  0.40864891212E+02  0.00000000000E+00 0. -1.
         13    1    3    3    0    0  0.68560436143E+02  0.13887906159E+02 -0.14254202850E+03  0.15878172827E+03  0.00000000000E+00 0.  1.
        -13    1    4    4    0    0 -0.16449770973E+02  0.28434158069E+02 -0.11566391201E+03  0.12023825036E+03  0.00000000000E+00 0. -1.
         13    1    4    4    0    0 -0.62842950976E+01 -0.26660394673E+02  0.16496437708E+01  0.27440669335E+02  0.00000000000E+00 0.  1.
          2    1    1    2  501    0 -0.19258469074E+02 -0.29017958548E+02  0.65196085296E+02  0.73915222298E+02  0.00000000000E+00 0. -1.
<scales pt_clust_5="13000.00000" pt_clust_6="13000.00000" pt_clust_7="13000.00000" pt_clust_8="13000.00000" pt_clust_9="34.82715"></scales>
<clustering>
<clus scale="   34.827">  1  9  2 -1</clus>
<clus scale="   90.875">  5  6 -1 -1</clus>
<clus scale="   91.048">  7  8 -1 -1</clus>
<clus scale="   97.684">  2  5  1 -1</clus>
<clus scale="   34.827">  1  5  2 -1</clus>
</clustering>
</event>
<event>
 9    1  0.1321469E-005  0.9816419E+02  0.7546771E-02  0.1286305E+00
         21   -1    0    0  501  502  0.00000000000E+00  0.00000000000E+00  0.99803924710E+02  0.99803924710E+02  0.00000000000E+00 0.  1.
          2   -1    0    0  502    0 -0.00000000000E+00 -0.00000000000E+00 -0.17715617651E+03  0.17715617651E+03  0.00000000000E+00 0. -1.
         23    2    1    2    0    0  0.90675141672E+01 -0.17046006516E+02 -0.92432625099E+02  0.13430064256E+03  0.95499142712E+02 0.  0.
         23    2    1    2    0    0 -0.35189196675E+02  0.17591576640E+02  0.39202196198E+02  0.10709961777E+03  0.91573865318E+02 0.  0.
        -11    1    4    4    0    0 -0.38429518803E+02  0.42582076055E+02  0.53235012070E+02  0.78256166700E+02  0.00000000000E+00 0.  1.
         11    1    4    4    0    0  0.32403221282E+01 -0.24990499415E+02 -0.14032815872E+02  0.28843451073E+02  0.00000000000E+00 0. -1.
        -13    1    3    3    0    0  0.30899458916E+02 -0.35198007055E+02 -0.94872174957E+02  0.10580361923E+03  0.00000000000E+00 0. -1.
         13    1    3    3    0    0 -0.21831944749E+02  0.18152000539E+02  0.24395498577E+01  0.28497023329E+02  0.00000000000E+00 0.  1.
          2    1    1    2  501    0  0.26121682507E+02 -0.54557012334E+00 -0.24121822901E+02  0.35559840886E+02  0.00000000000E+00 0. -1.
<scales pt_clust_5="13000.00000" pt_clust_6="13000.00000" pt_clust_7="13000.00000" pt_clust_8="13000.00000" pt_clust_9="26.12739"></scales>
<clustering>
<clus scale="   26.127">  1  9  2 -1</clus>
<clus scale="   91.574">  5  6 -1 -1</clus>
<clus scale="   94.350">  1  5  2 -1</clus>
<clus scale="   95.499">  7  8 -1 -1</clus>
<clus scale="   26.127">  1  5  2 -1</clus>
</clustering>
</event>
<event>
 9    1  0.1321469E-005  0.1432354E+03  0.7546771E-02  0.1209114E+00
         21   -1    0    0  501  502  0.00000000000E+00  0.00000000000E+00  0.36894468892E+02  0.36894468892E+02  0.00000000000E+00 0.  1.
          2   -1    0    0  502    0 -0.00000000000E+00 -0.00000000000E+00 -0.77515290368E+03  0.77515290368E+03  0.00000000000E+00 0. -1.
         23    2    1    2    0    0  0.93792738154E+02  0.67702709301E+02 -0.53886857092E+03  0.55875112679E+03  0.91884440408E+02 0.  0.
         23    2    1    2    0    0 -0.83998716507E+02 -0.47356071743E+02 -0.16149274629E+03  0.20918162189E+03  0.91535031151E+02 0.  0.
        -11    1    3    3    0    0  0.16739616103E+02  0.62875055479E+02 -0.17312665015E+03  0.18494951836E+03  0.00000000000E+00 0.  1.
         11    1    3    3    0    0  0.77053122052E+02  0.48276538217E+01 -0.36574192077E+03  0.37380160843E+03  0.00000000000E+00 0. -1.
        -13    1    4    4    0    0 -0.72464623247E+02 -0.73944939756E+02 -0.13290996419E+03  0.16847561936E+03  0.00000000000E+00 0.  1.
         13    1    4    4    0    0 -0.11534093260E+02  0.26588868014E+02 -0.28582782098E+02  0.40706002531E+02  0.00000000000E+00 0. -1.
          2    1    1    2  501    0 -0.97940216478E+01 -0.20346637558E+02 -0.37897117591E+02  0.44114623898E+02  0.00000000000E+00 0. -1.
<scales pt_clust_5="13000.00000" pt_clust_6="13000.00000" pt_clust_7="13000.00000" pt_clust_8="13000.00000" pt_clust_9="22.58115"></scales>
<clustering>
<clus scale="   22.581">  1  9  2 -1</clus>
<clus scale="   91.535">  7  8 -1 -1</clus>
<clus scale="   91.884">  5  6 -1 -1</clus>
<clus scale="  143.012">  1  7  2 -1</clus>
<clus scale="   22.581">  1  5  2 -1</clus>
</clustering>
</event>
<event>
 9    1  0.1321469E-005  0.1956552E+03  0.7546771E-02  0.1153530E+00
         21   -1    0    0  501  502  0.00000000000E+00  0.00000000000E+00  0.26438010123E+03  0.26438010123E+03  0.00000000000E+00 0.  1.
          1   -1    0    0  502    0 -0.00000000000E+00 -0.00000000000E+00 -0.25847208271E+03  0.25847208271E+03  0.00000000000E+00 0. -1.
         23    2    1    2    0    0  0.25883968291E+02  0.14115189915E+03 -0.43302516485E+02  0.17588684503E+03  0.92017584587E+02 0.  0.
         23    2    1    2    0    0 -0.80389495748E+01 -0.22654506850E+03 -0.46682233156E+01  0.24443066837E+03  0.91308633525E+02 0.  0.
        -11    1    4    4    0    0  0.27065266695E+02 -0.15527430844E+03  0.25076883612E+02  0.15959789978E+03  0.00000000000E+00 0.  1.
         11    1    4    4    0    0 -0.35104216269E+02 -0.71270760059E+02 -0.29745106927E+02  0.84832768583E+02  0.00000000000E+00 0. -1.
        -13    1    3    3    0    0  0.45454628931E+02  0.10961932461E+03 -0.62479645070E+02  0.13411273492E+03  0.00000000000E+00 0. -1.
         13    1    3    3    0    0 -0.19570660640E+02  0.31532574538E+02  0.19177128585E+02  0.41774110112E+02  0.00000000000E+00 0.  1.
          1    1    1    2  501    0 -0.17845018716E+02  0.85393169354E+02  0.53878758325E+02  0.10253467055E+03  0.00000000000E+00 0. -1.
<scales pt_clust_5="13000.00000" pt_clust_6="13000.00000" pt_clust_7="13000.00000" pt_clust_8="13000.00000" pt_clust_9="87.23782"></scales>
<clustering>
<clus scale="   87.238">  1  9  2 -1</clus>
<clus scale="   91.309">  5  6 -1 -1</clus>
<clus scale="   92.018">  7  8 -1 -1</clus>
<clus scale="  195.323">  1  5  2 -1</clus>
<clus scale="   87.238">  1  5  2 -1</clus>
</clustering>
</event>
<event>
 9    1  0.1321469E-005  0.1545693E+03  0.7546771E-02  0.1195406E+00
          2   -1    0    0  502    0 -0.00000000000E+00  0.00000000000E+00  0.43109708190E+03  0.43109708190E+03  0.00000000000E+00 0. -1.
         21   -1    0    0  501  502  0.00000000000E+00 -0.00000000000E+00 -0.19210603495E+03  0.19210603495E+03  0.00000000000E+00 0.  1.
         23    2    1    2    0    0  0.83535235562E+02  0.75021183612E+02  0.27455685857E+03  0.31033962201E+03  0.91229922882E+02 0.  0.
         23    2    1    2    0    0 -0.14681527566E+03 -0.13262278624E+03  0.77346243171E+01  0.21696127457E+03  0.88706491604E+02 0.  0.
        -11    1    4    4    0    0 -0.27632103473E+02 -0.42957533418E+02 -0.34875494434E+02  0.61848063281E+02  0.00000000000E+00 0.  1.
         11    1    4    4    0    0 -0.11918317219E+03 -0.89665252823E+02  0.42610118751E+02  0.15511321129E+03  0.00000000000E+00 0. -1.
        -13    1    3    3    0    0 -0.17071489141E+02  0.27460902365E+02  0.47253198756E+02  0.57257328726E+02  0.00000000000E+00 0.  1.
         13    1    3    3    0    0  0.10060672470E+03  0.47560281247E+02  0.22730365982E+03  0.25308229328E+03  0.00000000000E+00 0. -1.
          2    1    1    2  501    0  0.63280040101E+02  0.57601602629E+02 -0.43300435930E+02  0.95902220268E+02  0.00000000000E+00 0. -1.
<scales pt_clust_5="13000.00000" pt_clust_6="13000.00000" pt_clust_7="13000.00000" pt_clust_8="13000.00000" pt_clust_9="85.57049"></scales>
<clustering>
<clus scale="   85.570">  2  9  1 -1</clus>
<clus scale="   88.706">  5  6 -1 -1</clus>
<clus scale="   91.230">  7  8 -1 -1</clus>
<clus scale="  153.093">  2  5  1 -1</clus>
<clus scale="   85.570">  2  5  1 -1</clus>
</clustering>
</event>
<event>
 9    1  0.1321469E-005  0.1127898E+03  0.7546771E-02  0.1255589E+00
         21   -1    0    0  501  502  0.00000000000E+00  0.00000000000E+00  0.18095298770E+03  0.18095298770E+03  0.00000000000E+00 0. -1.
          3   -1    0    0  502    0 -0.00000000000E+00 -0.00000000000E+00 -0.20380095427E+03  0.20380095427E+03  0.00000000000E+00 0. -1.
         23    2    1    2    0    0  0.70400053855E+02 -0.20747681272E+02 -0.13563718765E+03  0.17898703086E+03  0.90842042489E+02 0.  0.
         23    2    1    2    0    0 -0.26660222341E+02  0.52471475334E+02  0.40141305577E+02  0.11522801562E+03  0.90565710898E+02 0.  0.
        -11    1    4    4    0    0 -0.13044187320E+02 -0.25539109450E+02  0.13313055288E+02  0.31616995041E+02  0.00000000000E+00 0. -1.
         11    1    4    4    0    0 -0.13616035021E+02  0.78010584784E+02  0.26828250289E+02  0.83611020575E+02  0.00000000000E+00 0.  1.
        -13    1    3    3    0    0  0.50641759845E+02  0.22358000140E+02 -0.29473535708E+02  0.62714889122E+02  0.00000000000E+00 0.  1.
         13    1    3    3    0    0  0.19758294009E+02 -0.43105681412E+02 -0.10616365194E+03  0.11627214174E+03  0.00000000000E+00 0. -1.
          3    1    1    2  501    0 -0.43739831514E+02 -0.31723794061E+02  0.72647915504E+02  0.90538895495E+02  0.00000000000E+00 0. -1.
<scales pt_clust_5="13000.00000" pt_clust_6="13000.00000" pt_clust_7="13000.00000" pt_clust_8="13000.00000" pt_clust_9="54.03306"></scales>
<clustering>
<clus scale="   54.033">  1  9  2 -1</clus>
<clus scale="   90.566">  5  6 -1 -1</clus>
<clus scale="   90.842">  7  8 -1 -1</clus>
<clus scale="  112.567">  1  5  2 -1</clus>
<clus scale="   54.033">  1  5  2 -1</clus>
</clustering>
</event>
<event>
 9    1  0.1321469E-005  0.9483603E+02  0.7546771E-02  0.1291812E+00
         21   -1    0    0  501  502  0.00000000000E+00  0.00000000000E+00  0.22727220143E+03  0.22727220143E+03  0.00000000000E+00 0. -1.
          1   -1    0    0  502    0 -0.00000000000E+00 -0.00000000000E+00 -0.87167183114E+02  0.87167183114E+02  0.00000000000E+00 0. -1.
         23    2    1    2    0    0 -0.17178775615E+02 -0.91044339004E+01 -0.31571320291E+02  0.99541609885E+02  0.92378475769E+02 0.  0.
         23    2    1    2    0    0  0.10244619530E+02  0.35906144134E+02  0.11533151548E+03  0.15211916935E+03  0.91894938940E+02 0.  0.
        -11    1    3    3    0    0 -0.37568965203E+02 -0.38021584261E+02 -0.21004669800E+01  0.53492803046E+02  0.00000000000E+00 0. -1.
         11    1    3    3    0    0  0.20390189589E+02  0.28917150361E+02 -0.29470853311E+02  0.46048806840E+02  0.00000000000E+00 0.  1.
        -13    1    4    4    0    0  0.32080303165E+02 -0.62606863816E+01  0.94997883740E+02  0.10046362506E+03  0.00000000000E+00 0.  1.
         13    1    4    4    0    0 -0.21835683635E+02  0.42166830516E+02  0.20333631744E+02  0.51655544286E+02  0.00000000000E+00 0. -1.
          1    1    1    2  501    0  0.69341560849E+01 -0.26801710234E+02  0.56344823124E+02  0.62778605312E+02  0.00000000000E+00 0. -1.
<scales pt_clust_5="13000.00000" pt_clust_6="13000.00000" pt_clust_7="13000.00000" pt_clust_8="13000.00000" pt_clust_9="27.68419"></scales>
<clustering>
<clus scale="   27.684">  1  9  2 -1</clus>
<clus scale="   91.895">  7  8 -1 -1</clus>
<clus scale="   92.378">  5  6 -1 -1</clus>
<clus scale="   94.365">  1  7  2 -1</clus>
<clus scale="   27.684">  1  5  2 -1</clus>
</clustering>
</event>
<event>
 9    1  0.1321469E-005  0.1059562E+03  0.7546771E-02  0.1269855E+00
         21   -1    0    0  501  502  0.00000000000E+00  0.00000000000E+00  0.58738823527E+02  0.58738823527E+02  0.00000000000E+00 0. -1.
          4   -1    0    0  502    0 -0.00000000000E+00 -0.00000000000E+00 -0.62411553585E+03  0.62411553585E+03  0.00000000000E+00 0. -1.
         23    2    1    2    0    0  0.35613377532E+02 -0.48013670856E+02 -0.33139915641E+03  0.34911175216E+03  0.92086857818E+02 0.  0.
         23    2    1    2    0    0  0.38326786288E+01  0.51518057959E+02 -0.26459052799E+03  0.28368837527E+03  0.88329763066E+02 0.  0.
        -11    1    4    4    0    0  0.27839753972E+02  0.49569322818E+02 -0.24802062932E+03  0.25445314350E+03  0.00000000000E+00 0.  1.
         11    1    4    4    0    0 -0.24007075343E+02  0.19487351413E+01 -0.16569898661E+02  0.29235231773E+02  0.00000000000E+00 0. -1.
        -13    1    3    3    0    0 -0.17088258342E+01  0.26443812071E+02 -0.80927568701E+02  0.85155543909E+02  0.00000000000E+00 0.  1.
         13    1    3    3    0    0  0.37322203367E+02 -0.74457482927E+02 -0.25047158771E+03  0.26395620825E+03  0.00000000000E+00 0. -1.
          4    1    1    2  501    0 -0.39446056161E+02 -0.35043871025E+01  0.30612972074E+02  0.50054231937E+02  0.00000000000E+00 0. -1.
<scales pt_clust_5="13000.00000" pt_clust_6="13000.00000" pt_clust_7="13000.00000" pt_clust_8="13000.00000" pt_clust_9="39.60142"></scales>
<clustering>
<clus scale="   39.601">  1  9  2 -1</clus>
<clus scale="   88.330">  5  6 -1 -1</clus>
<clus scale="   92.087">  7  8 -1 -1</clus>
<clus scale="  102.708">  1  5  2 -1</clus>
<clus scale="   39.601">  1  5  2 -1</clus>
</clustering>
</event>
<event>
 9    1  0.1321469E-005  0.1057140E+03  0.7546771E-02  0.1269167E+00
          1   -1    0    0  502    0 -0.00000000000E+00  0.00000000000E+00  0.62184121144E+03  0.62184121144E+03  0.00000000000E+00 0. -1.
         21   -1    0    0  501  502  0.00000000000E+00 -0.00000000000E+00 -0.60812977572E+02  0.60812977572E+02  0.00000000000E+00 0.  1.
         23    2    1    2    0    0 -0.34232259493E+02 -0.35563842271E+02  0.47185073645E+03  0.48303115442E+03  0.90770833353E+02 0.  0.
         23    2    1    2    0    0  0.83450267136E+02  0.36359694854E+02  0.75896081273E+02  0.14863831459E+03  0.89705958097E+02 0.  0.
        -13    1    4    4    0    0  0.27920775135E+02  0.17790237081E+02 -0.18224471572E+02  0.37791448552E+02  0.00000000000E+00 0.  1.
         13    1    4    4    0    0  0.55529492001E+02  0.18569457773E+02  0.94120552844E+02  0.11084686604E+03  0.00000000000E+00 0. -1.
        -13    1    3    3    0    0 -0.36160646960E+02  0.23803253965E+02  0.17298027095E+03  0.17831534266E+03  0.00000000000E+00 0.  1.
         13    1    3    3    0    0  0.19283874669E+01 -0.59367096237E+02  0.29887046550E+03  0.30471581177E+03  0.00000000000E+00 0. -1.
          1    1    1    2  501    0 -0.49218007643E+02 -0.79585258304E+00  0.13281416139E+02  0.50984719988E+02  0.00000000000E+00 0. -1.
<scales pt_clust_5="13000.00000" pt_clust_6="13000.00000" pt_clust_7="13000.00000" pt_clust_8="13000.00000" pt_clust_9="49.22444"></scales>
<clustering>
<clus scale="   49.224">  2  9  1 -1</clus>
<clus scale="   89.706">  5  6 -1 -1</clus>
<clus scale="   90.771">  7  8 -1 -1</clus>
<clus scale="  104.801">  2  5  1 -1</clus>
<clus scale="   49.224">  2  5  1 -1</clus>
</clustering>
</event>
<event>
 9    1  0.1321469E-005  0.1219519E+03  0.7546771E-02  0.1240416E+00
          1   -1    0    0  502    0 -0.00000000000E+00  0.00000000000E+00  0.25826023063E+03  0.25826023063E+03  0.00000000000E+00 0. -1.
         21   -1    0    0  501  502  0.00000000000E+00 -0.00000000000E+00 -0.14359940535E+03  0.14359940535E+03  0.00000000000E+00 0. -1.
         23    2    1    2    0    0  0.75251709205E+02 -0.23118668759E+02  0.14829761362E+03  0.19146029900E+03  0.92019407221E+02 0.  0.
         23    2    1    2    0    0 -0.68160369825E+02  0.53519971292E+02  0.39165240055E+02  0.13118657520E+03  0.90364695225E+02 0.  0.
        -11    1    3    3    0    0  0.46806009965E+01 -0.42445717743E+02  0.29375285730E+02  0.51831017665E+02  0.00000000000E+00 0.  1.
         11    1    3    3    0    0  0.70571108208E+02  0.19327048984E+02  0.11892232789E+03  0.13962928134E+03  0.00000000000E+00 0. -1.
        -13    1    4    4    0    0 -0.25436963354E+02 -0.23786394177E+02  0.66013992360E+00  0.34831988708E+02  0.00000000000E+00 0.  1.
         13    1    4    4    0    0 -0.42723406471E+02  0.77306365469E+02  0.38505100132E+02  0.96354586495E+02  0.00000000000E+00 0. -1.
          1    1    1    2  501    0 -0.70913393798E+01 -0.30401302533E+02 -0.72802028398E+02  0.79212761779E+02  0.00000000000E+00 0. -1.
<scales pt_clust_5="13000.00000" pt_clust_6="13000.00000" pt_clust_7="13000.00000" pt_clust_8="13000.00000" pt_clust_9="31.21740"></scales>
<clustering>
<clus scale="   31.217">  2  9  1 -1</clus>
<clus scale="   90.365">  7  8 -1 -1</clus>
<clus scale="   92.019">  5  6 -1 -1</clus>
<clus scale="  120.708">  2  7  1 -1</clus>
<clus scale="   31.217">  2  5  1 -1</clus>
</clustering>
</event>
<event>
 9    1  0.1321469E-005  0.1260075E+03  0.7546771E-02  0.1233908E+00
          1   -1    0    0  502    0 -0.00000000000E+00  0.00000000000E+00  0.83880202730E+02  0.83880202730E+02  0.00000000000E+00 0. -1.
         21   -1    0    0  501  502  0.00000000000E+00 -0.00000000000E+00 -0.33373203110E+03  0.33373203110E+03  0.00000000000E+00 0.  1.
         23    2    1    2    0    0 -0.13848055253E+02 -0.88834307196E+02 -0.74862543603E+01  0.12972954466E+03  0.93222357752E+02 0.  0.
         23    2    1    2    0    0  0.40159204059E+02  0.62686571680E+02 -0.18790531931E+03  0.22198959418E+03  0.91807423241E+02 0.  0.
        -13    1    3    3    0    0 -0.33797041797E+02 -0.10073144559E+03 -0.49661011356E+01  0.10636600173E+03  0.00000000000E+00 0. -1.
         13    1    3    3    0    0  0.19948986544E+02  0.11897138389E+02 -0.25201532247E+01  0.23363542931E+02  0.00000000000E+00 0.  1.
        -13    1    4    4    0    0  0.13860730318E+02  0.80605765076E+02 -0.10437706296E+03  0.13260460203E+03  0.00000000000E+00 0.  1.
         13    1    4    4    0    0  0.26298473741E+02 -0.17919193396E+02 -0.83528256352E+02  0.89384992153E+02  0.00000000000E+00 0. -1.
          1    1    1    2  501    0 -0.26311148806E+02  0.26147735517E+02 -0.54460254701E+02  0.65893094982E+02  0.00000000000E+00 0. -1.
<scales pt_clust_5="13000.00000" pt_clust_6="13000.00000" pt_clust_7="13000.00000" pt_clust_8="13000.00000" pt_clust_9="37.09421"></scales>
<clustering>
<clus scale="   37.094">  2  9  1 -1</clus>
<clus scale="   91.807">  7  8 -1 -1</clus>
<clus scale="   93.222">  5  6 -1 -1</clus>
<clus scale="  124.964">  2  7  1 -1</clus>
<clus scale="   37.094">  2  5  1 -1</clus>
</clustering>
</event>
<event>
 9    1  0.1321469E-005  0.1233408E+03  0.7546771E-02  0.1238737E+00
          2   -1    0    0  502    0 -0.00000000000E+00  0.00000000000E+00  0.48448641433E+03  0.48448641433E+03  0.00000000000E+00 0. -1.
         21   -1    0    0  501  502  0.00000000000E+00 -0.00000000000E+00 -0.59763561960E+02  0.59763561960E+02  0.00000000000E+00 0. -1.
         23    2    1    2    0    0  0.11511485817E+02  0.91419410994E+02  0.35173487302E+03  0.37552657606E+03  0.93876330423E+02 0.  0.
         23    2    1    2    0    0  0.10328359350E+02 -0.47061344955E+02  0.44878483926E+02  0.11184844448E+03  0.90413223680E+02 0.  0.
        -13    1    4    4    0    0  0.28690588115E+02 -0.37718787482E+02  0.66710669959E+02  0.81830130526E+02  0.00000000000E+00 0.  1.
         13    1    4    4    0    0 -0.18362228766E+02 -0.93425574726E+01 -0.21832186033E+02  0.30018313949E+02  0.00000000000E+00 0. -1.
        -13    1    3    3    0    0 -0.39699850119E+02  0.40416072251E+02  0.19235038236E+03  0.20051984089E+03  0.00000000000E+00 0. -1.
         13    1    3    3    0    0  0.51211335935E+02  0.51003338742E+02  0.15938449066E+03  0.17500673517E+03  0.00000000000E+00 0.  1.
          2    1    1    2  501    0 -0.21839845166E+02 -0.44358066039E+02  0.28109495422E+02  0.56874955758E+02  0.00000000000E+00 0. -1.
<scales pt_clust_5="13000.00000" pt_clust_6="13000.00000" pt_clust_7="13000.00000" pt_clust_8="13000.00000" pt_clust_9="49.44307"></scales>
<clustering>
<clus scale="   49.443">  2  9  1 -1</clus>
<clus scale="   90.413">  5  6 -1 -1</clus>
<clus scale="   93.876">  7  8 -1 -1</clus>
<clus scale="  120.726">  2  5  1 -1</clus>
<clus scale="   49.443">  2  5  1 -1</clus>
</clustering>
</event>
<event>
 9    1  0.1321469E-005  0.9155582E+02  0.7546771E-02  0.1299398E+00
         21   -1    0    0  501  502  0.00000000000E+00  0.00000000000E+00  0.52403370514E+02  0.52403370514E+02  0.00000000000E+00 0. -1.
          1   -1    0    0  502    0 -0.00000000000E+00 -0.00000000000E+00 -0.39537919275E+03  0.39537919275E+03  0.00000000000E+00 0. -1.
         23    2    1    2    0    0 -0.11529195164E+02  0.10290479412E+00 -0.24795923832E+03  0.26454681735E+03  0.91478422455E+02 0.  0.
         23    2    1    2    0    0 -0.11036353879E+02  0.21308036041E+01 -0.11899283931E+03  0.15023492351E+03  0.91021398607E+02 0.  0.
        -13    1    4    4    0    0 -0.41514099057E+02 -0.19323049905E+02 -0.96211394340E+02  0.10655248978E+03  0.00000000000E+00 0. -1.
         13    1    4    4    0    0  0.30477745177E+02  0.21453853509E+02 -0.22781444969E+02  0.43682433727E+02  0.00000000000E+00 0.  1.
        -13    1    3    3    0    0  0.34977495476E+02  0.13225293885E+02 -0.61930812116E+02  0.72344723909E+02  0.00000000000E+00 0.  1.
         13    1    3    3    0    0 -0.46506690640E+02 -0.13122389091E+02 -0.18602842620E+03  0.19220209345E+03  0.00000000000E+00 0. -1.
          1    1    1    2  501    0  0.22565549043E+02 -0.22337083982E+01  0.23976255388E+02  0.33000822403E+02  0.00000000000E+00 0. -1.
<scales pt_clust_5="13000.00000" pt_clust_6="13000.00000" pt_clust_7="13000.00000" pt_clust_8="13000.00000" pt_clust_9="22.67583"></scales>
<clustering>
<clus scale="   22.676">  1  9  2 -1</clus>
<clus scale="   91.021">  5  6 -1 -1</clus>
<clus scale="   91.099">  1  5  2 -1</clus>
<clus scale="   91.478">  7  8 -1 -1</clus>
<clus scale="   22.676">  1  5  2 -1</clus>
</clustering>
</event>
<event>
 9    1  0.1321469E-005  0.1528308E+03  0.7546771E-02  0.1211072E+00
         21   -1    0    0  501  502  0.00000000000E+00  0.00000000000E+00  0.53586897156E+03  0.53586897156E+03  0.00000000000E+00 0. -1.
          1   -1    0    0  502    0 -0.00000000000E+00 -0.00000000000E+00 -0.12591764274E+03  0.12591764274E+03  0.00000000000E+00 0. -1.
         23    2    1    2    0    0 -0.62290068330E+01  0.64470274809E+02  0.20775346063E+03  0.23645369689E+03  0.92485855725E+02 0.  0.
         23    2    1    2    0    0  0.52116759084E+02 -0.16991760579E+03  0.75414978517E+01  0.19924459854E+03  0.89740662586E+02 0.  0.
        -11    1    4    4    0    0 -0.24546787568E+02 -0.27817985029E+02 -0.43111013688E+01  0.37349306098E+02  0.00000000000E+00 0.  1.
         11    1    4    4    0    0  0.76663546652E+02 -0.14209962076E+03  0.11852599221E+02  0.16189529244E+03  0.00000000000E+00 0. -1.
        -13    1    3    3    0    0 -0.32341562925E+02  0.73036069209E+02  0.11727076875E+03  0.14188966594E+03  0.00000000000E+00 0.  1.
         13    1    3    3    0    0  0.26112556092E+02 -0.85657944000E+01  0.90482691877E+02  0.94564030946E+02  0.00000000000E+00 0. -1.
          1    1    1    2  501    0 -0.45887752251E+02  0.10544733098E+03  0.19465637034E+03  0.22608831887E+03  0.00000000000E+00 0. -1.
<scales pt_clust_5="13000.00000" pt_clust_6="13000.00000" pt_clust_7="13000.00000" pt_clust_8="13000.00000" pt_clust_9="123.70878"></scales>
<clustering>
<clus scale="   89.741">  5  6 -1 -1</clus>
<clus scale="   92.486">  7  8 -1 -1</clus>
<clus scale="  112.911">  2  7  1 -1</clus>
<clus scale="  123.709">  1  9  2 -1</clus>
<clus scale="  123.709">  1  5  2 -1</clus>
</clustering>
</event>
<event>
 9    1  0.1321469E-005  0.1016166E+03  0.7546771E-02  0.1277025E+00
         21   -1    0    0  501  502  0.00000000000E+00  0.00000000000E+00  0.53543072254E+03  0.53543072254E+03  0.00000000000E+00 0.  1.
          1   -1    0    0  502    0 -0.00000000000E+00 -0.00000000000E+00 -0.26581435840E+03  0.26581435840E+03  0.00000000000E+00 0. -1.
         23    2    1    2    0    0 -0.31854527357E+02 -0.33769763619E+02 -0.23865445023E+03  0.25998653831E+03  0.92097479014E+02 0.  0.
         23    2    1    2    0    0 -0.25651596792E+02 -0.18141581309E+02  0.18830182311E+03  0.21204448245E+03  0.92293903155E+02 0.  0.
        -11    1    3    3    0    0  0.19900763034E+02 -0.45854077671E+02 -0.11655216280E+03  0.12681893968E+03  0.00000000000E+00 0. -1.
         11    1    3    3    0    0 -0.51755290391E+02  0.12084314052E+02 -0.12210228743E+03  0.13316759863E+03  0.00000000000E+00 0.  1.
        -13    1    4    4    0    0 -0.29158828048E+01  0.25263804123E+02  0.14322312290E+03  0.14546348375E+03  0.00000000000E+00 0.  1.
         13    1    4    4    0    0 -0.22735713988E+02 -0.43405385431E+02  0.45078700208E+02  0.66580998696E+02  0.00000000000E+00 0. -1.
          1    1    1    2  501    0  0.57506124149E+02  0.51911344927E+02  0.31996899127E+03  0.32921406018E+03  0.00000000000E+00 0. -1.
<scales pt_clust_5="13000.00000" pt_clust_6="13000.00000" pt_clust_7="13000.00000" pt_clust_8="13000.00000" pt_clust_9="77.47091"></scales>
<clustering>
<clus scale="   77.471">  1  9  2 -1</clus>
<clus scale="   92.097">  5  6 -1 -1</clus>
<clus scale="   92.294">  7  8 -1 -1</clus>
<clus scale="  101.438">  2  5  1 -1</clus>
<clus scale="   77.471">  1  5  2 -1</clus>
</clustering>
</event>
<event>
 9    1  0.1531971E-005  0.1603450E+03  0.7546771E-02  0.1214526E+00
         -1   -1    0    0    0  501 -0.00000000000E+00  0.00000000000E+00  0.20552206066E+03  0.20552206066E+03  0.00000000000E+00 0.  1.
         21   -1    0    0  501  502  0.00000000000E+00 -0.00000000000E+00 -0.30403663317E+03  0.30403663317E+03  0.00000000000E+00 0.  1.
         23    2    1    2    0    0  0.85831201694E+01 -0.94631996073E+00  0.75205886809E+02  0.11793807430E+03  0.90437262699E+02 0.  0.
         23    2    1    2    0    0  0.62741029015E+02 -0.11003432452E+03  0.19029851529E+02  0.15804724768E+03  0.92589459205E+02 0.  0.
        -13    1    3    3    0    0  0.33759876586E+02 -0.17132655744E+02  0.79159843255E+02  0.87747011027E+02  0.00000000000E+00 0.  1.
         13    1    3    3    0    0 -0.25176756416E+02  0.16186335784E+02 -0.39539564464E+01  0.30191063269E+02  0.00000000000E+00 0. -1.
        -13    1    4    4    0    0  0.82709467932E+02 -0.10371456402E+03  0.27462710584E+02  0.13546869509E+03  0.00000000000E+00 0.  1.
         13    1    4    4    0    0 -0.19968438917E+02 -0.63197605048E+01 -0.84328590549E+01  0.22578552599E+02  0.00000000000E+00 0. -1.
         -1    1    1    2    0  502 -0.71324149184E+02  0.11098064449E+03 -0.19275031085E+03  0.23357337186E+03  0.00000000000E+00 0.  1.
<scales pt_clust_5="13000.00000" pt_clust_6="13000.00000" pt_clust_7="13000.00000" pt_clust_8="13000.00000" pt_clust_9="130.91112"></scales>
<clustering>
<clus scale="   90.437">  5  6 -1 -1</clus>
<clus scale="   90.849">  1  5  2 -1</clus>
<clus scale="   92.589">  7  8 -1 -1</clus>
<clus scale="  130.911">  2  9  1 -1</clus>
<clus scale="  130.911">  2  5  1 -1</clus>
</clustering>
</event>
<event>
 9    1  0.1321469E-005  0.1263981E+03  0.7546771E-02  0.1233211E+00
         21   -1    0    0  501  502  0.00000000000E+00  0.00000000000E+00  0.72481881758E+02  0.72481881758E+02  0.00000000000E+00 0.  1.
          3   -1    0    0  502    0 -0.00000000000E+00 -0.00000000000E+00 -0.38934381726E+03  0.38934381726E+03  0.00000000000E+00 0. -1.
         23    2    1    2    0    0 -0.25153619581E+02 -0.78177382540E+02 -0.25764114048E+03  0.28516737769E+03  0.90537662400E+02 0.  0.
         23    2    1    2    0    0  0.28081015979E+02  0.98202793119E+02 -0.69646712794E+02  0.15389241524E+03  0.91650852868E+02 0.  0.
        -11    1    3    3    0    0 -0.22194043994E+02  0.85311537822E+01 -0.16629134174E+02  0.29015242151E+02  0.00000000000E+00 0.  1.
         11    1    3    3    0    0 -0.29595755870E+01 -0.86708536322E+02 -0.24101200631E+03  0.25615213554E+03  0.00000000000E+00 0. -1.
        -13    1    4    4    0    0 -0.14546496914E+02  0.21715885002E+02 -0.60435924864E+02  0.65845890138E+02  0.00000000000E+00 0. -1.
         13    1    4    4    0    0  0.42627512893E+02  0.76486908117E+02 -0.92107879296E+01  0.88046525105E+02  0.00000000000E+00 0.  1.
          3    1    1    2  501    0 -0.29273963978E+01 -0.20025410579E+02  0.10425917770E+02  0.22765906086E+02  0.00000000000E+00 0. -1.
<scales pt_clust_5="13000.00000" pt_clust_6="13000.00000" pt_clust_7="13000.00000" pt_clust_8="13000.00000" pt_clust_9="20.23825"></scales>
<clustering>
<clus scale="   20.238">  1  9  2 -1</clus>
<clus scale="   90.538">  5  6 -1 -1</clus>
<clus scale="   91.651">  7  8 -1 -1</clus>
<clus scale="  125.593">  2  5  1 -1</clus>
<clus scale="   20.238">  1  5  2 -1</clus>
</clustering>
</event>
<event>
 9    1  0.3724739E-005  0.9408846E+02  0.7546771E-02  0.1293658E+00
         -3   -1    0    0    0  501 -0.00000000000E+00  0.00000000000E+00  0.39913314812E+03  0.39913314812E+03  0.00000000000E+00 0.  1.
         21   -1    0    0  501  502  0.00000000000E+00 -0.00000000000E+00 -0.18611447476E+03  0.18611447476E+03  0.00000000000E+00 0.  1.
         23    2    1    2    0    0  0.31553158850E+02  0.11404316217E+02  0.31853944817E+03  0.33208306982E+03  0.87670547830E+02 0.  0.
         23    2    1    2    0    0 -0.33897646307E+02  0.41411057908E+02  0.30047616961E+02  0.10765252876E+03  0.88443662980E+02 0.  0.
        -11    1    4    4    0    0  0.18529656796E+02  0.45334634998E+02  0.24573269351E+02  0.54794369035E+02  0.00000000000E+00 0.  1.
         11    1    4    4    0    0 -0.52427303103E+02 -0.39235770900E+01  0.54743476099E+01  0.52858159726E+02  0.00000000000E+00 0. -1.
        -13    1    3    3    0    0  0.33981723117E+02  0.46845543110E+02  0.21318177860E+03  0.22089756255E+03  0.00000000000E+00 0.  1.
         13    1    3    3    0    0 -0.24285642664E+01 -0.35441226894E+02  0.10535766958E+03  0.11118550727E+03  0.00000000000E+00 0. -1.
         -3    1    1    2    0  502  0.23444874570E+01 -0.52815374124E+02 -0.13556839178E+03  0.14551202430E+03  0.00000000000E+00 0.  1.
<scales pt_clust_5="13000.00000" pt_clust_6="13000.00000" pt_clust_7="13000.00000" pt_clust_8="13000.00000" pt_clust_9="52.86738"></scales>
<clustering>
<clus scale="   52.867">  2  9  1 -1</clus>
<clus scale="   87.671">  7  8 -1 -1</clus>
<clus scale="   88.444">  5  6 -1 -1</clus>
<clus scale="   93.362">  1  7  2 -1</clus>
<clus scale="   52.867">  2  5  1 -1</clus>
</clustering>
</event>
<event>
 9    1  0.1321469E-005  0.1065295E+03  0.7546771E-02  0.1273599E+00
          1   -1    0    0  502    0 -0.00000000000E+00  0.00000000000E+00  0.74938036072E+03  0.74938036072E+03  0.00000000000E+00 0. -1.
         21   -1    0    0  501  502  0.00000000000E+00 -0.00000000000E+00 -0.18264762154E+02  0.18264762154E+02  0.00000000000E+00 0.  1.
         23    2    1    2    0    0 -0.17754672017E+02 -0.74921906107E+01  0.37421655817E+03  0.38896217364E+03  0.10431768218E+03 0.  0.
         23    2    1    2    0    0  0.28781953294E+01  0.30497813140E+02  0.30633725051E+03  0.32117588164E+03  0.91504291070E+02 0.  0.
        -11    1    3    3    0    0 -0.36737461538E+02 -0.46544798331E+02  0.26226426582E+03  0.26888399815E+03  0.00000000000E+00 0. -1.
         11    1    3    3    0    0  0.18982789521E+02  0.39052607720E+02  0.11195229235E+03  0.12007817549E+03  0.00000000000E+00 0.  1.
        -13    1    4    4    0    0 -0.26814977778E+02  0.52288681109E+02  0.16633366488E+03  0.17640872223E+03  0.00000000000E+00 0.  1.
         13    1    4    4    0    0  0.29693173108E+02 -0.21790867969E+02  0.14000358562E+03  0.14476715941E+03  0.00000000000E+00 0. -1.
          1    1    1    2  501    0  0.14876476688E+02 -0.23005622529E+02  0.50561789886E+02  0.57507067593E+02  0.00000000000E+00 0. -1.
<scales pt_clust_5="13000.00000" pt_clust_6="13000.00000" pt_clust_7="13000.00000" pt_clust_8="13000.00000" pt_clust_9="27.39650"></scales>
<clustering>
<clus scale="   27.397">  2  9  1 -1</clus>
<clus scale="   91.504">  7  8 -1 -1</clus>
<clus scale="   94.018">  2  7  1 -1</clus>
<clus scale="  104.318">  5  6 -1 -1</clus>
<clus scale="   27.397">  2  5  1 -1</clus>
</clustering>
</event>
<event>
 9    1  0.1321469E-005  0.1151317E+03  0.7546771E-02  0.1255659E+00
         -2   -1    0    0    0  501 -0.00000000000E+00  0.00000000000E+00  0.11459941068E+03  0.11459941068E+03  0.00000000000E+00 0.  1.
         21   -1    0    0  501  502  0.00000000000E+00 -0.00000000000E+00 -0.22185775868E+03  0.22185775868E+03  0.00000000000E+00 0.  1.
         23    2    1    2    0    0 -0.69423459437E+02 -0.20363791349E+02  0.37021236382E+02  0.12825753604E+03  0.99222592637E+02 0.  0.
         23    2    1    2    0    0  0.34878555008E+02 -0.96466568028E+01 -0.60766372792E+02  0.11297130806E+03  0.88093091645E+02 0.  0.
        -11    1    4    4    0    0  0.54303192872E+02 -0.33849544986E+02 -0.44418203528E+02  0.77894834594E+02  0.00000000000E+00 0. -1.
         11    1    4    4    0    0 -0.19424637863E+02  0.24202888183E+02 -0.16348169264E+02  0.35076473466E+02  0.00000000000E+00 0.  1.
        -13    1    3    3    0    0 -0.23764338636E+02  0.19226120905E+02  0.56940447547E+02  0.64626636016E+02  0.00000000000E+00 0.  1.
         13    1    3    3    0    0 -0.45659120800E+02 -0.39589912253E+02 -0.19919211165E+02  0.63630900024E+02  0.00000000000E+00 0. -1.
         -2    1    1    2    0  502  0.34544904428E+02  0.30010448151E+02 -0.83513211598E+02  0.95228325259E+02  0.00000000000E+00 0.  1.
<scales pt_clust_5="13000.00000" pt_clust_6="13000.00000" pt_clust_7="13000.00000" pt_clust_8="13000.00000" pt_clust_9="45.76000"></scales>
<clustering>
<clus scale="   45.760">  2  9  1 -1</clus>
<clus scale="   88.093">  5  6 -1 -1</clus>
<clus scale="   99.223">  7  8 -1 -1</clus>
<clus scale="  105.691">  2  5  1 -1</clus>
<clus scale="   45.760">  2  5  1 -1</clus>
</clustering>
</event>
<event>
 9    1  0.1321469E-005  0.1713529E+03  0.7546771E-02  0.1178151E+00
         21   -1    0    0  501  502  0.00000000000E+00  0.00000000000E+00  0.10328973344E+03  0.10328973344E+03  0.00000000000E+00 0.  1.
         -1   -1    0    0    0  501 -0.00000000000E+00 -0.00000000000E+00 -0.57554746445E+03  0.57554746445E+03  0.00000000000E+00 0.  1.
         23    2    1    2    0    0 -0.10976197782E+03  0.98773527823E+02 -0.35254667227E+03  0.39305761934E+03  0.91658247964E+02 0.  0.
         23    2    1    2    0    0  0.90463348561E+02 -0.43385277528E+02  0.93782533263E+01  0.14398978394E+03  0.10285526970E+03 0.  0.
        -13    1    4    4    0    0  0.56350109762E+02  0.19863708882E+02  0.33111470003E+02  0.68310110866E+02  0.00000000000E+00 0.  1.
         13    1    4    4    0    0  0.34113238798E+02 -0.63248986410E+02 -0.23733216676E+02  0.75679673077E+02  0.00000000000E+00 0. -1.
        -13    1    3    3    0    0 -0.12062530627E+03  0.75688366344E+02 -0.32832473551E+03  0.35787752830E+03  0.00000000000E+00 0.  1.
         13    1    3    3    0    0  0.10863328448E+02  0.23085161478E+02 -0.24221936760E+02  0.35180091044E+02  0.00000000000E+00 0. -1.
         -1    1    1    2    0  502  0.19298629260E+02 -0.55388250295E+02 -0.12908931207E+03  0.14178979460E+03  0.00000000000E+00 0.  1.
<scales pt_clust_5="13000.00000" pt_clust_6="13000.00000" pt_clust_7="13000.00000" pt_clust_8="13000.00000" pt_clust_9="58.65406"></scales>
<clustering>
<clus scale="   58.654">  1  9  2 -1</clus>
<clus scale="   91.658">  7  8 -1 -1</clus>
<clus scale="  102.855">  5  6 -1 -1</clus>
<clus scale="  164.875">  2  7  1 -1</clus>
<clus scale="   58.654">  1  5  2 -1</clus>
</clustering>
</event>
<event>
 9    1  0.1321469E-005  0.1630591E+03  0.7546771E-02  0.1186108E+00
          2   -1    0    0  502    0 -0.00000000000E+00  0.00000000000E+00  0.13796606502E+04  0.13796606502E+04  0.00000000000E+00 0. -1.
         21   -1    0    0  501  502  0.00000000000E+00 -0.00000000000E+00 -0.15220221164E+03  0.15220221164E+03  0.00000000000E+00 0. -1.
         23    2    1    2    0    0 -0.95260833803E+02 -0.11056065411E+03  0.85016448539E+03  0.86783182662E+03  0.95153257382E+02 0.  0.
         23    2    1    2    0    0  0.70123189614E+02  0.93122359748E+02  0.50845355374E+03  0.52935053885E+03  0.89988560712E+02 0.  0.
        -13    1    4    4    0    0  0.51673100905E+02  0.15001484938E+02  0.10493810797E+03  0.11792862422E+03  0.00000000000E+00 0.  1.
         13    1    4    4    0    0  0.18450088709E+02  0.78120874810E+02  0.40351544577E+03  0.41142191462E+03  0.00000000000E+00 0. -1.
        -13    1    3    3    0    0 -0.18953471002E+02  0.16658615772E+02  0.99571678878E+02  0.10271933984E+03  0.00000000000E+00 0.  1.
         13    1    3    3    0    0 -0.76307362800E+02 -0.12721926989E+03  0.75059280651E+03  0.76511248678E+03  0.00000000000E+00 0. -1.
          2    1    1    2  501    0  0.25137644189E+02  0.17438294364E+02 -0.13115960059E+03  0.13468049634E+03  0.00000000000E+00 0. -1.
<scales pt_clust_5="13000.00000" pt_clust_6="13000.00000" pt_clust_7="13000.00000" pt_clust_8="13000.00000" pt_clust_9="30.59404"></scales>
<clustering>
<clus scale="   30.594">  2  9  1 -1</clus>
<clus scale="   89.989">  5  6 -1 -1</clus>
<clus scale="   95.153">  7  8 -1 -1</clus>
<clus scale="  160.100">  2  5  1 -1</clus>
<clus scale="   30.594">  2  5  1 -1</clus>
</clustering>
</event>
<event>
 9    1  0.1321469E-005  0.9424213E+02  0.7546771E-02  0.1293502E+00
         21   -1    0    0  501  502  0.00000000000E+00  0.00000000000E+00  0.42828513818E+03  0.42828513818E+03  0.00000000000E+00 0.  1.
          2   -1    0    0  502    0 -0.00000000000E+00 -0.00000000000E+00 -0.34691953243E+02  0.34691953243E+02  0.00000000000E+00 0. -1.
         23    2    1    2    0    0 -0.31952609808E+01  0.12670046269E+02  0.10556482514E+03  0.14018116143E+03  0.91302168372E+02 0.  0.
         23    2    1    2    0    0  0.42116449621E+02 -0.13874227022E+02  0.15977573761E+03  0.18876218769E+03  0.90203035803E+02 0.  0.
        -11    1    4    4    0    0  0.87279807061E+01  0.23348800961E+02  0.41111301787E+01  0.25263522020E+02  0.00000000000E+00 0. -1.
         11    1    4    4    0    0  0.33388468915E+02 -0.37223027983E+02  0.15566460743E+03  0.16349866567E+03  0.00000000000E+00 0.  1.
        -11    1    3    3    0    0  0.22223010056E+01 -0.24886662156E+02 -0.30102458180E+01  0.25166369522E+02  0.00000000000E+00 0.  1.
         11    1    3    3    0    0 -0.54175619864E+01  0.37556708425E+02  0.10857507096E+03  0.11501479191E+03  0.00000000000E+00 0. -1.
          2    1    1    2  501    0 -0.38921188640E+02  0.12041807534E+01  0.12825262219E+03  0.13403374230E+03  0.00000000000E+00 0. -1.
<scales pt_clust_5="13000.00000" pt_clust_6="13000.00000" pt_clust_7="13000.00000" pt_clust_8="13000.00000" pt_clust_9="38.93981"></scales>
<clustering>
<clus scale="   38.940">  1  9  2 -1</clus>
<clus scale="   90.203">  5  6 -1 -1</clus>
<clus scale="   91.302">  7  8 -1 -1</clus>
<clus scale="   93.178">  1  5  2 -1</clus>
<clus scale="   38.940">  1  5  2 -1</clus>
</clustering>
</event>
<event>
 9    1  0.1321469E-005  0.3200716E+03  0.7546771E-02  0.1076059E+00
          2   -1    0    0  502    0 -0.00000000000E+00  0.00000000000E+00  0.28614201943E+03  0.28614201943E+03  0.00000000000E+00 0. -1.
         21   -1    0    0  501  502  0.00000000000E+00 -0.00000000000E+00 -0.39844472533E+03  0.39844472533E+03  0.00000000000E+00 0.  1.
         23    2    1    2    0    0  0.31491363402E+03 -0.17199405247E+02  0.29996671918E+02  0.32916207545E+03  0.89338990143E+02 0.  0.
         23    2    1    2    0    0 -0.29398294082E+03  0.21780883201E+02 -0.13605309521E+03  0.33310651741E+03  0.74492488581E+02 0.  0.
        -11    1    3    3    0    0  0.13117892108E+03 -0.37920783558E+02 -0.19039035034E+02  0.13787088168E+03  0.00000000000E+00 0. -1.
         11    1    3    3    0    0  0.18373471294E+03  0.20721378311E+02  0.49035706952E+02  0.19129119377E+03  0.00000000000E+00 0.  1.
        -13    1    4    4    0    0 -0.18655825390E+03  0.42095612612E+02 -0.61954730606E+02  0.20103335879E+03  0.00000000000E+00 0. -1.
         13    1    4    4    0    0 -0.10742468692E+03 -0.20314729411E+02 -0.74098364607E+02  0.13207315862E+03  0.00000000000E+00 0.  1.
          2    1    1    2  501    0 -0.20930693193E+02 -0.45814779539E+01 -0.62462826100E+01  0.22318151900E+02  0.00000000000E+00 0. -1.
<scales pt_clust_5="13000.00000" pt_clust_6="13000.00000" pt_clust_7="13000.00000" pt_clust_8="13000.00000" pt_clust_9="21.42624"></scales>
<clustering>
<clus scale="   21.426">  2  9  1 -1</clus>
<clus scale="   74.492">  7  8 -1 -1</clus>
<clus scale="   89.339">  5  6 -1 -1</clus>
<clus scale="  316.249">  2  7  1 -1</clus>
<clus scale="   21.426">  2  5  1 -1</clus>
</clustering>
</event>
<event>
 9    1  0.1321469E-005  0.1017240E+03  0.7546771E-02  0.1276934E+00
          2   -1    0    0  502    0 -0.00000000000E+00  0.00000000000E+00  0.46733416464E+03  0.46733416464E+03  0.00000000000E+00 0. -1.
         21   -1    0    0  501  502  0.00000000000E+00 -0.00000000000E+00 -0.32757377625E+02  0.32757377625E+02  0.00000000000E+00 0.  1.
         23    2    1    2    0    0  0.45164901001E+02 -0.59531747235E+01  0.30967301811E+03  0.32638669587E+03  0.92496424378E+02 0.  0.
         23    2    1    2    0    0 -0.35393354439E+02 -0.12857984900E+02  0.10032997358E+03  0.14125158361E+03  0.92021133227E+02 0.  0.
        -11    1    4    4    0    0 -0.21085505486E+01 -0.42045374305E+02  0.14231391989E+02  0.44438631885E+02  0.00000000000E+00 0. -1.
         11    1    4    4    0    0 -0.33284803890E+02  0.29187389405E+02  0.86098581592E+02  0.96812951729E+02  0.00000000000E+00 0.  1.
        -13    1    3    3    0    0 -0.32111964612E+01  0.37684024054E+02  0.12193552007E+03  0.12766623871E+03  0.00000000000E+00 0.  1.
         13    1    3    3    0    0  0.48376097463E+02 -0.43637198778E+02  0.18773749804E+03  0.19872045716E+03  0.00000000000E+00 0. -1.
          2    1    1    2  501    0 -0.97715465628E+01  0.18811159623E+02  0.24573795324E+02  0.32453262782E+02  0.00000000000E+00 0. -1.
<scales pt_clust_5="13000.00000" pt_clust_6="13000.00000" pt_clust_7="13000.00000" pt_clust_8="13000.00000" pt_clust_9="21.19771"></scales>
<clustering>
<clus scale="   21.198">  2  9  1 -1</clus>
<clus scale="   92.021">  5  6 -1 -1</clus>
<clus scale="   92.496">  7  8 -1 -1</clus>
<clus scale="  101.292">  2  5  1 -1</clus>
<clus scale="   21.198">  2  5  1 -1</clus>
</clustering>
</event>
<event>
 9    1  0.1321469E-005  0.9419079E+02  0.7546771E-02  0.1294526E+00
         -3   -1    0    0    0  501 -0.00000000000E+00  0.00000000000E+00  0.15534691885E+03  0.15534691885E+03  0.00000000000E+00 0.  1.
         21   -1    0    0  501  502  0.00000000000E+00 -0.00000000000E+00 -0.83969110270E+02  0.83969110270E+02  0.00000000000E+00 0. -1.
         23    2    1    2    0    0  0.42181716207E+01 -0.32483795979E+02  0.75392367147E+02  0.12278555190E+03  0.91210157107E+02 0.  0.
         23    2    1    2    0    0  0.29874464184E+01  0.74081188656E+01  0.48062650337E+01  0.88989281834E+02  0.88499644273E+02 0.  0.
        -13    1    4    4    0    0 -0.22527987086E+02  0.50378724211E+01  0.39564208682E+02  0.45806298359E+02  0.00000000000E+00 0.  1.
         13    1    4    4    0    0  0.25515433505E+02  0.23702464445E+01 -0.34757943648E+02  0.43182983475E+02  0.00000000000E+00 0. -1.
        -13    1    3    3    0    0  0.33993973235E+02  0.17553756796E+02  0.24321324274E+02  0.45334880703E+02  0.00000000000E+00 0. -1.
         13    1    3    3    0    0 -0.29775801614E+02 -0.50037552775E+02  0.51071042873E+02  0.77450671202E+02  0.00000000000E+00 0.  1.
         -3    1    1    2    0  502 -0.72056180391E+01  0.25075677114E+02 -0.88208236004E+01  0.27541195381E+02  0.00000000000E+00 0.  1.
<scales pt_clust_5="13000.00000" pt_clust_6="13000.00000" pt_clust_7="13000.00000" pt_clust_8="13000.00000" pt_clust_9="26.09043"></scales>
<clustering>
<clus scale="   26.090">  2  9  1 -1</clus>
<clus scale="   88.500">  5  6 -1 -1</clus>
<clus scale="   91.210">  7  8 -1 -1</clus>
<clus scale="   91.569">  2  5  1 -1</clus>
<clus scale="   26.090">  2  5  1 -1</clus>
</clustering>
</event>
<event>
 9    1  0.1321469E-005  0.2567119E+03  0.7546771E-02  0.1109604E+00
          3   -1    0    0  502    0 -0.00000000000E+00  0.00000000000E+00  0.11323891172E+04  0.11323891172E+04  0.00000000000E+00 0. -1.
         21   -1    0    0  501  502  0.00000000000E+00 -0.00000000000E+00 -0.72578139501E+02  0.72578139501E+02  0.00000000000E+00 0. -1.
         23    2    1    2    0    0  0.23256162168E+03 -0.47754884352E+02  0.66442390634E+03  0.71151814148E+03  0.91834097608E+02 0.  0.
         23    2    1    2    0    0 -0.23088493194E+03  0.83724627675E+02  0.34769955229E+03  0.43369350295E+03  0.82930155942E+02 0.  0.
        -11    1    4    4    0    0 -0.46227861123E+02  0.18917413677E+02  0.23954387849E+02  0.55395815559E+02  0.00000000000E+00 0.  1.
         11    1    4    4    0    0 -0.18465707082E+03  0.64807213998E+02  0.32374516444E+03  0.37829768739E+03  0.00000000000E+00 0. -1.
        -13    1    3    3    0    0  0.15794246240E+03 -0.16357817986E+01  0.51021983306E+03  0.53410932894E+03  0.00000000000E+00 0. -1.
         13    1    3    3    0    0  0.74619159275E+02 -0.46119102553E+02  0.15420407327E+03  0.17740881254E+03  0.00000000000E+00 0.  1.
          3    1    1    2  501    0 -0.16766897316E+01 -0.35969743323E+02  0.47687519109E+02  0.59755612305E+02  0.00000000000E+00 0. -1.
<scales pt_clust_5="13000.00000" pt_clust_6="13000.00000" pt_clust_7="13000.00000" pt_clust_8="13000.00000" pt_clust_9="36.00880"></scales>
<clustering>
<clus scale="   36.009">  2  9  1 -1</clus>
<clus scale="   82.930">  5  6 -1 -1</clus>
<clus scale="   91.834">  7  8 -1 -1</clus>
<clus scale="  253.663">  2  5  1 -1</clus>
<clus scale="   36.009">  2  5  1 -1</clus>
</clustering>
</event>
<event>
 9    1  0.1321469E-005  0.1329852E+03  0.7546771E-02  0.1224006E+00
          1   -1    0    0  502    0 -0.00000000000E+00  0.00000000000E+00  0.70608312610E+03  0.70608312610E+03  0.00000000000E+00 0. -1.
         21   -1    0    0  501  502  0.00000000000E+00 -0.00000000000E+00 -0.55539068731E+02  0.55539068731E+02  0.00000000000E+00 0. -1.
         23    2    1    2    0    0 -0.62445305415E+02  0.78037948785E+02  0.51899270523E+03  0.53653186101E+03  0.92323735708E+02 0.  0.
         23    2    1    2    0    0  0.86592509087E+02 -0.31528525447E+02  0.10902799914E+03  0.16805073938E+03  0.88665866385E+02 0.  0.
        -11    1    3    3    0    0 -0.26572795325E+02  0.92921323733E+02  0.39165577122E+03  0.40340392782E+03  0.00000000000E+00 0. -1.
         11    1    3    3    0    0 -0.35872510090E+02 -0.14883374948E+02  0.12733693401E+03  0.13312793319E+03  0.00000000000E+00 0.  1.
        -13    1    4    4    0    0  0.22223637749E+02 -0.49624346367E+02  0.22860651490E+02  0.58983685996E+02  0.00000000000E+00 0.  1.
         13    1    4    4    0    0  0.64368871338E+02  0.18095820920E+02  0.86167347651E+02  0.10906705338E+03  0.00000000000E+00 0. -1.
          1    1    1    2  501    0 -0.24147203673E+02 -0.46509423338E+02  0.22523353000E+02  0.57039594448E+02  0.00000000000E+00 0. -1.
<scales pt_clust_5="13000.00000" pt_clust_6="13000.00000" pt_clust_7="13000.00000" pt_clust_8="13000.00000" pt_clust_9="52.40433"></scales>
<clustering>
<clus scale="   52.404">  2  9  1 -1</clus>
<clus scale="   88.666">  7  8 -1 -1</clus>
<clus scale="   92.324">  5  6 -1 -1</clus>
<clus scale="  130.472">  2  7  1 -1</clus>
<clus scale="   52.404">  2  5  1 -1</clus>
</clustering>
</event>
<event>
 9    1  0.1321469E-005  0.9254530E+02  0.7546771E-02  0.1298844E+00
         21   -1    0    0  501  502  0.00000000000E+00  0.00000000000E+00  0.88101162309E+02  0.88101162309E+02  0.00000000000E+00 0.  1.
         -1   -1    0    0    0  501 -0.00000000000E+00 -0.00000000000E+00 -0.27214321178E+03  0.27214321178E+03  0.00000000000E+00 0.  1.
         23    2    1    2    0    0  0.26614468371E+02  0.13858786628E+02 -0.10556785058E+03  0.14291949012E+03  0.91547876468E+02 0.  0.
         23    2    1    2    0    0  0.23265240118E+02  0.44832272321E+02 -0.94438142473E+02  0.13866439062E+03  0.88079773121E+02 0.  0.
        -11    1    3    3    0    0  0.22064652309E+02  0.52740746147E+02 -0.64176249146E+02  0.85947810561E+02  0.00000000000E+00 0.  1.
         11    1    3    3    0    0  0.45498160620E+01 -0.38881959519E+02 -0.41391601437E+02  0.56971679559E+02  0.00000000000E+00 0. -1.
        -11    1    4    4    0    0  0.51194313641E+02  0.32005241086E+01 -0.44561597362E+02  0.67947310934E+02  0.00000000000E+00 0.  1.
         11    1    4    4    0    0 -0.27929073523E+02  0.41631748212E+02 -0.49876545111E+02  0.70717079686E+02  0.00000000000E+00 0. -1.
         -1    1    1    2    0  502 -0.49879708490E+02 -0.58691058950E+02  0.15963943583E+02  0.78660493352E+02  0.00000000000E+00 0.  1.
<scales pt_clust_5="13000.00000" pt_clust_6="13000.00000" pt_clust_7="13000.00000" pt_clust_8="13000.00000" pt_clust_9="77.02354"></scales>
<clustering>
<clus scale="   77.024">  1  9  2 -1</clus>
<clus scale="   88.080">  7  8 -1 -1</clus>
<clus scale="   89.116">  1  7  2 -1</clus>
<clus scale="   91.548">  5  6 -1 -1</clus>
<clus scale="   77.024">  1  5  2 -1</clus>
</clustering>
</event>
<event>
 9    1  0.1321469E-005  0.9395617E+02  0.7546771E-02  0.1294233E+00
         21   -1    0    0  501  502  0.00000000000E+00  0.00000000000E+00  0.50310335403E+03  0.50310335403E+03  0.00000000000E+00 0.  1.
          3   -1    0    0  502    0 -0.00000000000E+00 -0.00000000000E+00 -0.27574125795E+02  0.27574125795E+02  0.00000000000E+00 0. -1.
         23    2    1    2    0    0  0.66156623658E+01  0.61440962771E+01  0.11286750366E+03  0.14532965030E+03  0.91104977722E+02 0.  0.
         23    2    1    2    0    0 -0.22993812169E+02 -0.22952526788E+02  0.22026798708E+03  0.24103309152E+03  0.92322430609E+02 0.  0.
        -11    1    3    3    0    0  0.12247884528E+02 -0.32284086965E+02  0.10888981252E+02  0.36205563927E+02  0.00000000000E+00 0. -1.
         11    1    3    3    0    0 -0.56322221622E+01  0.38428183242E+02  0.10197852241E+03  0.10912408637E+03  0.00000000000E+00 0.  1.
        -11    1    4    4    0    0 -0.41449301998E+02 -0.33163983091E+02  0.21172218310E+03  0.21827546181E+03  0.00000000000E+00 0. -1.
         11    1    4    4    0    0  0.18455489829E+02  0.10211456303E+02  0.85458039792E+01  0.22757629717E+02  0.00000000000E+00 0.  1.
          3    1    1    2  501    0  0.16378149803E+02  0.16808430511E+02  0.14239373750E+03  0.14431473801E+03  0.00000000000E+00 0. -1.
<scales pt_clust_5="13000.00000" pt_clust_6="13000.00000" pt_clust_7="13000.00000" pt_clust_8="13000.00000" pt_clust_9="23.46843"></scales>
<clustering>
<clus scale="   23.468">  1  9  2 -1</clus>
<clus scale="   91.105">  5  6 -1 -1</clus>
<clus scale="   92.322">  7  8 -1 -1</clus>
<clus scale="   92.760">  2  5  1 -1</clus>
<clus scale="   23.468">  1  5  2 -1</clus>
</clustering>
</event>
<event>
 9    1  0.1321469E-005  0.1256206E+03  0.7546771E-02  0.1241025E+00
         21   -1    0    0  501  502  0.00000000000E+00  0.00000000000E+00  0.52725245449E+02  0.52725245449E+02  0.00000000000E+00 0.  1.
          2   -1    0    0  502    0 -0.00000000000E+00 -0.00000000000E+00 -0.34332067572E+03  0.34332067572E+03  0.00000000000E+00 0. -1.
         23    2    1    2    0    0  0.57387289694E+01 -0.58210801301E+02 -0.12769802253E+03  0.16455932843E+03  0.85741222380E+02 0.  0.
         23    2    1    2    0    0 -0.13771488105E+02  0.77650517540E+02 -0.16379832077E+03  0.21043334047E+03  0.10598605633E+03 0.  0.
        -11    1    3    3    0    0 -0.21034500005E+02 -0.67695680065E+02 -0.66982942870E+02  0.97528815873E+02  0.00000000000E+00 0. -1.
         11    1    3    3    0    0  0.26773228974E+02  0.94848787640E+01 -0.60715079661E+02  0.67030512553E+02  0.00000000000E+00 0.  1.
        -11    1    4    4    0    0 -0.22962908832E+02  0.10650379809E+02 -0.13427876327E+03  0.13664374130E+03  0.00000000000E+00 0. -1.
         11    1    4    4    0    0  0.91914207271E+01  0.67000137731E+02 -0.29519557501E+02  0.73789599172E+02  0.00000000000E+00 0.  1.
          2    1    1    2  501    0  0.80327591360E+01 -0.19439716239E+02  0.90091303009E+00  0.21053252268E+02  0.00000000000E+00 0. -1.
<scales pt_clust_5="13000.00000" pt_clust_6="13000.00000" pt_clust_7="13000.00000" pt_clust_8="13000.00000" pt_clust_9="21.03397"></scales>
<clustering>
<clus scale="   21.034">  1  9  2 -1</clus>
<clus scale="   85.741">  5  6 -1 -1</clus>
<clus scale="  105.986">  7  8 -1 -1</clus>
<clus scale="  109.083">  2  5  1 -1</clus>
<clus scale="   21.034">  1  5  2 -1</clus>
</clustering>
</event>
<event>
 9    1  0.1321469E-005  0.9806843E+02  0.7546771E-02  0.1284962E+00
         21   -1    0    0  501  502  0.00000000000E+00  0.00000000000E+00  0.52931709669E+02  0.52931709669E+02  0.00000000000E+00 0.  1.
          2   -1    0    0  502    0 -0.00000000000E+00 -0.00000000000E+00 -0.48364120774E+03  0.48364120774E+03  0.00000000000E+00 0. -1.
         23    2    1    2    0    0  0.19148078561E+02  0.21457628082E+02 -0.35074903218E+03  0.36385260879E+03  0.92394581190E+02 0.  0.
         23    2    1    2    0    0 -0.58965993794E+02 -0.11220986087E+02 -0.71943255764E+02  0.13083318803E+03  0.91315891760E+02 0.  0.
        -11    1    3    3    0    0 -0.20902560281E+02  0.43716682526E+02 -0.13904340584E+03  0.14724514955E+03  0.00000000000E+00 0.  1.
         11    1    3    3    0    0  0.40050638842E+02 -0.22259054443E+02 -0.21170562634E+03  0.21660745924E+03  0.00000000000E+00 0. -1.
        -13    1    4    4    0    0 -0.79171425416E+02  0.56008928026E+01 -0.38276432158E+02  0.88116796704E+02  0.00000000000E+00 0.  1.
         13    1    4    4    0    0  0.20205431622E+02 -0.16821878889E+02 -0.33666823606E+02  0.42716391328E+02  0.00000000000E+00 0. -1.
          2    1    1    2  501    0  0.39817915233E+02 -0.10236641996E+02 -0.80172101278E+01  0.41887120587E+02  0.00000000000E+00 0. -1.
<scales pt_clust_5="13000.00000" pt_clust_6="13000.00000" pt_clust_7="13000.00000" pt_clust_8="13000.00000" pt_clust_9="41.11271"></scales>
<clustering>
<clus scale="   41.113">  1  9  2 -1</clus>
<clus scale="   91.316">  7  8 -1 -1</clus>
<clus scale="   92.395">  5  6 -1 -1</clus>
<clus scale="   97.053">  1  7  2 -1</clus>
<clus scale="   41.113">  1  5  2 -1</clus>
</clustering>
</event>
<event>
 9    1  0.1321469E-005  0.1384594E+03  0.7546771E-02  0.1215466E+00
         -3   -1    0    0    0  501 -0.00000000000E+00  0.00000000000E+00  0.13552285928E+03  0.13552285928E+03  0.00000000000E+00 0.  1.
         21   -1    0    0  501  502  0.00000000000E+00 -0.00000000000E+00 -0.30946944222E+03  0.30946944222E+03  0.00000000000E+00 0.  1.
         23    2    1    2    0    0 -0.63353870024E+02  0.22431962011E+02 -0.41027883812E+02  0.12018924936E+03  0.90803428600E+02 0.  0.
         23    2    1    2    0    0  0.13043346201E+03 -0.58573611622E+02  0.23937302594E+01  0.16951189320E+03  0.91020854751E+02 0.  0.
        -11    1    3    3    0    0 -0.34742135232E+02  0.53154887536E+02 -0.30451519449E+01  0.63574609553E+02  0.00000000000E+00 0.  1.
         11    1    3    3    0    0 -0.28611734793E+02 -0.30722925525E+02 -0.37982731867E+02  0.56614639809E+02  0.00000000000E+00 0. -1.
        -13    1    4    4    0    0  0.71465047008E+02 -0.63493737336E+02  0.35177977189E+02  0.10186362306E+03  0.00000000000E+00 0.  1.
         13    1    4    4    0    0  0.58968415003E+02  0.49201257135E+01 -0.32784246930E+02  0.67648270131E+02  0.00000000000E+00 0. -1.
         -3    1    1    2    0  502 -0.67079591986E+02  0.36141649612E+02 -0.13531242939E+03  0.15529115894E+03  0.00000000000E+00 0.  1.
<scales pt_clust_5="13000.00000" pt_clust_6="13000.00000" pt_clust_7="13000.00000" pt_clust_8="13000.00000" pt_clust_9="76.19639"></scales>
<clustering>
<clus scale="   76.196">  2  9  1 -1</clus>
<clus scale="   90.803">  5  6 -1 -1</clus>
<clus scale="   91.021">  7  8 -1 -1</clus>
<clus scale="  138.317">  1  5  2 -1</clus>
<clus scale="   76.196">  2  5  1 -1</clus>
</clustering>
</event>
<event>
 9    1  0.1321469E-005  0.1037591E+03  0.7546771E-02  0.1273895E+00
         21   -1    0    0  501  502  0.00000000000E+00  0.00000000000E+00  0.77328162591E+02  0.77328162591E+02  0.00000000000E+00 0. -1.
          4   -1    0    0  502    0 -0.00000000000E+00 -0.00000000000E+00 -0.20056808120E+03  0.20056808120E+03  0.00000000000E+00 0.  1.
         23    2    1    2    0    0  0.28649596430E+02 -0.47538442716E+02 -0.73825905998E+02  0.13089390915E+03  0.92748305341E+02 0.  0.
         23    2    1    2    0    0 -0.24397292639E+02  0.84986708972E+01 -0.31909771707E+02  0.10400716839E+03  0.95560463852E+02 0.  0.
        -11    1    3    3    0    0 -0.29131732272E+02  0.96128901822E+00 -0.66840960645E+01  0.29904164291E+02  0.00000000000E+00 0.  1.
         11    1    3    3    0    0  0.57781328702E+02 -0.48499731734E+02 -0.67141809934E+02  0.10098974486E+03  0.00000000000E+00 0. -1.
        -11    1    4    4    0    0  0.92492520477E+01  0.42567998492E+02 -0.35207760635E+02  0.56010441597E+02  0.00000000000E+00 0.  1.
         11    1    4    4    0    0 -0.33646544687E+02 -0.34069327595E+02  0.32979889280E+01  0.47996726795E+02  0.00000000000E+00 0. -1.
          4    1    1    2  501    0 -0.42523037915E+01  0.39039771819E+02 -0.17504240900E+02  0.42995166248E+02  0.00000000000E+00 0.  1.
<scales pt_clust_5="13000.00000" pt_clust_6="13000.00000" pt_clust_7="13000.00000" pt_clust_8="13000.00000" pt_clust_9="39.27067"></scales>
<clustering>
<clus scale="   39.271">  1  9  2 -1</clus>
<clus scale="   92.748">  5  6 -1 -1</clus>
<clus scale="   95.560">  7  8 -1 -1</clus>
<clus scale="  101.175">  2  5  1 -1</clus>
<clus scale="   39.271">  1  5  2 -1</clus>
</clustering>
</event>
<event>
 9    1  0.1321469E-005  0.9935599E+02  0.7546771E-02  0.1282142E+00
          3   -1    0    0  502    0 -0.00000000000E+00  0.00000000000E+00  0.40819754703E+02  0.40819754703E+02  0.00000000000E+00 0. -1.
         21   -1    0    0  501  502  0.00000000000E+00 -0.00000000000E+00 -0.33428802505E+03  0.33428802505E+03  0.00000000000E+00 0.  1.
         23    2    1    2    0    0  0.20035636104E+02 -0.16150283255E+02 -0.72336581543E+02  0.12271842451E+03  0.95733861943E+02 0.  0.
         23    2    1    2    0    0 -0.12514643620E+01  0.23164504228E+02 -0.16331709954E+03  0.19119645421E+03  0.96671860865E+02 0.  0.
        -11    1    3    3    0    0 -0.21725203742E+02 -0.29392494105E+02  0.18115271661E+01  0.36594874204E+02  0.00000000000E+00 0. -1.
         11    1    3    3    0    0  0.41760839847E+02  0.13242210849E+02 -0.74148108709E+02  0.86123550310E+02  0.00000000000E+00 0.  1.
        -13    1    4    4    0    0  0.19942956989E+02  0.33434312126E+02 -0.16306070335E+03  0.16764357350E+03  0.00000000000E+00 0.  1.
         13    1    4    4    0    0 -0.21194421351E+02 -0.10269807898E+02 -0.25639618987E+00  0.23552880709E+02  0.00000000000E+00 0. -1.
          3    1    1    2  501    0 -0.18784171742E+02 -0.70142209722E+01 -0.57814589266E+02  0.61192901025E+02  0.00000000000E+00 0. -1.
<scales pt_clust_5="13000.00000" pt_clust_6="13000.00000" pt_clust_7="13000.00000" pt_clust_8="13000.00000" pt_clust_9="20.05104"></scales>
<clustering>
<clus scale="   20.051">  2  9  1 -1</clus>
<clus scale="   95.734">  5  6 -1 -1</clus>
<clus scale="   96.672">  7  8 -1 -1</clus>
<clus scale="   98.444">  1  5  2 -1</clus>
<clus scale="   20.051">  2  5  1 -1</clus>
</clustering>
</event>
<event>
 9    1  0.1321469E-005  0.2243834E+03  0.7546771E-02  0.1131640E+00
         21   -1    0    0  501  502  0.00000000000E+00  0.00000000000E+00  0.18903544104E+03  0.18903544104E+03  0.00000000000E+00 0.  1.
          1   -1    0    0  502    0 -0.00000000000E+00 -0.00000000000E+00 -0.36420871573E+03  0.36420871573E+03  0.00000000000E+00 0. -1.
         23    2    1    2    0    0  0.77525205580E+02 -0.17922203343E+03 -0.14666131743E+03  0.26460771089E+03  0.10186758005E+03 0.  0.
         23    2    1    2    0    0 -0.55875872010E+02  0.19991183156E+03 -0.70754695509E+02  0.23685604104E+03  0.89485774124E+02 0.  0.
        -11    1    4    4    0    0 -0.65834543609E+01  0.16572677910E+03 -0.56302684063E+02  0.17515335970E+03  0.00000000000E+00 0.  1.
         11    1    4    4    0    0 -0.49292417649E+02  0.34185052455E+02 -0.14452011446E+02  0.61702681335E+02  0.00000000000E+00 0. -1.
        -13    1    3    3    0    0  0.19308773860E+02 -0.14116311943E+03 -0.62929348067E+02  0.15575608458E+03  0.00000000000E+00 0.  1.
         13    1    3    3    0    0  0.58216431720E+02 -0.38058913997E+02 -0.83731969366E+02  0.10885162631E+03  0.00000000000E+00 0. -1.
          1    1    1    2  501    0 -0.21649333570E+02 -0.20689798127E+02  0.42242738246E+02  0.51780404837E+02  0.00000000000E+00 0. -1.
<scales pt_clust_5="13000.00000" pt_clust_6="13000.00000" pt_clust_7="13000.00000" pt_clust_8="13000.00000" pt_clust_9="29.94597"></scales>
<clustering>
<clus scale="   29.946">  1  9  2 -1</clus>
<clus scale="   89.486">  5  6 -1 -1</clus>
<clus scale="  101.868">  7  8 -1 -1</clus>
<clus scale="  219.040">  1  5  2 -1</clus>
<clus scale="   29.946">  1  5  2 -1</clus>
</clustering>
</event>
<event>
 9    1  0.1321469E-005  0.9372844E+02  0.7546771E-02  0.1295331E+00
         21   -1    0    0  501  502  0.00000000000E+00  0.00000000000E+00  0.17260357534E+03  0.17260357534E+03  0.00000000000E+00 0.  1.
          2   -1    0    0  502    0 -0.00000000000E+00 -0.00000000000E+00 -0.14657606222E+03  0.14657606222E+03  0.00000000000E+00 0. -1.
         23    2    1    2    0    0  0.70812483833E+00  0.83569593483E+01 -0.80493408218E+02  0.12092444228E+03  0.89850941925E+02 0.  0.
         23    2    1    2    0    0 -0.20662144832E+02 -0.59945499389E+02  0.67948972100E+02  0.13082125985E+03  0.92069278773E+02 0.  0.
        -11    1    4    4    0    0 -0.54144742510E+02 -0.47742806539E+02  0.28368788109E+02  0.77561697097E+02  0.00000000000E+00 0.  1.
         11    1    4    4    0    0  0.33482597679E+02 -0.12202692849E+02  0.39580183991E+02  0.53259562755E+02  0.00000000000E+00 0. -1.
        -11    1    3    3    0    0  0.25012914978E+02 -0.33442864857E+02 -0.40511079191E+02  0.58182631968E+02  0.00000000000E+00 0.  1.
         11    1    3    3    0    0 -0.24304790139E+02  0.41799824205E+02 -0.39982329027E+02  0.62741810316E+02  0.00000000000E+00 0. -1.
          2    1    1    2  501    0  0.19954019993E+02  0.51588540041E+02  0.38571949238E+02  0.67433935414E+02  0.00000000000E+00 0. -1.
<scales pt_clust_5="13000.00000" pt_clust_6="13000.00000" pt_clust_7="13000.00000" pt_clust_8="13000.00000" pt_clust_9="55.31311"></scales>
<clustering>
<clus scale="   55.313">  1  9  2 -1</clus>
<clus scale="   89.851">  7  8 -1 -1</clus>
<clus scale="   91.550">  2  7  1 -1</clus>
<clus scale="   92.069">  5  6 -1 -1</clus>
<clus scale="   55.313">  1  5  2 -1</clus>
</clustering>
</event>
<event>
 9    1  0.1321469E-005  0.1444317E+03  0.7546771E-02  0.1207606E+00
         -4   -1    0    0    0  501 -0.00000000000E+00  0.00000000000E+00  0.49318281880E+03  0.49318281880E+03  0.00000000000E+00 0.  1.
         21   -1    0    0  501  502  0.00000000000E+00 -0.00000000000E+00 -0.10370565194E+03  0.10370565194E+03  0.00000000000E+00 0. -1.
         23    2    1    2    0    0  0.80283625189E+02 -0.67328375802E+02  0.33840679413E+03  0.36568312194E+03  0.90699595916E+02 0.  0.
         23    2    1    2    0    0 -0.12935827584E+03  0.70692671078E+02  0.54882223931E+02  0.18186804011E+03  0.91284764538E+02 0.  0.
        -11    1    4    4    0    0 -0.24336557903E+02 -0.18119400962E+01 -0.22020023080E+02  0.32869934498E+02  0.00000000000E+00 0.  1.
         11    1    4    4    0    0 -0.10502171793E+03  0.72504611175E+02  0.76902247011E+02  0.14899810561E+03  0.00000000000E+00 0. -1.
        -13    1    3    3    0    0  0.73531333204E+02 -0.76798848206E+01  0.13902332362E+03  0.15745895371E+03  0.00000000000E+00 0.  1.
         13    1    3    3    0    0  0.67522919855E+01 -0.59648490982E+02  0.19938347051E+03  0.20822416823E+03  0.00000000000E+00 0. -1.
         -4    1    1    2    0  502  0.49074650647E+02 -0.33642952761E+01 -0.38118512000E+01  0.49337308687E+02  0.00000000000E+00 0.  1.
<scales pt_clust_5="13000.00000" pt_clust_6="13000.00000" pt_clust_7="13000.00000" pt_clust_8="13000.00000" pt_clust_9="49.18983"></scales>
<clustering>
<clus scale="   49.190">  2  9  1 -1</clus>
<clus scale="   90.700">  7  8 -1 -1</clus>
<clus scale="   91.285">  5  6 -1 -1</clus>
<clus scale="  144.063">  1  7  2 -1</clus>
<clus scale="   49.190">  2  5  1 -1</clus>
</clustering>
</event>
<event>
 9    1  0.1321469E-005  0.2358631E+03  0.7546771E-02  0.1135786E+00
          2   -1    0    0  502    0 -0.00000000000E+00  0.00000000000E+00  0.13142061410E+04  0.13142061410E+04  0.00000000000E+00 0. -1.
         21   -1    0    0  501  502  0.00000000000E+00 -0.00000000000E+00 -0.19804910995E+03  0.19804910995E+03  0.00000000000E+00 0. -1.
         23    2    1    2    0    0  0.13892982291E+03  0.36518728298E+02  0.51920393332E+03  0.54646614804E+03  0.91746462476E+02 0.  0.
         23    2    1    2    0    0 -0.33558152210E+03  0.27000866524E+02  0.66296560666E+03  0.74884606643E+03  0.88898992270E+02 0.  0.
        -11    1    4    4    0    0 -0.30201040684E+03 -0.34759377812E+01  0.55776449871E+03  0.63428984227E+03  0.00000000000E+00 0. -1.
         11    1    4    4    0    0 -0.33571115260E+02  0.30476804305E+02  0.10520110795E+03  0.11455622416E+03  0.00000000000E+00 0.  1.
        -13    1    3    3    0    0  0.12896276227E+03  0.54544646848E+01  0.32773412223E+03  0.35223685229E+03  0.00000000000E+00 0.  1.
         13    1    3    3    0    0  0.99670606377E+01  0.31064263613E+02  0.19146981109E+03  0.19422929575E+03  0.00000000000E+00 0. -1.
          2    1    1    2  501    0  0.19665169920E+03 -0.63519594822E+02 -0.66012508961E+02  0.21694303645E+03  0.00000000000E+00 0. -1.
<scales pt_clust_5="13000.00000" pt_clust_6="13000.00000" pt_clust_7="13000.00000" pt_clust_8="13000.00000" pt_clust_9="218.46821"></scales>
<clustering>
<clus scale="   88.899">  5  6 -1 -1</clus>
<clus scale="   91.746">  7  8 -1 -1</clus>
<clus scale="  170.448">  1  7  2 -1</clus>
<clus scale="  218.468">  2  9  1 -1</clus>
<clus scale="  218.468">  2  5  1 -1</clus>
</clustering>
</event>
<event>
 9    1  0.1321469E-005  0.9242558E+02  0.7546771E-02  0.1299821E+00
         21   -1    0    0  501  502  0.00000000000E+00  0.00000000000E+00  0.36359709837E+02  0.36359709837E+02  0.00000000000E+00 0. -1.
          2   -1    0    0  502    0 -0.00000000000E+00 -0.00000000000E+00 -0.53663195968E+03  0.53663195968E+03  0.00000000000E+00 0. -1.
         23    2    1    2    0    0 -0.91688764119E+01  0.69099175381E+00 -0.30209089358E+03  0.31469049448E+03  0.87673562566E+02 0.  0.
         23    2    1    2    0    0 -0.22347399078E+02 -0.12914657040E+02 -0.20270318648E+03  0.22419632842E+03  0.92245418615E+02 0.  0.
        -11    1    4    4    0    0  0.10161243285E+02  0.31840485938E+02 -0.38799477283E+02  0.51210026824E+02  0.00000000000E+00 0.  1.
         11    1    4    4    0    0 -0.32508642363E+02 -0.44755142977E+02 -0.16390370920E+03  0.17298630160E+03  0.00000000000E+00 0. -1.
        -13    1    3    3    0    0  0.38692363336E+02  0.77150101573E+01 -0.12235901771E+03  0.12856262900E+03  0.00000000000E+00 0.  1.
         13    1    3    3    0    0 -0.47861239748E+02 -0.70240184035E+01 -0.17973187587E+03  0.18612786548E+03  0.00000000000E+00 0. -1.
          2    1    1    2  501    0  0.31516275490E+02  0.12223665286E+02  0.45218302166E+01  0.34104846610E+02  0.00000000000E+00 0. -1.
<scales pt_clust_5="13000.00000" pt_clust_6="13000.00000" pt_clust_7="13000.00000" pt_clust_8="13000.00000" pt_clust_9="33.80375"></scales>
<clustering>
<clus scale="   33.804">  1  9  2 -1</clus>
<clus scale="   87.674">  7  8 -1 -1</clus>
<clus scale="   87.863">  2  7  1 -1</clus>
<clus scale="   92.245">  5  6 -1 -1</clus>
<clus scale="   33.804">  1  5  2 -1</clus>
</clustering>
</event>
<event>
 9    1  0.1321469E-005  0.9642900E+02  0.7546771E-02  0.1289021E+00
         21   -1    0    0  501  502  0.00000000000E+00  0.00000000000E+00  0.79596518471E+02  0.79596518471E+02  0.00000000000E+00 0.  1.
          2   -1    0    0  502    0 -0.00000000000E+00 -0.00000000000E+00 -0.16501485381E+03  0.16501485381E+03  0.00000000000E+00 0. -1.
         23    2    1    2    0    0 -0.20384916114E+02  0.22426364494E+02 -0.78098252417E+02  0.12484335828E+03  0.92563710205E+02 0.  0.
         23    2    1    2    0    0 -0.22828809410E+01 -0.26264755339E+02  0.32837084335E+01  0.94449983692E+02  0.90636459330E+02 0.  0.
        -11    1    4    4    0    0  0.29534081693E+02 -0.33161358147E+02  0.28935991396E+02  0.53002162727E+02  0.00000000000E+00 0.  1.
         11    1    4    4    0    0 -0.31816962634E+02  0.68966028082E+01 -0.25652282963E+02  0.41447820965E+02  0.00000000000E+00 0. -1.
        -11    1    3    3    0    0 -0.65257950970E+01 -0.36132243363E+02 -0.35858185337E+02  0.51321871242E+02  0.00000000000E+00 0.  1.
         11    1    3    3    0    0 -0.13859121017E+02  0.58558607857E+02 -0.42240067080E+02  0.73521487039E+02  0.00000000000E+00 0. -1.
          2    1    1    2  501    0  0.22667797055E+02  0.38383908451E+01 -0.10603791357E+02  0.25318030309E+02  0.00000000000E+00 0. -1.
<scales pt_clust_5="13000.00000" pt_clust_6="13000.00000" pt_clust_7="13000.00000" pt_clust_8="13000.00000" pt_clust_9="22.99049"></scales>
<clustering>
<clus scale="   22.990">  1  9  2 -1</clus>
<clus scale="   90.636">  5  6 -1 -1</clus>
<clus scale="   92.564">  7  8 -1 -1</clus>
<clus scale="   94.581">  1  5  2 -1</clus>
<clus scale="   22.990">  1  5  2 -1</clus>
</clustering>
</event>
<event>
 9    1  0.1321469E-005  0.9620365E+02  0.7546771E-02  0.1288677E+00
         21   -1    0    0  501  502  0.00000000000E+00  0.00000000000E+00  0.18540780637E+03  0.18540780637E+03  0.00000000000E+00 0. -1.
          1   -1    0    0  502    0 -0.00000000000E+00 -0.00000000000E+00 -0.21653600560E+03  0.21653600560E+03  0.00000000000E+00 0. -1.
         23    2    1    2    0    0  0.27235898746E+02  0.15934869507E+01 -0.17189682399E+03  0.19674230904E+03  0.91731590462E+02 0.  0.
         23    2    1    2    0    0 -0.44006622238E+02 -0.37410602882E+02  0.11587929226E+03  0.15847247734E+03  0.91374940160E+02 0.  0.
        -11    1    3    3    0    0 -0.99461650876E+01 -0.26305250447E+02 -0.12626955064E+02  0.30827461705E+02  0.00000000000E+00 0.  1.
         11    1    3    3    0    0  0.37182063833E+02  0.27898737398E+02 -0.15926986893E+03  0.16591484734E+03  0.00000000000E+00 0. -1.
        -13    1    4    4    0    0  0.22343698508E+02 -0.22859556477E+02  0.11569214087E+02  0.33994806955E+02  0.00000000000E+00 0.  1.
         13    1    4    4    0    0 -0.66350320746E+02 -0.14551046406E+02  0.10431007818E+03  0.12447767038E+03  0.00000000000E+00 0. -1.
          1    1    1    2  501    0  0.16770723493E+02  0.35817115931E+02  0.24889332497E+02  0.46729025587E+02  0.00000000000E+00 0. -1.
<scales pt_clust_5="13000.00000" pt_clust_6="13000.00000" pt_clust_7="13000.00000" pt_clust_8="13000.00000" pt_clust_9="39.54899"></scales>
<clustering>
<clus scale="   39.549">  1  9  2 -1</clus>
<clus scale="   91.375">  7  8 -1 -1</clus>
<clus scale="   91.732">  5  6 -1 -1</clus>
<clus scale="   95.864">  1  7  2 -1</clus>
<clus scale="   39.549">  1  5  2 -1</clus>
</clustering>
</event>
<event>
 9    1  0.1321469E-005  0.1081209E+03  0.7546771E-02  0.1264681E+00
         21   -1    0    0  501  502  0.00000000000E+00  0.00000000000E+00  0.15759212639E+03  0.15759212639E+03  0.00000000000E+00 0.  1.
          1   -1    0    0  502    0 -0.00000000000E+00 -0.00000000000E+00 -0.14778396849E+03  0.14778396849E+03  0.00000000000E+00 0. -1.
         23    2    1    2    0    0  0.16994888323E+02 -0.27828904374E+02 -0.16269506360E+02  0.98435072665E+02  0.91441197201E+02 0.  0.
         23    2    1    2    0    0 -0.64460261021E+02  0.65421606571E+02 -0.20962898012E+02  0.13026646735E+03  0.89971092945E+02 0.  0.
        -13    1    4    4    0    0 -0.18212010447E+01  0.44512714679E+02 -0.41729703954E+02  0.61041516474E+02  0.00000000000E+00 0.  1.
         13    1    4    4    0    0 -0.62639059976E+02  0.20908891892E+02  0.20766805942E+02  0.69224950877E+02  0.00000000000E+00 0. -1.
        -13    1    3    3    0    0  0.46536562314E+02 -0.51915230158E+01  0.15684067534E+02  0.49382117387E+02  0.00000000000E+00 0.  1.
         13    1    3    3    0    0 -0.29541673991E+02 -0.22637381358E+02 -0.31953573894E+02  0.49052955278E+02  0.00000000000E+00 0. -1.
          1    1    1    2  501    0  0.47465372698E+02 -0.37592702197E+02  0.47040562276E+02  0.76674554861E+02  0.00000000000E+00 0. -1.
<scales pt_clust_5="13000.00000" pt_clust_6="13000.00000" pt_clust_7="13000.00000" pt_clust_8="13000.00000" pt_clust_9="60.54893"></scales>
<clustering>
<clus scale="   60.549">  1  9  2 -1</clus>
<clus scale="   89.971">  5  6 -1 -1</clus>
<clus scale="   91.441">  7  8 -1 -1</clus>
<clus scale="  106.880">  1  5  2 -1</clus>
<clus scale="   60.549">  1  5  2 -1</clus>
</clustering>
</event>
<event>
 9    1  0.1321469E-005  0.1048682E+03  0.7546771E-02  0.1271795E+00
         21   -1    0    0  501  502  0.00000000000E+00  0.00000000000E+00  0.12800314714E+03  0.12800314714E+03  0.00000000000E+00 0. -1.
         -3   -1    0    0    0  501 -0.00000000000E+00 -0.00000000000E+00 -0.11811288804E+03  0.11811288804E+03  0.00000000000E+00 0.  1.
         23    2    1    2    0    0 -0.33839487687E+02 -0.45307352717E+02 -0.25311016269E+02  0.10803431556E+03  0.88503664651E+02 0.  0.
         23    2    1    2    0    0  0.35155766977E+02  0.22315772672E+02  0.48140285775E+02  0.11166650933E+03  0.91749662283E+02 0.  0.
        -11    1    4    4    0    0  0.31655727360E+02 -0.56172263923E+00  0.71860638613E+02  0.78526122971E+02  0.00000000000E+00 0. -1.
         11    1    4    4    0    0  0.35000396173E+01  0.22877495311E+02 -0.23720352838E+02  0.33140386355E+02  0.00000000000E+00 0.  1.
        -13    1    3    3    0    0 -0.60191131894E+02 -0.26138663930E+02  0.17979729899E+01  0.65646285635E+02  0.00000000000E+00 0.  1.
         13    1    3    3    0    0  0.26351644207E+02 -0.19168688787E+02 -0.27108989259E+02  0.42388029925E+02  0.00000000000E+00 0. -1.
         -3    1    1    2    0  502 -0.13162792902E+01  0.22991580045E+02 -0.12939010406E+02  0.26415210285E+02  0.00000000000E+00 0.  1.
<scales pt_clust_5="13000.00000" pt_clust_6="13000.00000" pt_clust_7="13000.00000" pt_clust_8="13000.00000" pt_clust_9="23.02924"></scales>
<clustering>
<clus scale="   23.029">  1  9  2 -1</clus>
<clus scale="   88.504">  7  8 -1 -1</clus>
<clus scale="   91.750">  5  6 -1 -1</clus>
<clus scale="  102.040">  2  7  1 -1</clus>
<clus scale="   23.029">  1  5  2 -1</clus>
</clustering>
</event>
<event>
 9    1  0.1533965E-005  0.1004281E+03  0.7546771E-02  0.1279908E+00
          2   -1    0    0  502    0 -0.00000000000E+00  0.00000000000E+00  0.75133697656E+03  0.75133697656E+03  0.00000000000E+00 0. -1.
         21   -1    0    0  501  502  0.00000000000E+00 -0.00000000000E+00 -0.55642562616E+02  0.55642562616E+02  0.00000000000E+00 0. -1.
         23    2    1    2    0    0  0.16155441777E+02  0.37240995495E+02  0.52918574582E+03  0.53838767567E+03  0.90420383148E+02 0.  0.
         23    2    1    2    0    0 -0.65625397520E+02 -0.10701559757E+02  0.17837959257E+03  0.21121123073E+03  0.91486003098E+02 0.  0.
        -11    1    3    3    0    0 -0.26765198654E+02 -0.15453091726E+02  0.14830830022E+03  0.15149430952E+03  0.00000000000E+00 0.  1.
         11    1    3    3    0    0  0.42920640431E+02  0.52694087221E+02  0.38087744560E+03  0.38689336615E+03  0.00000000000E+00 0. -1.
        -13    1    4    4    0    0 -0.80419347378E+02  0.12206395402E+02  0.15600576847E+03  0.17593768021E+03  0.00000000000E+00 0. -1.
         13    1    4    4    0    0  0.14793949858E+02 -0.22907955158E+02  0.22373824099E+02  0.35273550526E+02  0.00000000000E+00 0.  1.
          2    1    1    2  501    0  0.49469955743E+02 -0.26539435738E+02 -0.11870924442E+02  0.57380632775E+02  0.00000000000E+00 0. -1.
<scales pt_clust_5="13000.00000" pt_clust_6="13000.00000" pt_clust_7="13000.00000" pt_clust_8="13000.00000" pt_clust_9="56.13927"></scales>
<clustering>
<clus scale="   56.139">  2  9  1 -1</clus>
<clus scale="   90.420">  5  6 -1 -1</clus>
<clus scale="   91.486">  7  8 -1 -1</clus>
<clus scale="   99.458">  1  5  2 -1</clus>
<clus scale="   56.139">  2  5  1 -1</clus>
</clustering>
</event>
<event>
 9    1  0.1321469E-005  0.9265828E+02  0.7546771E-02  0.1297348E+00
         21   -1    0    0  501  502  0.00000000000E+00  0.00000000000E+00  0.30988581890E+02  0.30988581890E+02  0.00000000000E+00 0. -1.
         -2   -1    0    0    0  501 -0.00000000000E+00 -0.00000000000E+00 -0.54194710876E+03  0.54194710876E+03  0.00000000000E+00 0.  1.
         23    2    1    2    0    0  0.65615419538E+01 -0.95731263696E+01 -0.27925700668E+03  0.29344133116E+03  0.89379194829E+02 0.  0.
         23    2    1    2    0    0 -0.29040841075E+02  0.77677514942E+01 -0.23765047081E+03  0.25617123190E+03  0.90786812732E+02 0.  0.
        -11    1    3    3    0    0  0.31605832685E+02  0.29567637769E+02 -0.12122575101E+03  0.12872007058E+03  0.00000000000E+00 0.  1.
         11    1    3    3    0    0 -0.25044290731E+02 -0.39140764138E+02 -0.15803125567E+03  0.16472126058E+03  0.00000000000E+00 0. -1.
        -13    1    4    4    0    0  0.27082332626E+02 -0.94772967270E+01 -0.13408670227E+03  0.13712226522E+03  0.00000000000E+00 0.  1.
         13    1    4    4    0    0 -0.56123173701E+02  0.17245048221E+02 -0.10356376854E+03  0.11904896668E+03  0.00000000000E+00 0. -1.
         -2    1    1    2    0  502  0.22479299121E+02  0.18053748754E+01  0.59489506154E+01  0.23323127596E+02  0.00000000000E+00 0.  1.
<scales pt_clust_5="13000.00000" pt_clust_6="13000.00000" pt_clust_7="13000.00000" pt_clust_8="13000.00000" pt_clust_9="22.55168"></scales>
<clustering>
<clus scale="   22.552">  1  9  2 -1</clus>
<clus scale="   89.379">  5  6 -1 -1</clus>
<clus scale="   90.787">  7  8 -1 -1</clus>
<clus scale="   91.280">  2  5  1 -1</clus>
<clus scale="   22.552">  1  5  2 -1</clus>
</clustering>
</event>
<event>
 9    1  0.1321469E-005  0.1162805E+03  0.7546771E-02  0.1249849E+00
         21   -1    0    0  501  502  0.00000000000E+00  0.00000000000E+00  0.98632605630E+02  0.98632605630E+02  0.00000000000E+00 0. -1.
          1   -1    0    0  502    0 -0.00000000000E+00 -0.00000000000E+00 -0.48969971320E+03  0.48969971320E+03  0.00000000000E+00 0. -1.
         23    2    1    2    0    0  0.14098963737E+02  0.62452915529E+02 -0.20994039145E+03  0.23778552902E+03  0.91475911659E+02 0.  0.
         23    2    1    2    0    0  0.11152421682E+01 -0.80468588176E+02 -0.25005899960E+03  0.27769285218E+03  0.90040987454E+02 0.  0.
        -11    1    4    4    0    0 -0.35731055530E+02 -0.16631422607E+02 -0.45158665323E+02  0.59938448436E+02  0.00000000000E+00 0.  1.
         11    1    4    4    0    0  0.36846297698E+02 -0.63837165569E+02 -0.20490033428E+03  0.21775440375E+03  0.00000000000E+00 0. -1.
        -11    1    3    3    0    0  0.49256777079E+02  0.29414799945E+02 -0.15152868656E+03  0.16202593433E+03  0.00000000000E+00 0. -1.
         11    1    3    3    0    0 -0.35157813342E+02  0.33038115583E+02 -0.58411704893E+02  0.75759594698E+02  0.00000000000E+00 0.  1.
          1    1    1    2  501    0 -0.15214205905E+02  0.18015672647E+02  0.68932283480E+02  0.72853937629E+02  0.00000000000E+00 0. -1.
<scales pt_clust_5="13000.00000" pt_clust_6="13000.00000" pt_clust_7="13000.00000" pt_clust_8="13000.00000" pt_clust_9="23.58043"></scales>
<clustering>
<clus scale="   23.580">  1  9  2 -1</clus>
<clus scale="   90.041">  5  6 -1 -1</clus>
<clus scale="   91.476">  7  8 -1 -1</clus>
<clus scale="  115.155">  1  5  2 -1</clus>
<clus scale="   23.580">  1  5  2 -1</clus>
</clustering>
</event>
<event>
 9    1  0.1321469E-005  0.1045627E+03  0.7546771E-02  0.1271131E+00
          1   -1    0    0  502    0 -0.00000000000E+00  0.00000000000E+00  0.55663357878E+03  0.55663357878E+03  0.00000000000E+00 0. -1.
         21   -1    0    0  501  502  0.00000000000E+00 -0.00000000000E+00 -0.29011777654E+02  0.29011777654E+02  0.00000000000E+00 0.  1.
         23    2    1    2    0    0 -0.25531524909E+02  0.30380015421E+02  0.28482504063E+03  0.30207196465E+03  0.92451954858E+02 0.  0.
         23    2    1    2    0    0  0.38292892422E+02 -0.46584346945E+02  0.23789358397E+03  0.26237258989E+03  0.92787777420E+02 0.  0.
        -11    1    3    3    0    0 -0.47007583926E+01 -0.33184911479E+02  0.10428207407E+03  0.10953577704E+03  0.00000000000E+00 0.  1.
         11    1    3    3    0    0 -0.20830766516E+02  0.63564926901E+02  0.18054296656E+03  0.19253618761E+03  0.00000000000E+00 0. -1.
        -13    1    4    4    0    0  0.91072441348E+01 -0.59987318133E+02  0.75625733665E+02  0.96957061759E+02  0.00000000000E+00 0.  1.
         13    1    4    4    0    0  0.29185648287E+02  0.13402971188E+02  0.16226785031E+03  0.16541552813E+03  0.00000000000E+00 0. -1.
          1    1    1    2  501    0 -0.12761367513E+02  0.16204331524E+02  0.49031765224E+01  0.21200801894E+02  0.00000000000E+00 0. -1.
<scales pt_clust_5="13000.00000" pt_clust_6="13000.00000" pt_clust_7="13000.00000" pt_clust_8="13000.00000" pt_clust_9="20.62602"></scales>
<clustering>
<clus scale="   20.626">  2  9  1 -1</clus>
<clus scale="   92.452">  5  6 -1 -1</clus>
<clus scale="   92.788">  7  8 -1 -1</clus>
<clus scale="  104.265">  1  5  2 -1</clus>
<clus scale="   20.626">  2  5  1 -1</clus>
</clustering>
</event>
<event>
 9    1  0.1321469E-005  0.1131904E+03  0.7546771E-02  0.1255797E+00
         21   -1    0    0  501  502  0.00000000000E+00  0.00000000000E+00  0.85768675892E+02  0.85768675892E+02  0.00000000000E+00 0. -1.
         -3   -1    0    0    0  501 -0.00000000000E+00 -0.00000000000E+00 -0.28468386244E+03  0.28468386244E+03  0.00000000000E+00 0.  1.
         23    2    1    2    0    0 -0.51028594318E+02 -0.52418230901E+02 -0.21298252218E+03  0.24244666299E+03  0.89817822691E+02 0.  0.
         23    2    1    2    0    0  0.29679142413E+02  0.41951287002E+02  0.21180384626E+02  0.10318750559E+03  0.86938430177E+02 0.  0.
        -11    1    4    4    0    0  0.47014716185E+02 -0.37208896657E+01  0.26416671202E+02  0.54056165932E+02  0.00000000000E+00 0. -1.
         11    1    4    4    0    0 -0.17335573773E+02  0.45672176667E+02 -0.52362865755E+01  0.49131339659E+02  0.00000000000E+00 0.  1.
        -13    1    3    3    0    0 -0.27797663124E+02 -0.72062505670E+02 -0.10556533276E+03  0.13080425941E+03  0.00000000000E+00 0. -1.
         13    1    3    3    0    0 -0.23230931194E+02  0.19644274768E+02 -0.10741718941E+03  0.11164240358E+03  0.00000000000E+00 0.  1.
         -3    1    1    2    0  502  0.21349451905E+02  0.10466943899E+02 -0.71130490018E+01  0.24818369756E+02  0.00000000000E+00 0.  1.
<scales pt_clust_5="13000.00000" pt_clust_6="13000.00000" pt_clust_7="13000.00000" pt_clust_8="13000.00000" pt_clust_9="23.77722"></scales>
<clustering>
<clus scale="   23.777">  1  9  2 -1</clus>
<clus scale="   86.938">  5  6 -1 -1</clus>
<clus scale="   89.818">  7  8 -1 -1</clus>
<clus scale="  110.919">  1  5  2 -1</clus>
<clus scale="   23.777">  1  5  2 -1</clus>
</clustering>
</event>
<event>
 9    1  0.1321469E-005  0.9610650E+02  0.7546771E-02  0.1289829E+00
         -2   -1    0    0    0  501 -0.00000000000E+00  0.00000000000E+00  0.16709439151E+03  0.16709439151E+03  0.00000000000E+00 0.  1.
         21   -1    0    0  501  502  0.00000000000E+00 -0.00000000000E+00 -0.12879673954E+03  0.12879673954E+03  0.00000000000E+00 0.  1.
         23    2    1    2    0    0 -0.18014413683E+02 -0.67908916509E+01  0.77556466081E+02  0.12028774013E+03  0.89908284849E+02 0.  0.
         23    2    1    2    0    0  0.31480937221E+02  0.33936729499E+02  0.23739485631E+02  0.10569609846E+03  0.92007342279E+02 0.  0.
        -11    1    4    4    0    0  0.45243681054E+02  0.57053303497E+02  0.28830730957E+02  0.78315267750E+02  0.00000000000E+00 0.  1.
         11    1    4    4    0    0 -0.13762743832E+02 -0.23116573998E+02 -0.50912453256E+01  0.27380830706E+02  0.00000000000E+00 0. -1.
        -13    1    3    3    0    0  0.38800137902E+01  0.31565946425E+02  0.68043457502E+02  0.75109091258E+02  0.00000000000E+00 0.  1.
         13    1    3    3    0    0 -0.21894427474E+02 -0.38356838076E+02  0.95130085796E+01  0.45178648871E+02  0.00000000000E+00 0. -1.
         -2    1    1    2    0  502 -0.13466523538E+02 -0.27145837848E+02 -0.62998299743E+02  0.69907292460E+02  0.00000000000E+00 0.  1.
<scales pt_clust_5="13000.00000" pt_clust_6="13000.00000" pt_clust_7="13000.00000" pt_clust_8="13000.00000" pt_clust_9="30.30254"></scales>
<clustering>
<clus scale="   30.303">  2  9  1 -1</clus>
<clus scale="   89.908">  7  8 -1 -1</clus>
<clus scale="   92.007">  5  6 -1 -1</clus>
<clus scale="   94.099">  1  7  2 -1</clus>
<clus scale="   30.303">  2  5  1 -1</clus>
</clustering>
</event>
<event>
 9    1  0.1321469E-005  0.1457807E+03  0.7546771E-02  0.1210642E+00
          3   -1    0    0  502    0 -0.00000000000E+00  0.00000000000E+00  0.31864552735E+03  0.31864552735E+03  0.00000000000E+00 0. -1.
         21   -1    0    0  501  502  0.00000000000E+00 -0.00000000000E+00 -0.25901096443E+03  0.25901096443E+03  0.00000000000E+00 0.  1.
         23    2    1    2    0    0 -0.86477186748E+02 -0.46904495612E+02  0.27802177230E+03  0.30798573839E+03  0.88773721582E+02 0.  0.
         23    2    1    2    0    0  0.69112711991E+02  0.31392379531E+02 -0.16827517460E+03  0.21441347552E+03  0.10906216413E+03 0.  0.
        -13    1    3    3    0    0 -0.57045205302E+02  0.10339870742E+02  0.19191019499E+03  0.20047591206E+03  0.00000000000E+00 0. -1.
         13    1    3    3    0    0 -0.29431981446E+02 -0.57244366354E+02  0.86111577304E+02  0.10750982633E+03  0.00000000000E+00 0.  1.
        -13    1    4    4    0    0  0.53524081506E+02 -0.14816753191E+02 -0.21169609163E+02  0.59434971426E+02  0.00000000000E+00 0. -1.
         13    1    4    4    0    0  0.15588630485E+02  0.46209132722E+02 -0.14710556544E+03  0.15497850409E+03  0.00000000000E+00 0.  1.
          3    1    1    2  501    0  0.17364474757E+02  0.15512116081E+02 -0.50112034773E+02  0.55257277874E+02  0.00000000000E+00 0. -1.
<scales pt_clust_5="13000.00000" pt_clust_6="13000.00000" pt_clust_7="13000.00000" pt_clust_8="13000.00000" pt_clust_9="23.28413"></scales>
<clustering>
<clus scale="   23.284">  2  9  1 -1</clus>
<clus scale="   88.774">  5  6 -1 -1</clus>
<clus scale="  109.062">  7  8 -1 -1</clus>
<clus scale="  131.294">  1  5  2 -1</clus>
<clus scale="   23.284">  2  5  1 -1</clus>
</clustering>
</event>
<event>
 9    1  0.1321469E-005  0.1790885E+03  0.7546771E-02  0.1168776E+00
         21   -1    0    0  501  502  0.00000000000E+00  0.00000000000E+00  0.11603825860E+03  0.11603825860E+03  0.00000000000E+00 0.  1.
          1   -1    0    0  502    0 -0.00000000000E+00 -0.00000000000E+00 -0.62913129081E+03  0.62913129081E+03  0.00000000000E+00 0. -1.
         23    2    1    2    0    0  0.74714377707E+02  0.12170341576E+03 -0.34940216738E+03  0.38764356786E+03  0.88270615097E+02 0.  0.
         23    2    1    2    0    0 -0.14410910574E+03 -0.12719924915E+03 -0.18857708225E+03  0.28359928623E+03  0.88995257488E+02 0.  0.
        -13    1    4    4    0    0 -0.26237802346E+02  0.91569899753E+01 -0.46176643018E+02  0.53893924498E+02  0.00000000000E+00 0. -1.
         13    1    4    4    0    0 -0.11787130339E+03 -0.13635623913E+03 -0.14240043924E+03  0.22970536173E+03  0.00000000000E+00 0.  1.
        -13    1    3    3    0    0 -0.10700716701E+01  0.82386731992E+02 -0.17880370903E+03  0.19687428736E+03  0.00000000000E+00 0. -1.
         13    1    3    3    0    0  0.75784449377E+02  0.39316683764E+02 -0.17059845836E+03  0.19076928050E+03  0.00000000000E+00 0.  1.
          1    1    1    2  501    0  0.69394728033E+02  0.54958333973E+01  0.24886217428E+02  0.73926695323E+02  0.00000000000E+00 0. -1.
<scales pt_clust_5="13000.00000" pt_clust_6="13000.00000" pt_clust_7="13000.00000" pt_clust_8="13000.00000" pt_clust_9="69.61201"></scales>
<clustering>
<clus scale="   69.612">  1  9  2 -1</clus>
<clus scale="   88.271">  7  8 -1 -1</clus>
<clus scale="   88.995">  5  6 -1 -1</clus>
<clus scale="  178.729">  2  7  1 -1</clus>
<clus scale="   69.612">  1  5  2 -1</clus>
</clustering>
</event>
<event>
 9    1  0.1321469E-005  0.1350387E+03  0.7546771E-02  0.1235223E+00
          2   -1    0    0  502    0 -0.00000000000E+00  0.00000000000E+00  0.35539475207E+03  0.35539475207E+03  0.00000000000E+00 0. -1.
         21   -1    0    0  501  502  0.00000000000E+00 -0.00000000000E+00 -0.10917780843E+03  0.10917780843E+03  0.00000000000E+00 0. -1.
         23    2    1    2    0    0 -0.25476894648E+02  0.14147455774E+02  0.12137558996E+03  0.15652439773E+03  0.94438501592E+02 0.  0.
         23    2    1    2    0    0 -0.19501918738E+02  0.79072055123E+02  0.15751554815E+03  0.19950981080E+03  0.91434686855E+02 0.  0.
        -11    1    4    4    0    0 -0.19287210412E+02  0.35234547361E+02  0.45952849713E+01  0.40430019258E+02  0.00000000000E+00 0.  1.
         11    1    4    4    0    0 -0.21470832642E+00  0.43837507763E+02  0.15292026317E+03  0.15907979154E+03  0.00000000000E+00 0. -1.
        -11    1    3    3    0    0 -0.62077280957E+01 -0.38547167127E+02  0.71443729708E+02  0.81416377322E+02  0.00000000000E+00 0. -1.
         11    1    3    3    0    0 -0.19269166552E+02  0.52694622901E+02  0.49931860247E+02  0.75108020411E+02  0.00000000000E+00 0.  1.
          2    1    1    2  501    0  0.44978813386E+02 -0.93219510898E+02 -0.32674194458E+02  0.10853835197E+03  0.00000000000E+00 0. -1.
<scales pt_clust_5="13000.00000" pt_clust_6="13000.00000" pt_clust_7="13000.00000" pt_clust_8="13000.00000" pt_clust_9="99.37383"></scales>
<clustering>
<clus scale="   91.435">  5  6 -1 -1</clus>
<clus scale="   94.439">  7  8 -1 -1</clus>
<clus scale="   98.832">  1  7  2 -1</clus>
<clus scale="   99.374">  2  9  1 -1</clus>
<clus scale="   99.374">  2  5  1 -1</clus>
</clustering>
</event>
<event>
 9    1  0.1321469E-005  0.1038323E+03  0.7546771E-02  0.1275667E+00
         21   -1    0    0  501  502  0.00000000000E+00  0.00000000000E+00  0.60730600182E+02  0.60730600182E+02  0.00000000000E+00 0.  1.
          4   -1    0    0  502    0 -0.00000000000E+00 -0.00000000000E+00 -0.46200724518E+03  0.46200724518E+03  0.00000000000E+00 0. -1.
         23    2    1    2    0    0 -0.37008635821E+02 -0.25331413114E+01 -0.16075973075E+03  0.19285225993E+03  0.99861139577E+02 0.  0.
         23    2    1    2    0    0 -0.37584402116E+02 -0.60385392290E+02 -0.18403090016E+03  0.21713128189E+03  0.90662221896E+02 0.  0.
        -11    1    3    3    0    0  0.27307171491E+02  0.75771896919E+00 -0.10309558069E+02  0.29198334549E+02  0.00000000000E+00 0.  1.
         11    1    3    3    0    0 -0.64315807312E+02 -0.32908602805E+01 -0.15045017269E+03  0.16365392538E+03  0.00000000000E+00 0. -1.
        -13    1    4    4    0    0 -0.19014095502E+02  0.82007478877E+01 -0.11906787866E+03  0.12085506949E+03  0.00000000000E+00 0. -1.
         13    1    4    4    0    0 -0.18570306614E+02 -0.68586140178E+02 -0.64963021504E+02  0.96276212405E+02  0.00000000000E+00 0.  1.
          4    1    1    2  501    0  0.74593037938E+02  0.62918533601E+02 -0.56486014088E+02  0.11275430354E+03  0.00000000000E+00 0. -1.
<scales pt_clust_5="13000.00000" pt_clust_6="13000.00000" pt_clust_7="13000.00000" pt_clust_8="13000.00000" pt_clust_9="97.58516"></scales>
<clustering>
<clus scale="   90.662">  7  8 -1 -1</clus>
<clus scale="   97.585">  1  9  2 -1</clus>
<clus scale="   97.585">  1  7  2 -1</clus>
<clus scale="   99.861">  5  6 -1 -1</clus>
<clus scale="   97.585">  1  5  2 -1</clus>
</clustering>
</event>
<event>
 9    1  0.1321469E-005  0.9257471E+02  0.7546771E-02  0.1297005E+00
         -1   -1    0    0    0  501 -0.00000000000E+00  0.00000000000E+00  0.35695321200E+03  0.35695321200E+03  0.00000000000E+00 0.  1.
         21   -1    0    0  501  502  0.00000000000E+00 -0.00000000000E+00 -0.12010352353E+03  0.12010352353E+03  0.00000000000E+00 0.  1.
         23    2    1    2    0    0 -0.48996699821E+01  0.29341652311E+02  0.26798169646E+03  0.28416284210E+03  0.89718403190E+02 0.  0.
         23    2    1    2    0    0 -0.13001705713E+01 -0.13079995121E+01  0.53130273564E+02  0.10387448092E+03  0.89239456019E+02 0.  0.
        -11    1    4    4    0    0  0.28523734464E+02  0.88770524936E+01 -0.11467900414E+02  0.31998722297E+02  0.00000000000E+00 0. -1.
         11    1    4    4    0    0 -0.29823905036E+02 -0.10185052006E+02  0.64598173978E+02  0.71875758620E+02  0.00000000000E+00 0.  1.
        -11    1    3    3    0    0  0.28589902342E+02  0.76259022465E+01  0.27513401928E+02  0.40404507009E+02  0.00000000000E+00 0. -1.
         11    1    3    3    0    0 -0.33489572324E+02  0.21715750064E+02  0.24046829453E+03  0.24375833509E+03  0.00000000000E+00 0.  1.
         -1    1    1    2    0  502  0.61998405534E+01 -0.28033652798E+02 -0.84262281549E+02  0.89019412512E+02  0.00000000000E+00 0.  1.
<scales pt_clust_5="13000.00000" pt_clust_6="13000.00000" pt_clust_7="13000.00000" pt_clust_8="13000.00000" pt_clust_9="28.71104"></scales>
<clustering>
<clus scale="   28.711">  2  9  1 -1</clus>
<clus scale="   89.239">  5  6 -1 -1</clus>
<clus scale="   89.718">  7  8 -1 -1</clus>
<clus scale="   92.111">  2  5  1 -1</clus>
<clus scale="   28.711">  2  5  1 -1</clus>
</clustering>
</event>
<event>
 9    1  0.1321469E-005  0.1224629E+03  0.7546771E-02  0.1239340E+00
          2   -1    0    0  502    0 -0.00000000000E+00  0.00000000000E+00  0.36893901299E+03  0.36893901299E+03  0.00000000000E+00 0. -1.
         21   -1    0    0  501  502  0.00000000000E+00 -0.00000000000E+00 -0.20213721465E+03  0.20213721465E+03  0.00000000000E+00 0.  1.
         23    2    1    2    0    0  0.94055447170E+02 -0.61531444198E+01  0.27825439911E+03  0.30836776772E+03  0.93706356317E+02 0.  0.
         23    2    1    2    0    0 -0.38213238965E+02  0.21786092057E+02  0.32273414620E+02  0.10772488411E+03  0.92888061271E+02 0.  0.
        -11    1    4    4    0    0  0.26940085929E+02 -0.11339903372E+02  0.46951463015E+01  0.29604155741E+02  0.00000000000E+00 0.  1.
         11    1    4    4    0    0 -0.65153324894E+02  0.33125995430E+02  0.27578268319E+02  0.78120728372E+02  0.00000000000E+00 0. -1.
        -13    1    3    3    0    0  0.54174600422E+02  0.24830383197E+02  0.23318435848E+03  0.24067899846E+03  0.00000000000E+00 0.  1.
         13    1    3    3    0    0  0.39880846748E+02 -0.30983527617E+02  0.45070040627E+02  0.67688769253E+02  0.00000000000E+00 0. -1.
          2    1    1    2  501    0 -0.55842208205E+02 -0.15632947637E+02 -0.14372601539E+03  0.15498357581E+03  0.00000000000E+00 0. -1.
<scales pt_clust_5="13000.00000" pt_clust_6="13000.00000" pt_clust_7="13000.00000" pt_clust_8="13000.00000" pt_clust_9="57.98915"></scales>
<clustering>
<clus scale="   57.989">  2  9  1 -1</clus>
<clus scale="   92.888">  5  6 -1 -1</clus>
<clus scale="   93.706">  7  8 -1 -1</clus>
<clus scale="  121.838">  2  5  1 -1</clus>
<clus scale="   57.989">  2  5  1 -1</clus>
</clustering>
</event>
<event>
 9    1  0.1321469E-005  0.9211517E+02  0.7546771E-02  0.1298601E+00
          2   -1    0    0  502    0 -0.00000000000E+00  0.00000000000E+00  0.19610100020E+03  0.19610100020E+03  0.00000000000E+00 0. -1.
         21   -1    0    0  501  502  0.00000000000E+00 -0.00000000000E+00 -0.99798262404E+02  0.99798262404E+02  0.00000000000E+00 0.  1.
         23    2    1    2    0    0 -0.35580851851E+01  0.18411707653E+02  0.10984073306E+03  0.14284600847E+03  0.89377539394E+02 0.  0.
         23    2    1    2    0    0  0.18268052846E+02 -0.36144742517E+01  0.35939544869E+02  0.99356250084E+02  0.90737133338E+02 0.  0.
        -13    1    4    4    0    0 -0.22657575733E+02  0.14368787232E+02  0.46260668334E+02  0.53477819882E+02  0.00000000000E+00 0.  1.
         13    1    4    4    0    0  0.40925628580E+02 -0.17983261483E+02 -0.10321123465E+02  0.45878430202E+02  0.00000000000E+00 0. -1.
        -13    1    3    3    0    0 -0.18348879756E+02 -0.27247955892E+02  0.79614924795E+02  0.86125888899E+02  0.00000000000E+00 0. -1.
         13    1    3    3    0    0  0.14790794571E+02  0.45659663545E+02  0.30225808270E+02  0.56720119575E+02  0.00000000000E+00 0.  1.
          2    1    1    2  501    0 -0.14709967661E+02 -0.14797233401E+02 -0.49477540140E+02  0.53697004043E+02  0.00000000000E+00 0. -1.
<scales pt_clust_5="13000.00000" pt_clust_6="13000.00000" pt_clust_7="13000.00000" pt_clust_8="13000.00000" pt_clust_9="20.86483"></scales>
<clustering>
<clus scale="   20.865">  2  9  1 -1</clus>
<clus scale="   89.378">  7  8 -1 -1</clus>
<clus scale="   90.737">  5  6 -1 -1</clus>
<clus scale="   90.776">  1  7  2 -1</clus>
<clus scale="   20.865">  2  5  1 -1</clus>
</clustering>
</event>
<event>
 9    1  0.1321469E-005  0.1047811E+03  0.7546771E-02  0.1270775E+00
          1   -1    0    0  502    0 -0.00000000000E+00  0.00000000000E+00  0.28557300280E+03  0.28557300280E+03  0.00000000000E+00 0. -1.
         21   -1    0    0  501  502  0.00000000000E+00 -0.00000000000E+00 -0.25502124800E+03  0.25502124800E+03  0.00000000000E+00 0. -1.
         23    2    1    2    0    0 -0.51602612306E+02 -0.77538079632E+01  0.24911174328E+03  0.27028696780E+03  0.90969407969E+02 0.  0.
         23    2    1    2    0    0  0.40659497855E+02  0.52197933256E+02 -0.13933441217E+03  0.17881015754E+03  0.90449848101E+02 0.  0.
        -11    1    4    4    0    0  0.32104599433E+02  0.78114113493E+02 -0.11091729832E+03  0.13941006814E+03  0.00000000000E+00 0. -1.
         11    1    4    4    0    0  0.85548984218E+01 -0.25916180237E+02 -0.28417113856E+02  0.39400089404E+02  0.00000000000E+00 0.  1.
        -13    1    3    3    0    0 -0.31150767942E+02 -0.37876131909E+02  0.58999634390E+02  0.76719805591E+02  0.00000000000E+00 0.  1.
         13    1    3    3    0    0 -0.20451844364E+02  0.30122323946E+02  0.19011210889E+03  0.19356716221E+03  0.00000000000E+00 0. -1.
          1    1    1    2  501    0  0.10943114452E+02 -0.44444125293E+02 -0.79225576311E+02  0.91497125467E+02  0.00000000000E+00 0. -1.
<scales pt_clust_5="13000.00000" pt_clust_6="13000.00000" pt_clust_7="13000.00000" pt_clust_8="13000.00000" pt_clust_9="45.77152"></scales>
<clustering>
<clus scale="   45.772">  2  9  1 -1</clus>
<clus scale="   90.450">  5  6 -1 -1</clus>
<clus scale="   90.969">  7  8 -1 -1</clus>
<clus scale="  104.330">  2  5  1 -1</clus>
<clus scale="   45.772">  2  5  1 -1</clus>
</clustering>
</event>
<event>
 9    1  0.1321469E-005  0.8983762E+02  0.7546771E-02  0.1308594E+00
         21   -1    0    0  501  502  0.00000000000E+00  0.00000000000E+00  0.83388491433E+02  0.83388491433E+02  0.00000000000E+00 0.  1.
          1   -1    0    0  502    0 -0.00000000000E+00 -0.00000000000E+00 -0.13436944188E+03  0.13436944188E+03  0.00000000000E+00 0. -1.
         23    2    1    2    0    0  0.10659528288E+02 -0.23615673926E+02 -0.46296851457E+02  0.10356106699E+03  0.88939139541E+02 0.  0.
         23    2    1    2    0    0 -0.37323936424E+01 -0.51240326242E+01 -0.16426174643E+02  0.82387555307E+02  0.80484182194E+02 0.  0.
        -13    1    3    3    0    0 -0.31166576912E+02 -0.12044086666E+02 -0.49857213584E+02  0.60017974694E+02  0.00000000000E+00 0. -1.
         13    1    3    3    0    0  0.41826105200E+02 -0.11571587261E+02  0.35603621272E+01  0.43543092293E+02  0.00000000000E+00 0.  1.
        -13    1    4    4    0    0  0.35892378808E+02  0.10630158336E+02 -0.12926339010E+02  0.39602441377E+02  0.00000000000E+00 0.  1.
         13    1    4    4    0    0 -0.39624772451E+02 -0.15754190961E+02 -0.34998356327E+01  0.42785113930E+02  0.00000000000E+00 0. -1.
          1    1    1    2  501    0 -0.69271346456E+01  0.28739706551E+02  0.11742075651E+02  0.31809311021E+02  0.00000000000E+00 0. -1.
<scales pt_clust_5="13000.00000" pt_clust_6="13000.00000" pt_clust_7="13000.00000" pt_clust_8="13000.00000" pt_clust_9="29.56275"></scales>
<clustering>
<clus scale="   29.563">  1  9  2 -1</clus>
<clus scale="   80.484">  7  8 -1 -1</clus>
<clus scale="   81.476">  1  7  2 -1</clus>
<clus scale="   88.939">  5  6 -1 -1</clus>
<clus scale="   29.563">  1  5  2 -1</clus>
</clustering>
</event>
<event>
 9    1  0.1321469E-005  0.1008459E+03  0.7546771E-02  0.1282236E+00
         21   -1    0    0  501  502  0.00000000000E+00  0.00000000000E+00  0.43213155946E+03  0.43213155946E+03  0.00000000000E+00 0.  1.
         -1   -1    0    0    0  501 -0.00000000000E+00 -0.00000000000E+00 -0.18423283300E+03  0.18423283300E+03  0.00000000000E+00 0.  1.
         23    2    1    2    0    0  0.48769248527E+01  0.51650101882E+02 -0.86659935808E+02  0.13892398034E+03  0.95385588102E+02 0.  0.
         23    2    1    2    0    0 -0.46947723950E+02  0.15669916221E+02 -0.29153718125E+02  0.10516546989E+03  0.88092007114E+02 0.  0.
        -11    1    4    4    0    0 -0.57552989031E+02 -0.18840336637E+02 -0.30893114420E+01  0.60637023972E+02  0.00000000000E+00 0.  1.
         11    1    4    4    0    0  0.10605265081E+02  0.34510252858E+02 -0.26064406683E+02  0.44528445914E+02  0.00000000000E+00 0. -1.
        -13    1    3    3    0    0  0.20059228958E+02 -0.36858640914E+01  0.12814074782E+02  0.24086485278E+02  0.00000000000E+00 0. -1.
         13    1    3    3    0    0 -0.15182304106E+02  0.55335965973E+02 -0.99474010590E+02  0.11483749506E+03  0.00000000000E+00 0.  1.
         -1    1    1    2    0  502  0.42070799097E+02 -0.67320018103E+02  0.36371238039E+03  0.37227494224E+03  0.00000000000E+00 0.  1.
<scales pt_clust_5="13000.00000" pt_clust_6="13000.00000" pt_clust_7="13000.00000" pt_clust_8="13000.00000" pt_clust_9="79.38474"></scales>
<clustering>
<clus scale="   79.385">  1  9  2 -1</clus>
<clus scale="   88.092">  5  6 -1 -1</clus>
<clus scale="   93.977">  1  5  2 -1</clus>
<clus scale="   95.386">  7  8 -1 -1</clus>
<clus scale="   79.385">  1  5  2 -1</clus>
</clustering>
</event>
<event>
 9    1  0.1321469E-005  0.1027287E+03  0.7546771E-02  0.1276042E+00
         -1   -1    0    0    0  501 -0.00000000000E+00  0.00000000000E+00  0.22849077779E+03  0.22849077779E+03  0.00000000000E+00 0.  1.
         21   -1    0    0  501  502  0.00000000000E+00 -0.00000000000E+00 -0.17453070233E+03  0.17453070233E+03  0.00000000000E+00 0.  1.
         23    2    1    2    0    0  0.45011992664E+02 -0.17170127980E+02  0.18275509767E+03  0.21007384928E+03  0.91709888513E+02 0.  0.
         23    2    1    2    0    0 -0.24159073990E+02  0.33312451967E+02 -0.49916118036E+02  0.10977732145E+03  0.88690817749E+02 0.  0.
        -13    1    3    3    0    0  0.12060175998E+02  0.37638225675E+02  0.64966759775E+02  0.76044485354E+02  0.00000000000E+00 0. -1.
         13    1    3    3    0    0  0.32951816666E+02 -0.54808353655E+02  0.11778833789E+03  0.13402936393E+03  0.00000000000E+00 0.  1.
        -13    1    4    4    0    0 -0.39262928407E+02  0.21315143302E+01  0.99935068886E+01  0.40570815624E+02  0.00000000000E+00 0.  1.
         13    1    4    4    0    0  0.15103854417E+02  0.31180937637E+02 -0.59909624925E+02  0.69206505827E+02  0.00000000000E+00 0. -1.
         -1    1    1    2    0  502 -0.20852918674E+02 -0.16142323988E+02 -0.78878904171E+02  0.83170309391E+02  0.00000000000E+00 0.  1.
<scales pt_clust_5="13000.00000" pt_clust_6="13000.00000" pt_clust_7="13000.00000" pt_clust_8="13000.00000" pt_clust_9="26.37080"></scales>
<clustering>
<clus scale="   26.371">  2  9  1 -1</clus>
<clus scale="   88.691">  7  8 -1 -1</clus>
<clus scale="   91.710">  5  6 -1 -1</clus>
<clus scale="  100.043">  2  7  1 -1</clus>
<clus scale="   26.371">  2  5  1 -1</clus>
</clustering>
</event>
<event>
 9    1  0.1321469E-005  0.1526730E+03  0.7546771E-02  0.1219927E+00
         -4   -1    0    0    0  501 -0.00000000000E+00  0.00000000000E+00  0.14005590479E+03  0.14005590479E+03  0.00000000000E+00 0. -1.
         21   -1    0    0  501  502  0.00000000000E+00 -0.00000000000E+00 -0.67647613911E+03  0.67647613911E+03  0.00000000000E+00 0. -1.
         23    2    1    2    0    0 -0.58885352146E+01 -0.25567719796E+02 -0.90072133048E+01  0.94341132526E+02  0.90170595275E+02 0.  0.
         23    2    1    2    0    0 -0.33130776892E+01 -0.98143213283E+02  0.41081392414E+02  0.14031896434E+03  0.91425730265E+02 0.  0.
        -11    1    4    4    0    0 -0.31905780122E+02 -0.35694870960E+01  0.23924845006E+02  0.40038959176E+02  0.00000000000E+00 0.  1.
         11    1    4    4    0    0  0.28592702433E+02 -0.94573726187E+02  0.17156547407E+02  0.10028000517E+03  0.00000000000E+00 0. -1.
        -13    1    3    3    0    0  0.84331492397E+01  0.19287059178E+02  0.27591530208E+02  0.34704483818E+02  0.00000000000E+00 0.  1.
         13    1    3    3    0    0 -0.14321684454E+02 -0.44854778974E+02 -0.36598743513E+02  0.59636648708E+02  0.00000000000E+00 0. -1.
         -4    1    1    2    0  502  0.92016129038E+01  0.12371093308E+03 -0.56849441342E+03  0.58187194703E+03  0.00000000000E+00 0. -1.
<scales pt_clust_5="13000.00000" pt_clust_6="13000.00000" pt_clust_7="13000.00000" pt_clust_8="13000.00000" pt_clust_9="122.27180"></scales>
<clustering>
<clus scale="   90.171">  7  8 -1 -1</clus>
<clus scale="   91.426">  5  6 -1 -1</clus>
<clus scale="   93.910">  1  7  2 -1</clus>
<clus scale="  122.272">  2  9  1 -1</clus>
<clus scale="  122.272">  2  5  1 -1</clus>
</clustering>
</event>
<event>
 9    1  0.1321469E-005  0.1789775E+03  0.7546771E-02  0.1169004E+00
          1   -1    0    0  502    0 -0.00000000000E+00  0.00000000000E+00  0.63639880360E+03  0.63639880360E+03  0.00000000000E+00 0. -1.
         21   -1    0    0  501  502  0.00000000000E+00 -0.00000000000E+00 -0.41006126132E+03  0.41006126132E+03  0.00000000000E+00 0. -1.
         23    2    1    2    0    0  0.15389488425E+03  0.41319797319E+02  0.57433023152E+03  0.60271136578E+03  0.89525496651E+02 0.  0.
         23    2    1    2    0    0 -0.11090162269E+03 -0.14493285801E+02 -0.68590601182E+02  0.15978812253E+03  0.91204979482E+02 0.  0.
        -11    1    3    3    0    0  0.18234579206E+02 -0.24134749065E+02  0.13259600918E+03  0.13600252807E+03  0.00000000000E+00 0.  1.
         11    1    3    3    0    0  0.13566030504E+03  0.65454546384E+02  0.44173422234E+03  0.46670883771E+03  0.00000000000E+00 0. -1.
        -13    1    4    4    0    0 -0.79496640636E+02  0.23787251351E+02 -0.72404592270E+02  0.11012708196E+03  0.00000000000E+00 0. -1.
         13    1    4    4    0    0 -0.31404982052E+02 -0.38280537152E+02  0.38139910873E+01  0.49661040569E+02  0.00000000000E+00 0.  1.
          1    1    1    2  501    0 -0.42993261560E+02 -0.26826511518E+02 -0.27940208805E+03  0.28396057661E+03  0.00000000000E+00 0. -1.
<scales pt_clust_5="13000.00000" pt_clust_6="13000.00000" pt_clust_7="13000.00000" pt_clust_8="13000.00000" pt_clust_9="50.67625"></scales>
<clustering>
<clus scale="   50.676">  2  9  1 -1</clus>
<clus scale="   89.525">  5  6 -1 -1</clus>
<clus scale="   91.205">  7  8 -1 -1</clus>
<clus scale="  178.127">  1  5  2 -1</clus>
<clus scale="   50.676">  2  5  1 -1</clus>
</clustering>
</event>
<event>
 9    1  0.1321469E-005  0.1327729E+03  0.7546771E-02  0.1223859E+00
         21   -1    0    0  501  502  0.00000000000E+00  0.00000000000E+00  0.34248816330E+02  0.34248816330E+02  0.00000000000E+00 0. -1.
          2   -1    0    0  502    0 -0.00000000000E+00 -0.00000000000E+00 -0.86774871405E+03  0.86774871405E+03  0.00000000000E+00 0. -1.
         23    2    1    2    0    0  0.77631970599E+01 -0.93661272326E+02 -0.44976862290E+03  0.46847522674E+03  0.91348359388E+02 0.  0.
         23    2    1    2    0    0  0.19551265616E+02  0.95511878575E+02 -0.38309664332E+03  0.40613786697E+03  0.93167365145E+02 0.  0.
        -13    1    4    4    0    0  0.46448501047E+02  0.92441075994E+02 -0.33860954411E+03  0.35406106697E+03  0.00000000000E+00 0. -1.
         13    1    4    4    0    0 -0.26897235431E+02  0.30708025813E+01 -0.44487099210E+02  0.52076800002E+02  0.00000000000E+00 0.  1.
        -13    1    3    3    0    0 -0.36884251780E+02 -0.27838557973E+02 -0.10616286609E+03  0.11578422810E+03  0.00000000000E+00 0.  1.
         13    1    3    3    0    0  0.44647448839E+02 -0.65822714353E+02 -0.34360575681E+03  0.35269099865E+03  0.00000000000E+00 0. -1.
          2    1    1    2  501    0 -0.27314462676E+02 -0.18506062491E+01 -0.63463150500E+00  0.27384436673E+02  0.00000000000E+00 0. -1.
<scales pt_clust_5="13000.00000" pt_clust_6="13000.00000" pt_clust_7="13000.00000" pt_clust_8="13000.00000" pt_clust_9="27.37708"></scales>
<clustering>
<clus scale="   27.377">  1  9  2 -1</clus>
<clus scale="   91.348">  7  8 -1 -1</clus>
<clus scale="   93.167">  5  6 -1 -1</clus>
<clus scale="  131.503">  2  7  1 -1</clus>
<clus scale="   27.377">  1  5  2 -1</clus>
</clustering>
</event>
<event>
 9    1  0.1321469E-005  0.1178441E+03  0.7546771E-02  0.1247753E+00
         21   -1    0    0  501  502  0.00000000000E+00  0.00000000000E+00  0.67315485011E+02  0.67315485011E+02  0.00000000000E+00 0.  1.
          3   -1    0    0  502    0 -0.00000000000E+00 -0.00000000000E+00 -0.33272546335E+03  0.33272546335E+03  0.00000000000E+00 0. -1.
         23    2    1    2    0    0  0.41921742938E+02 -0.45059367181E+02 -0.56464586541E+02  0.12231506542E+03  0.89358528371E+02 0.  0.
         23    2    1    2    0    0 -0.62190688734E+02  0.67669229440E+02 -0.89507422886E+02  0.15448845173E+03  0.86071462096E+02 0.  0.
        -11    1    4    4    0    0 -0.79658802559E+02  0.31938483621E+02 -0.55941937973E+02  0.10244555620E+03  0.00000000000E+00 0. -1.
         11    1    4    4    0    0  0.17468113825E+02  0.35730745819E+02 -0.33565484913E+02  0.52042895527E+02  0.00000000000E+00 0.  1.
        -13    1    3    3    0    0  0.64074208071E+02 -0.25536244742E+02 -0.61439672399E+02  0.92371192912E+02  0.00000000000E+00 0.  1.
         13    1    3    3    0    0 -0.22152465133E+02 -0.19523122439E+02  0.49750858581E+01  0.29943872504E+02  0.00000000000E+00 0. -1.
          3    1    1    2  501    0  0.20268945796E+02 -0.22609862259E+02 -0.11943796892E+03  0.12323743122E+03  0.00000000000E+00 0. -1.
<scales pt_clust_5="13000.00000" pt_clust_6="13000.00000" pt_clust_7="13000.00000" pt_clust_8="13000.00000" pt_clust_9="30.36506"></scales>
<clustering>
<clus scale="   30.365">  1  9  2 -1</clus>
<clus scale="   86.071">  5  6 -1 -1</clus>
<clus scale="   89.359">  7  8 -1 -1</clus>
<clus scale="  115.371">  1  5  2 -1</clus>
<clus scale="   30.365">  1  5  2 -1</clus>
</clustering>
</event>
<event>
 9    1  0.1321469E-005  0.9778348E+02  0.7546771E-02  0.1285315E+00
         -3   -1    0    0    0  501 -0.00000000000E+00  0.00000000000E+00  0.33779902884E+03  0.33779902884E+03  0.00000000000E+00 0.  1.
         21   -1    0    0  501  502  0.00000000000E+00 -0.00000000000E+00 -0.41388667736E+02  0.41388667736E+02  0.00000000000E+00 0.  1.
         23    2    1    2    0    0 -0.32226170414E+01  0.29895367687E+02  0.18343006029E+03  0.20712310903E+03  0.91374378296E+02 0.  0.
         23    2    1    2    0    0 -0.18433524493E+02 -0.38066750933E+02  0.10871589465E+03  0.14852854858E+03  0.91938629756E+02 0.  0.
        -11    1    3    3    0    0 -0.43083819209E+02  0.70666733477E+01  0.52006555077E+02  0.67903130419E+02  0.00000000000E+00 0. -1.
         11    1    3    3    0    0  0.39861202167E+02  0.22828694339E+02  0.13142350521E+03  0.13921997861E+03  0.00000000000E+00 0.  1.
        -13    1    4    4    0    0  0.19421253748E+02 -0.36065483230E+02  0.10214940913E+03  0.11005637629E+03  0.00000000000E+00 0.  1.
         13    1    4    4    0    0 -0.37854778241E+02 -0.20012677033E+01  0.65664855199E+01  0.38472172283E+02  0.00000000000E+00 0. -1.
         -3    1    1    2    0  502  0.21656141535E+02  0.81713832461E+01  0.42644061708E+01  0.23536038968E+02  0.00000000000E+00 0.  1.
<scales pt_clust_5="13000.00000" pt_clust_6="13000.00000" pt_clust_7="13000.00000" pt_clust_8="13000.00000" pt_clust_9="23.14649"></scales>
<clustering>
<clus scale="   23.146">  2  9  1 -1</clus>
<clus scale="   91.374">  5  6 -1 -1</clus>
<clus scale="   91.939">  7  8 -1 -1</clus>
<clus scale="   97.253">  1  5  2 -1</clus>
<clus scale="   23.146">  2  5  1 -1</clus>
</clustering>
</event>
<event>
 9    1  0.1321469E-005  0.1555319E+03  0.7546771E-02  0.1214770E+00
         21   -1    0    0  501  502  0.00000000000E+00  0.00000000000E+00  0.26266360035E+03  0.26266360035E+03  0.00000000000E+00 0. -1.
          1   -1    0    0  502    0 -0.00000000000E+00 -0.00000000000E+00 -0.26458379946E+03  0.26458379946E+03  0.00000000000E+00 0. -1.
         23    2    1    2    0    0 -0.34919246400E+02  0.11696501365E+02 -0.15918982844E+03  0.18748049564E+03  0.91931348582E+02 0.  0.
         23    2    1    2    0    0 -0.95353763150E+02 -0.15303964030E+01  0.11673125379E+01  0.13619298635E+03  0.97223889305E+02 0.  0.
        -11    1    4    4    0    0 -0.61570847196E+02 -0.34769742720E+02 -0.32737277587E+02  0.77920687735E+02  0.00000000000E+00 0. -1.
         11    1    4    4    0    0 -0.33782915954E+02  0.33239346317E+02  0.33904590125E+02  0.58272298612E+02  0.00000000000E+00 0.  1.
        -11    1    3    3    0    0 -0.37165656691E+02 -0.16764183685E+02 -0.15290530857E+03  0.15824777181E+03  0.00000000000E+00 0. -1.
         11    1    3    3    0    0  0.22464102910E+01  0.28460685051E+02 -0.62845198719E+01  0.29232723834E+02  0.00000000000E+00 0.  1.
          1    1    1    2  501    0  0.13027300955E+03 -0.10166104962E+02  0.15610231680E+03  0.20357391782E+03  0.00000000000E+00 0. -1.
<scales pt_clust_5="13000.00000" pt_clust_6="13000.00000" pt_clust_7="13000.00000" pt_clust_8="13000.00000" pt_clust_9="121.39892"></scales>
<clustering>
<clus scale="   91.931">  7  8 -1 -1</clus>
<clus scale="   97.224">  5  6 -1 -1</clus>
<clus scale="   99.033">  2  7  1 -1</clus>
<clus scale="  121.399">  1  9  2 -1</clus>
<clus scale="  121.399">  1  5  2 -1</clus>
</clustering>
</event>
<event>
 9    1  0.1321469E-005  0.1112453E+03  0.7546771E-02  0.1259336E+00
         21   -1    0    0  501  502  0.00000000000E+00  0.00000000000E+00  0.14822315909E+03  0.14822315909E+03  0.00000000000E+00 0.  1.
         -1   -1    0    0    0  501 -0.00000000000E+00 -0.00000000000E+00 -0.41313249883E+03  0.41313249883E+03  0.00000000000E+00 0.  1.
         23    2    1    2    0    0 -0.61359186150E+02  0.43715333547E+01 -0.25232547832E+03  0.27579630629E+03  0.92797605147E+02 0.  0.
         23    2    1    2    0    0  0.42247976376E+02 -0.77544162268E+02 -0.10643584851E+03  0.16502857780E+03  0.90043617386E+02 0.  0.
        -11    1    4    4    0    0  0.16100447397E+02 -0.91924206753E+02 -0.64037302870E+02  0.11318153715E+03  0.00000000000E+00 0.  1.
         11    1    4    4    0    0  0.26147528978E+02  0.14380044486E+02 -0.42398545640E+02  0.51847040643E+02  0.00000000000E+00 0. -1.
        -13    1    3    3    0    0 -0.87813281340E+01 -0.37913862104E+02 -0.13452500397E+03  0.14004124163E+03  0.00000000000E+00 0.  1.
         13    1    3    3    0    0 -0.52577858016E+02  0.42285395458E+02 -0.11780047435E+03  0.13575506466E+03  0.00000000000E+00 0. -1.
         -1    1    1    2    0  502  0.19111209774E+02  0.73172628913E+02  0.93851987090E+02  0.12053077384E+03  0.00000000000E+00 0.  1.
<scales pt_clust_5="13000.00000" pt_clust_6="13000.00000" pt_clust_7="13000.00000" pt_clust_8="13000.00000" pt_clust_9="75.62719"></scales>
<clustering>
<clus scale="   75.627">  1  9  2 -1</clus>
<clus scale="   90.044">  5  6 -1 -1</clus>
<clus scale="   92.798">  7  8 -1 -1</clus>
<clus scale="  108.959">  1  5  2 -1</clus>
<clus scale="   75.627">  1  5  2 -1</clus>
</clustering>
</event>
<event>
 9    1  0.1321469E-005  0.9773801E+02  0.7546771E-02  0.1285876E+00
          2   -1    0    0  502    0 -0.00000000000E+00  0.00000000000E+00  0.61207973572E+02  0.61207973572E+02  0.00000000000E+00 0. -1.
         21   -1    0    0  501  502  0.00000000000E+00 -0.00000000000E+00 -0.25783731509E+03  0.25783731509E+03  0.00000000000E+00 0.  1.
         23    2    1    2    0    0 -0.13185479519E+02 -0.32356859047E+02 -0.22035720972E+02  0.10135918063E+03  0.92559641863E+02 0.  0.
         23    2    1    2    0    0 -0.90879513446E+01  0.28249939032E+02 -0.94993056034E+02  0.13492607912E+03  0.91108266461E+02 0.  0.
        -11    1    3    3    0    0 -0.16482239361E+02 -0.53614915268E+02 -0.43490915115E+02  0.70976637362E+02  0.00000000000E+00 0.  1.
         11    1    3    3    0    0  0.32967598427E+01  0.21258056221E+02  0.21455194143E+02  0.30382543269E+02  0.00000000000E+00 0. -1.
        -11    1    4    4    0    0 -0.47004505713E+02 -0.11560549279E+01 -0.38228673002E+02  0.60598609389E+02  0.00000000000E+00 0.  1.
         11    1    4    4    0    0  0.37916554368E+02  0.29405993960E+02 -0.56764383032E+02  0.74327469733E+02  0.00000000000E+00 0. -1.
          2    1    1    2  501    0  0.22273430863E+02  0.41069200148E+01 -0.79600564508E+02  0.82760028905E+02  0.00000000000E+00 0. -1.
<scales pt_clust_5="13000.00000" pt_clust_6="13000.00000" pt_clust_7="13000.00000" pt_clust_8="13000.00000" pt_clust_9="22.64890"></scales>
<clustering>
<clus scale="   22.649">  2  9  1 -1</clus>
<clus scale="   91.108">  7  8 -1 -1</clus>
<clus scale="   92.560">  5  6 -1 -1</clus>
<clus scale="   96.365">  2  7  1 -1</clus>
<clus scale="   22.649">  2  5  1 -1</clus>
</clustering>
</event>
<event>
 9    1  0.1321469E-005  0.1781823E+03  0.7546771E-02  0.1170773E+00
          1   -1    0    0  502    0 -0.00000000000E+00  0.00000000000E+00  0.53634692784E+03  0.53634692784E+03  0.00000000000E+00 0. -1.
         21   -1    0    0  501  502  0.00000000000E+00 -0.00000000000E+00 -0.82661791088E+02  0.82661791088E+02  0.00000000000E+00 0. -1.
         23    2    1    2    0    0  0.15702810816E+03  0.44637463340E+02  0.35034336158E+03  0.39712750564E+03  0.91211045623E+02 0.  0.
         23    2    1    2    0    0 -0.13315100887E+03 -0.23502978050E+02  0.10563977172E+03  0.18991149125E+03  0.81394299569E+02 0.  0.
        -11    1    3    3    0    0  0.11886108585E+03  0.68649495491E+02  0.29764641970E+03  0.32777141749E+03  0.00000000000E+00 0. -1.
         11    1    3    3    0    0  0.38167022305E+02 -0.24012032150E+02  0.52696941876E+02  0.69356088145E+02  0.00000000000E+00 0.  1.
        -13    1    4    4    0    0 -0.77760571576E+02  0.15581736949E+02  0.22103760529E+02  0.82329054699E+02  0.00000000000E+00 0. -1.
         13    1    4    4    0    0 -0.55390437291E+02 -0.39084714998E+02  0.83536011187E+02  0.10758243655E+03  0.00000000000E+00 0.  1.
          1    1    1    2  501    0 -0.23877099294E+02 -0.21134485291E+02 -0.22979965429E+01  0.31969722040E+02  0.00000000000E+00 0. -1.
<scales pt_clust_5="13000.00000" pt_clust_6="13000.00000" pt_clust_7="13000.00000" pt_clust_8="13000.00000" pt_clust_9="31.88702"></scales>
<clustering>
<clus scale="   31.887">  2  9  1 -1</clus>
<clus scale="   81.394">  7  8 -1 -1</clus>
<clus scale="   91.211">  5  6 -1 -1</clus>
<clus scale="  173.362">  2  7  1 -1</clus>
<clus scale="   31.887">  2  5  1 -1</clus>
</clustering>
</event>
<event>
 9    1  0.1321469E-005  0.1058440E+03  0.7546771E-02  0.1268838E+00
          3   -1    0    0  502    0 -0.00000000000E+00  0.00000000000E+00  0.21741159329E+03  0.21741159329E+03  0.00000000000E+00 0. -1.
         21   -1    0    0  501  502  0.00000000000E+00 -0.00000000000E+00 -0.18877829508E+03  0.18877829508E+03  0.00000000000E+00 0. -1.
         23    2    1    2    0    0  0.16261460937E+01 -0.36103717394E+02  0.86369368693E+02  0.13105270192E+03  0.91700709221E+02 0.  0.
         23    2    1    2    0    0 -0.20010823768E+01  0.73733451341E+02  0.73018836931E+02  0.13907476229E+03  0.92571122826E+02 0.  0.
        -11    1    3    3    0    0  0.78729410963E+01 -0.61928439352E+02  0.31135337198E+02  0.69760476091E+02  0.00000000000E+00 0.  1.
         11    1    3    3    0    0 -0.62467950026E+01  0.25824721958E+02  0.55234031495E+02  0.61292225830E+02  0.00000000000E+00 0. -1.
        -13    1    4    4    0    0 -0.18636107823E+02 -0.17407068166E+02  0.19299447460E+02  0.31980919455E+02  0.00000000000E+00 0. -1.
         13    1    4    4    0    0  0.16635025447E+02  0.91140519507E+02  0.53719389471E+02  0.10709384283E+03  0.00000000000E+00 0.  1.
          3    1    1    2  501    0  0.37493628313E+00 -0.37629733947E+02 -0.13075490741E+03  0.13606242415E+03  0.00000000000E+00 0. -1.
<scales pt_clust_5="13000.00000" pt_clust_6="13000.00000" pt_clust_7="13000.00000" pt_clust_8="13000.00000" pt_clust_9="37.63160"></scales>
<clustering>
<clus scale="   37.632">  2  9  1 -1</clus>
<clus scale="   91.701">  5  6 -1 -1</clus>
<clus scale="   92.571">  7  8 -1 -1</clus>
<clus scale="  105.084">  1  5  2 -1</clus>
<clus scale="   37.632">  2  5  1 -1</clus>
</clustering>
</event>
<event>
 9    1  0.1532813E-005  0.4677225E+03  0.7546771E-02  0.1057203E+00
          1   -1    0    0  502    0 -0.00000000000E+00  0.00000000000E+00  0.67774020346E+03  0.67774020346E+03  0.00000000000E+00 0. -1.
         21   -1    0    0  501  502  0.00000000000E+00 -0.00000000000E+00 -0.56687113889E+03  0.56687113889E+03  0.00000000000E+00 0. -1.
         23    2    1    2    0    0  0.10180065850E+03  0.10129028347E+03  0.73253897323E+02  0.18570301718E+03  0.92175818537E+02 0.  0.
         23    2    1    2    0    0 -0.49887176520E+03 -0.25126792551E+03  0.20637856917E+03  0.60213721978E+03  0.89266506188E+02 0.  0.
        -11    1    3    3    0    0  0.53736854590E+02  0.10837599377E+03  0.61569855887E+02  0.13573449348E+03  0.00000000000E+00 0.  1.
         11    1    3    3    0    0  0.48063803906E+02 -0.70857103058E+01  0.11684041435E+02  0.49968523699E+02  0.00000000000E+00 0. -1.
        -11    1    4    4    0    0 -0.62767096848E+02 -0.42027464555E+01  0.94565040163E+01  0.63614440127E+02  0.00000000000E+00 0.  1.
         11    1    4    4    0    0 -0.43610466835E+03 -0.24706517906E+03  0.19692206515E+03  0.53852277965E+03  0.00000000000E+00 0. -1.
          1    1    1    2  501    0  0.39707110670E+03  0.14997764205E+03 -0.16876340192E+03  0.45677110539E+03  0.00000000000E+00 0. -1.
<scales pt_clust_5="13000.00000" pt_clust_6="13000.00000" pt_clust_7="13000.00000" pt_clust_8="13000.00000" pt_clust_9="459.12503"></scales>
<clustering>
<clus scale="   89.267">  7  8 -1 -1</clus>
<clus scale="   92.176">  5  6 -1 -1</clus>
<clus scale="  170.644">  1  5  2 -1</clus>
<clus scale="  459.125">  2  9  1 -1</clus>
<clus scale="  459.125">  2  5  1 -1</clus>
</clustering>
</event>
<event>
 9    1  0.1321469E-005  0.1467239E+03  0.7546771E-02  0.1204621E+00
         21   -1    0    0  501  502  0.00000000000E+00  0.00000000000E+00  0.28159607230E+02  0.28159607230E+02  0.00000000000E+00 0. -1.
          3   -1    0    0  502    0 -0.00000000000E+00 -0.00000000000E+00 -0.11534212257E+04  0.11534212257E+04  0.00000000000E+00 0. -1.
         23    2    1    2    0    0  0.10487686814E+03  0.85126733176E+01 -0.53658735724E+03  0.55447614902E+03  0.91903127224E+02 0.  0.
         23    2    1    2    0    0 -0.12556423985E+03  0.18421256966E+02 -0.56350141173E+03  0.58483085866E+03  0.91583684039E+02 0.  0.
        -11    1    3    3    0    0  0.73981323830E+02  0.47948834020E+02 -0.37893952299E+03  0.38905974997E+03  0.00000000000E+00 0. -1.
         11    1    3    3    0    0  0.30895544313E+02 -0.39436160702E+02 -0.15764783425E+03  0.16541639905E+03  0.00000000000E+00 0.  1.
        -11    1    4    4    0    0 -0.17037034293E+02 -0.32027260942E+02 -0.15279448448E+03  0.15704190673E+03  0.00000000000E+00 0.  1.
         11    1    4    4    0    0 -0.10852720556E+03  0.50448517908E+02 -0.41070692725E+03  0.42778895194E+03  0.00000000000E+00 0. -1.
          3    1    1    2  501    0  0.20687371706E+02 -0.26933930284E+02 -0.25172849454E+02  0.42273825215E+02  0.00000000000E+00 0. -1.
<scales pt_clust_5="13000.00000" pt_clust_6="13000.00000" pt_clust_7="13000.00000" pt_clust_8="13000.00000" pt_clust_9="33.96180"></scales>
<clustering>
<clus scale="   33.962">  1  9  2 -1</clus>
<clus scale="   91.584">  7  8 -1 -1</clus>
<clus scale="   91.903">  5  6 -1 -1</clus>
<clus scale="  146.524">  1  7  2 -1</clus>
<clus scale="   33.962">  1  5  2 -1</clus>
</clustering>
</event>
<event>
 9    1  0.1321469E-005  0.1335002E+03  0.7546771E-02  0.1222535E+00
         -4   -1    0    0    0  501 -0.00000000000E+00  0.00000000000E+00  0.94441594954E+02  0.94441594954E+02  0.00000000000E+00 0.  1.
         21   -1    0    0  501  502  0.00000000000E+00 -0.00000000000E+00 -0.57111652263E+03  0.57111652263E+03  0.00000000000E+00 0. -1.
         23    2    1    2    0    0  0.26086728196E+02  0.88897034501E+02  0.16158538411E+02  0.13078786946E+03  0.90890969319E+02 0.  0.
         23    2    1    2    0    0 -0.52033171461E+02 -0.10910592288E+03 -0.27142985793E+03  0.31093733099E+03  0.91631341177E+02 0.  0.
        -13    1    4    4    0    0 -0.18383062629E+02 -0.11516692417E+03 -0.22298172698E+03  0.25163904304E+03  0.00000000000E+00 0. -1.
         13    1    4    4    0    0 -0.33650108832E+02  0.60610012900E+01 -0.48448130950E+02  0.59298287948E+02  0.00000000000E+00 0.  1.
        -13    1    3    3    0    0  0.21716221659E+02 -0.11457046644E+02 -0.10740258090E+02  0.26799465382E+02  0.00000000000E+00 0. -1.
         13    1    3    3    0    0  0.43705065366E+01  0.10035408114E+03  0.26898796500E+02  0.10398840408E+03  0.00000000000E+00 0.  1.
         -4    1    1    2    0  502  0.25946443265E+02  0.20208888384E+02 -0.22140360816E+03  0.22383291714E+03  0.00000000000E+00 0.  1.
<scales pt_clust_5="13000.00000" pt_clust_6="13000.00000" pt_clust_7="13000.00000" pt_clust_8="13000.00000" pt_clust_9="32.88795"></scales>
<clustering>
<clus scale="   32.888">  2  9  1 -1</clus>
<clus scale="   90.891">  7  8 -1 -1</clus>
<clus scale="   91.631">  5  6 -1 -1</clus>
<clus scale="  132.993">  1  7  2 -1</clus>
<clus scale="   32.888">  2  5  1 -1</clus>
</clustering>
</event>
<event>
 9    1  0.1321469E-005  0.9328957E+02  0.7546771E-02  0.1298540E+00
         21   -1    0    0  501  502  0.00000000000E+00  0.00000000000E+00  0.15378619053E+03  0.15378619053E+03  0.00000000000E+00 0. -1.
          1   -1    0    0  502    0 -0.00000000000E+00 -0.00000000000E+00 -0.33785086646E+03  0.33785086646E+03  0.00000000000E+00 0. -1.
         23    2    1    2    0    0 -0.33858277896E+01  0.20800095085E+02 -0.21252735900E+03  0.23302518180E+03  0.93213460636E+02 0.  0.
         23    2    1    2    0    0  0.45957751942E+01  0.45986785020E+02 -0.82715567971E+02  0.12891008325E+03  0.87407315670E+02 0.  0.
        -13    1    4    4    0    0  0.29410724832E+02 -0.12953721452E+01  0.11794104483E+01  0.29462853446E+02  0.00000000000E+00 0. -1.
         13    1    4    4    0    0 -0.24814949638E+02  0.47282157166E+02 -0.83894978419E+02  0.99447229804E+02  0.00000000000E+00 0.  1.
        -13    1    3    3    0    0 -0.47200586860E+02  0.32796992938E+00 -0.10584830233E+03  0.11589592775E+03  0.00000000000E+00 0.  1.
         13    1    3    3    0    0  0.43814759071E+02  0.20472125156E+02 -0.10667905667E+03  0.11712925405E+03  0.00000000000E+00 0. -1.
          1    1    1    2  501    0 -0.12099474045E+01 -0.66786880106E+02  0.11117825104E+03  0.12970179194E+03  0.00000000000E+00 0. -1.
<scales pt_clust_5="13000.00000" pt_clust_6="13000.00000" pt_clust_7="13000.00000" pt_clust_8="13000.00000" pt_clust_9="66.79784"></scales>
<clustering>
<clus scale="   66.798">  1  9  2 -1</clus>
<clus scale="   87.407">  5  6 -1 -1</clus>
<clus scale="   87.488">  1  5  2 -1</clus>
<clus scale="   93.213">  7  8 -1 -1</clus>
<clus scale="   66.798">  1  5  2 -1</clus>
</clustering>
</event>
<event>
 9    1  0.1321469E-005  0.1951270E+03  0.7546771E-02  0.1156225E+00
         21   -1    0    0  501  502  0.00000000000E+00  0.00000000000E+00  0.58754829657E+02  0.58754829657E+02  0.00000000000E+00 0.  1.
          2   -1    0    0  502    0 -0.00000000000E+00 -0.00000000000E+00 -0.94442232782E+03  0.94442232782E+03  0.00000000000E+00 0. -1.
         23    2    1    2    0    0 -0.14495074452E+03  0.50391911824E+02 -0.52157603099E+03  0.55478702635E+03  0.11044014393E+03 0.  0.
         23    2    1    2    0    0  0.14340114572E+03 -0.10743971816E+03 -0.31196487808E+03  0.37109825086E+03  0.91020025303E+02 0.  0.
        -11    1    3    3    0    0  0.45251483552E+01  0.38490373029E+02 -0.93785652351E+02  0.10147775308E+03  0.00000000000E+00 0. -1.
         11    1    3    3    0    0 -0.14947589287E+03  0.11901538795E+02 -0.42779037864E+03  0.45330927327E+03  0.00000000000E+00 0.  1.
        -13    1    4    4    0    0  0.14717951514E+03 -0.80929962874E+02 -0.29480062866E+03  0.33929173174E+03  0.00000000000E+00 0.  1.
         13    1    4    4    0    0 -0.37783694159E+01 -0.26509755284E+02 -0.17164249415E+02  0.31806519122E+02  0.00000000000E+00 0. -1.
          2    1    1    2  501    0  0.15495987952E+01  0.57047806334E+02 -0.52126589097E+02  0.77291880264E+02  0.00000000000E+00 0. -1.
<scales pt_clust_5="13000.00000" pt_clust_6="13000.00000" pt_clust_7="13000.00000" pt_clust_8="13000.00000" pt_clust_9="57.06885"></scales>
<clustering>
<clus scale="   57.069">  1  9  2 -1</clus>
<clus scale="   91.020">  7  8 -1 -1</clus>
<clus scale="  110.440">  5  6 -1 -1</clus>
<clus scale="  184.830">  1  7  2 -1</clus>
<clus scale="   57.069">  1  5  2 -1</clus>
</clustering>
</event>
<event>
 9    1  0.1321469E-005  0.1580873E+03  0.7546771E-02  0.1191055E+00
          1   -1    0    0  502    0 -0.00000000000E+00  0.00000000000E+00  0.34683595344E+03  0.34683595344E+03  0.00000000000E+00 0. -1.
         21   -1    0    0  501  502  0.00000000000E+00 -0.00000000000E+00 -0.10982266848E+03  0.10982266848E+03  0.00000000000E+00 0. -1.
         23    2    1    2    0    0  0.12010347125E+03 -0.78390076025E+02  0.20647716143E+03  0.26767817257E+03  0.91918105149E+02 0.  0.
         23    2    1    2    0    0 -0.88416522440E+02  0.56091260819E+02  0.47719671251E+02  0.14659443519E+03  0.90824283220E+02 0.  0.
        -11    1    4    4    0    0 -0.10147119322E+03  0.29001591815E+02  0.49300176543E+02  0.11648177019E+03  0.00000000000E+00 0. -1.
         11    1    4    4    0    0  0.13054670777E+02  0.27089669004E+02 -0.15805052927E+01  0.30112664990E+02  0.00000000000E+00 0.  1.
        -13    1    3    3    0    0  0.93875828923E+02 -0.98050700786E+02  0.14940243055E+03  0.20186058910E+03  0.00000000000E+00 0.  1.
         13    1    3    3    0    0  0.26227642323E+02  0.19660624762E+02  0.57074730884E+02  0.65817583466E+02  0.00000000000E+00 0. -1.
          1    1    1    2  501    0 -0.31686948807E+02  0.22298815205E+02 -0.17183547720E+02  0.42386014161E+02  0.00000000000E+00 0. -1.
<scales pt_clust_5="13000.00000" pt_clust_6="13000.00000" pt_clust_7="13000.00000" pt_clust_8="13000.00000" pt_clust_9="38.74661"></scales>
<clustering>
<clus scale="   38.747">  2  9  1 -1</clus>
<clus scale="   90.824">  5  6 -1 -1</clus>
<clus scale="   91.918">  7  8 -1 -1</clus>
<clus scale="  157.454">  2  5  1 -1</clus>
<clus scale="   38.747">  2  5  1 -1</clus>
</clustering>
</event>
<event>
 9    1  0.1321469E-005  0.9862386E+02  0.7546771E-02  0.1284185E+00
         21   -1    0    0  501  502  0.00000000000E+00  0.00000000000E+00  0.39777031245E+02  0.39777031245E+02  0.00000000000E+00 0. -1.
          3   -1    0    0  502    0 -0.00000000000E+00 -0.00000000000E+00 -0.50983304404E+03  0.50983304404E+03  0.00000000000E+00 0. -1.
         23    2    1    2    0    0  0.45348823757E+02 -0.26064716008E+01 -0.29272334579E+03  0.31009768934E+03  0.91707743702E+02 0.  0.
         23    2    1    2    0    0 -0.23540836973E+02  0.11816847927E+02 -0.19063462372E+03  0.21235798718E+03  0.89780543883E+02 0.  0.
        -11    1    3    3    0    0  0.12841903782E+02 -0.44987363765E+02 -0.10557480850E+03  0.11547648064E+03  0.00000000000E+00 0.  1.
         11    1    3    3    0    0  0.32506919975E+02  0.42380892164E+02 -0.18714853729E+03  0.19462120870E+03  0.00000000000E+00 0. -1.
        -13    1    4    4    0    0 -0.11849080098E+02  0.43768667597E+02 -0.16091577442E+03  0.16718248538E+03  0.00000000000E+00 0. -1.
         13    1    4    4    0    0 -0.11691756875E+02 -0.31951819670E+02 -0.29718849297E+02  0.45175501797E+02  0.00000000000E+00 0.  1.
          3    1    1    2  501    0 -0.21807986784E+02 -0.92103763266E+01  0.13301956711E+02  0.27154398760E+02  0.00000000000E+00 0. -1.
<scales pt_clust_5="13000.00000" pt_clust_6="13000.00000" pt_clust_7="13000.00000" pt_clust_8="13000.00000" pt_clust_9="23.67318"></scales>
<clustering>
<clus scale="   23.673">  1  9  2 -1</clus>
<clus scale="   89.781">  7  8 -1 -1</clus>
<clus scale="   91.708">  5  6 -1 -1</clus>
<clus scale="   96.834">  1  7  2 -1</clus>
<clus scale="   23.673">  1  5  2 -1</clus>
</clustering>
</event>
<event>
 9    1  0.1321469E-005  0.1208080E+03  0.7546771E-02  0.1243065E+00
         21   -1    0    0  501  502  0.00000000000E+00  0.00000000000E+00  0.38395194357E+03  0.38395194357E+03  0.00000000000E+00 0. -1.
          3   -1    0    0  502    0 -0.00000000000E+00 -0.00000000000E+00 -0.33530510401E+03  0.33530510401E+03  0.00000000000E+00 0. -1.
         23    2    1    2    0    0  0.44577237977E+02  0.87094271277E+02 -0.18331749416E+03  0.22872487835E+03  0.95588828193E+02 0.  0.
         23    2    1    2    0    0 -0.68276129700E+02 -0.40752062543E+01 -0.97306375291E+02  0.15013093180E+03  0.91610746199E+02 0.  0.
        -11    1    4    4    0    0 -0.12142367509E+02  0.27300693929E+02 -0.77157528225E+02  0.82740855323E+02  0.00000000000E+00 0. -1.
         11    1    4    4    0    0 -0.56133762191E+02 -0.31375900184E+02 -0.20148847066E+02  0.67390076481E+02  0.00000000000E+00 0.  1.
        -11    1    3    3    0    0  0.28887269345E+02  0.39693793584E+02 -0.12358841320E+02  0.50624228765E+02  0.00000000000E+00 0. -1.
         11    1    3    3    0    0  0.15689968632E+02  0.47400477693E+02 -0.17095865284E+03  0.17810064958E+03  0.00000000000E+00 0.  1.
          3    1    1    2  501    0  0.23698891723E+02 -0.83019065023E+02  0.32927070901E+03  0.34040123742E+03  0.00000000000E+00 0. -1.
<scales pt_clust_5="13000.00000" pt_clust_6="13000.00000" pt_clust_7="13000.00000" pt_clust_8="13000.00000" pt_clust_9="86.33541"></scales>
<clustering>
<clus scale="   86.335">  1  9  2 -1</clus>
<clus scale="   91.611">  5  6 -1 -1</clus>
<clus scale="   95.589">  7  8 -1 -1</clus>
<clus scale="  117.685">  1  5  2 -1</clus>
<clus scale="   86.335">  1  5  2 -1</clus>
</clustering>
</event>
<event>
 9    1  0.1321469E-005  0.1292349E+03  0.7546771E-02  0.1228916E+00
         21   -1    0    0  501  502  0.00000000000E+00  0.00000000000E+00  0.11161244335E+03  0.11161244335E+03  0.00000000000E+00 0. -1.
         -1   -1    0    0    0  501 -0.00000000000E+00 -0.00000000000E+00 -0.19839351378E+03  0.19839351378E+03  0.00000000000E+00 0.  1.
         23    2    1    2    0    0  0.36443767432E+02  0.73517712510E+02 -0.86500701013E+02  0.15194691583E+03  0.94193904890E+02 0.  0.
         23    2    1    2    0    0 -0.55620914897E+02 -0.81096914934E+02 -0.43209789191E+01  0.13704633516E+03  0.95355290025E+02 0.  0.
        -11    1    3    3    0    0 -0.16256528938E+02  0.41429045519E+02 -0.77808053998E+02  0.89636676716E+02  0.00000000000E+00 0.  1.
         11    1    3    3    0    0  0.52700296371E+02  0.32088666992E+02 -0.86926470151E+01  0.62310239119E+02  0.00000000000E+00 0. -1.
        -11    1    4    4    0    0  0.17158745315E+02 -0.58046953391E+02  0.76293803324E+00  0.60534728984E+02  0.00000000000E+00 0. -1.
         11    1    4    4    0    0 -0.72779660213E+02 -0.23049961544E+02 -0.50839169524E+01  0.76511606175E+02  0.00000000000E+00 0.  1.
         -1    1    1    2    0  502  0.19177147465E+02  0.75792024237E+01  0.40406095034E+01  0.21012706142E+02  0.00000000000E+00 0.  1.
<scales pt_clust_5="13000.00000" pt_clust_6="13000.00000" pt_clust_7="13000.00000" pt_clust_8="13000.00000" pt_clust_9="20.62056"></scales>
<clustering>
<clus scale="   20.621">  1  9  2 -1</clus>
<clus scale="   94.194">  5  6 -1 -1</clus>
<clus scale="   95.355">  7  8 -1 -1</clus>
<clus scale="  128.380">  2  5  1 -1</clus>
<clus scale="   20.621">  1  5  2 -1</clus>
</clustering>
</event>
<event>
 9    1  0.1321469E-005  0.9564308E+02  0.7546771E-02  0.1290518E+00
         21   -1    0    0  501  502  0.00000000000E+00  0.00000000000E+00  0.21732267946E+02  0.21732267946E+02  0.00000000000E+00 0. -1.
         -1   -1    0    0    0  501 -0.00000000000E+00 -0.00000000000E+00 -0.72698483676E+03  0.72698483676E+03  0.00000000000E+00 0.  1.
         23    2    1    2    0    0 -0.67162656762E+01  0.56643429599E+01 -0.26873844167E+03  0.28435601653E+03  0.92524597257E+02 0.  0.
         23    2    1    2    0    0  0.49973029038E+02 -0.37924575998E+00 -0.21731867757E+03  0.24087568610E+03  0.91083703674E+02 0.  0.
        -11    1    3    3    0    0 -0.42234375438E+02  0.19494381466E+02 -0.20394823103E+03  0.20918569339E+03  0.00000000000E+00 0.  1.
         11    1    3    3    0    0  0.35518109762E+02 -0.13830038506E+02 -0.64790210641E+02  0.75170323141E+02  0.00000000000E+00 0. -1.
        -13    1    4    4    0    0  0.74521511809E+02  0.82465268480E+01 -0.13352621982E+03  0.15313625406E+03  0.00000000000E+00 0. -1.
         13    1    4    4    0    0 -0.24548482771E+02 -0.86257726080E+01 -0.83792457748E+02  0.87739432041E+02  0.00000000000E+00 0.  1.
         -1    1    1    2    0  502 -0.43256763362E+02 -0.52850971999E+01 -0.21919544957E+03  0.22348540208E+03  0.00000000000E+00 0.  1.
<scales pt_clust_5="13000.00000" pt_clust_6="13000.00000" pt_clust_7="13000.00000" pt_clust_8="13000.00000" pt_clust_9="43.57845"></scales>
<clustering>
<clus scale="   43.578">  1  9  2 -1</clus>
<clus scale="   91.084">  7  8 -1 -1</clus>
<clus scale="   92.525">  5  6 -1 -1</clus>
<clus scale="   94.250">  1  7  2 -1</clus>
<clus scale="   43.578">  1  5  2 -1</clus>
</clustering>
</event>
<event>
 9    1  0.1321469E-005  0.1705710E+03  0.7546771E-02  0.1202427E+00
         21   -1    0    0  501  502  0.00000000000E+00  0.00000000000E+00  0.13455589386E+03  0.13455589386E+03  0.00000000000E+00 0. -1.
         -3   -1    0    0    0  501 -0.00000000000E+00 -0.00000000000E+00 -0.92728073298E+03  0.92728073298E+03  0.00000000000E+00 0.  1.
         23    2    1    2    0    0 -0.32377988356E+02 -0.17592991412E+02  0.78628410414E+02  0.12547439527E+03  0.90573447914E+02 0.  0.
         23    2    1    2    0    0 -0.10525563761E+03 -0.72810754116E+02 -0.28284176989E+03  0.32524717376E+03  0.96985061139E+02 0.  0.
        -11    1    4    4    0    0 -0.74122601533E+02 -0.96263194589E+02 -0.20889907571E+03  0.24166006398E+03  0.00000000000E+00 0.  1.
         11    1    4    4    0    0 -0.31133036079E+02  0.23452440473E+02 -0.73942694180E+02  0.83587109785E+02  0.00000000000E+00 0. -1.
        -11    1    3    3    0    0 -0.50577601802E+01 -0.29382495801E+02 -0.10422415942E+02  0.31583836873E+02  0.00000000000E+00 0.  1.
         11    1    3    3    0    0 -0.27320228176E+02  0.11789504389E+02  0.89050826355E+02  0.93890558396E+02  0.00000000000E+00 0. -1.
         -3    1    1    2    0  502  0.13763362597E+03  0.90403745528E+02 -0.58851147965E+03  0.61111505781E+03  0.00000000000E+00 0.  1.
<scales pt_clust_5="13000.00000" pt_clust_6="13000.00000" pt_clust_7="13000.00000" pt_clust_8="13000.00000" pt_clust_9="140.31533"></scales>
<clustering>
<clus scale="   90.573">  7  8 -1 -1</clus>
<clus scale="   96.985">  5  6 -1 -1</clus>
<clus scale="   97.782">  2  7  1 -1</clus>
<clus scale="  140.315">  1  9  2 -1</clus>
<clus scale="  140.315">  1  5  2 -1</clus>
</clustering>
</event>
<event>
 9    1  0.1321469E-005  0.1097969E+03  0.7546771E-02  0.1261614E+00
          3   -1    0    0  502    0 -0.00000000000E+00  0.00000000000E+00  0.49292694467E+03  0.49292694467E+03  0.00000000000E+00 0. -1.
         21   -1    0    0  501  502  0.00000000000E+00 -0.00000000000E+00 -0.46938964644E+02  0.46938964644E+02  0.00000000000E+00 0.  1.
         23    2    1    2    0    0  0.46479049306E+02 -0.19549305260E+02  0.26869817499E+03  0.28823334559E+03  0.91308679274E+02 0.  0.
         23    2    1    2    0    0 -0.65949485376E+02  0.64833404259E+02  0.13657514278E+03  0.18769954232E+03  0.89585956658E+02 0.  0.
        -11    1    4    4    0    0 -0.21012282142E+02  0.78911025416E+02  0.85779264561E+02  0.11843372899E+03  0.00000000000E+00 0.  1.
         11    1    4    4    0    0 -0.44937203234E+02 -0.14077621157E+02  0.50795878223E+02  0.69265813331E+02  0.00000000000E+00 0. -1.
        -13    1    3    3    0    0  0.16972992513E+02  0.25908674492E+02  0.28813844965E+02  0.42303422444E+02  0.00000000000E+00 0.  1.
         13    1    3    3    0    0  0.29506056793E+02 -0.45457979753E+02  0.23988433002E+03  0.24592992315E+03  0.00000000000E+00 0. -1.
          3    1    1    2  501    0  0.19470436070E+02 -0.45284098999E+02  0.40714662252E+02  0.63933021399E+02  0.00000000000E+00 0. -1.
<scales pt_clust_5="13000.00000" pt_clust_6="13000.00000" pt_clust_7="13000.00000" pt_clust_8="13000.00000" pt_clust_9="49.29247"></scales>
<clustering>
<clus scale="   49.292">  2  9  1 -1</clus>
<clus scale="   89.586">  5  6 -1 -1</clus>
<clus scale="   91.309">  7  8 -1 -1</clus>
<clus scale="  108.368">  2  5  1 -1</clus>
<clus scale="   49.292">  2  5  1 -1</clus>
</clustering>
</event>
<event>
 9    1  0.1321469E-005  0.1183324E+03  0.7546771E-02  0.1249425E+00
         21   -1    0    0  501  502  0.00000000000E+00  0.00000000000E+00  0.12185894616E+03  0.12185894616E+03  0.00000000000E+00 0. -1.
         -4   -1    0    0    0  501 -0.00000000000E+00 -0.00000000000E+00 -0.21735352202E+03  0.21735352202E+03  0.00000000000E+00 0.  1.
         23    2    1    2    0    0 -0.59321630986E+02  0.41070232962E+02 -0.13741757542E+03  0.18134826142E+03  0.93796492188E+02 0.  0.
         23    2    1    2    0    0  0.73320176844E+02 -0.18468438778E+02  0.53176618380E+01  0.11262317299E+03  0.83299279735E+02 0.  0.
        -11    1    3    3    0    0 -0.46961432441E+02 -0.23495545131E+02 -0.57570502573E+02  0.77921624370E+02  0.00000000000E+00 0.  1.
         11    1    3    3    0    0 -0.12360198545E+02  0.64565778094E+02 -0.79847072847E+02  0.10342663705E+03  0.00000000000E+00 0. -1.
        -13    1    4    4    0    0  0.29115500790E+02 -0.14623784918E+02 -0.38381557552E+02  0.50345917726E+02  0.00000000000E+00 0.  1.
         13    1    4    4    0    0  0.44204676054E+02 -0.38446538602E+01  0.43699219390E+02  0.62277255267E+02  0.00000000000E+00 0. -1.
         -4    1    1    2    0  502 -0.13998545857E+02 -0.22601794184E+02  0.36605337723E+02  0.45241033767E+02  0.00000000000E+00 0.  1.
<scales pt_clust_5="13000.00000" pt_clust_6="13000.00000" pt_clust_7="13000.00000" pt_clust_8="13000.00000" pt_clust_9="26.58572"></scales>
<clustering>
<clus scale="   26.586">  1  9  2 -1</clus>
<clus scale="   83.299">  7  8 -1 -1</clus>
<clus scale="   93.796">  5  6 -1 -1</clus>
<clus scale="  110.198">  1  7  2 -1</clus>
<clus scale="   26.586">  1  5  2 -1</clus>
</clustering>
</event>
<event>
 9    1  0.1321469E-005  0.9169968E+02  0.7546771E-02  0.1300107E+00
         21   -1    0    0  501  502  0.00000000000E+00  0.00000000000E+00  0.14279814582E+02  0.14279814582E+02  0.00000000000E+00 0.  1.
          1   -1    0    0  502    0 -0.00000000000E+00 -0.00000000000E+00 -0.75568090013E+03  0.75568090013E+03  0.00000000000E+00 0. -1.
         23    2    1    2    0    0 -0.10223949721E+02  0.10407600316E+01 -0.35450030761E+03  0.36629325540E+03  0.91622423721E+02 0.  0.
         23    2    1    2    0    0 -0.10465110568E+02  0.86586514793E+01 -0.33431235187E+03  0.34632935369E+03  0.89413543894E+02 0.  0.
        -11    1    3    3    0    0 -0.12033099837E+02  0.44792307587E+02 -0.14393964603E+03  0.15122753721E+03  0.00000000000E+00 0.  1.
         11    1    3    3    0    0  0.18091501160E+01 -0.43751547556E+02 -0.21056066158E+03  0.21506571819E+03  0.00000000000E+00 0. -1.
        -13    1    4    4    0    0  0.54751083266E+01  0.47736604988E+02 -0.18900847783E+03  0.19502042190E+03  0.00000000000E+00 0.  1.
         13    1    4    4    0    0 -0.15940218895E+02 -0.39077953508E+02 -0.14530387404E+03  0.15130893179E+03  0.00000000000E+00 0. -1.
          1    1    1    2  501    0  0.20689060289E+02 -0.96994115109E+01 -0.52588426069E+02  0.57338105617E+02  0.00000000000E+00 0. -1.
<scales pt_clust_5="13000.00000" pt_clust_6="13000.00000" pt_clust_7="13000.00000" pt_clust_8="13000.00000" pt_clust_9="22.84985"></scales>
<clustering>
<clus scale="   22.850">  1  9  2 -1</clus>
<clus scale="   89.414">  7  8 -1 -1</clus>
<clus scale="   89.493">  1  7  2 -1</clus>
<clus scale="   91.622">  5  6 -1 -1</clus>
<clus scale="   22.850">  1  5  2 -1</clus>
</clustering>
</event>
<event>
 9    1  0.1321469E-005  0.9944075E+02  0.7546771E-02  0.1281978E+00
         -2   -1    0    0    0  501 -0.00000000000E+00  0.00000000000E+00  0.33953339503E+03  0.33953339503E+03  0.00000000000E+00 0.  1.
         21   -1    0    0  501  502  0.00000000000E+00 -0.00000000000E+00 -0.76879813081E+02  0.76879813081E+02  0.00000000000E+00 0. -1.
         23    2    1    2    0    0 -0.12653314165E+02  0.29165604096E+02  0.18531037008E+03  0.20907863252E+03  0.91450546709E+02 0.  0.
         23    2    1    2    0    0 -0.37366421944E+02 -0.62926853846E+02  0.88241479132E+02  0.14601110362E+03  0.90424804768E+02 0.  0.
        -11    1    3    3    0    0  0.17536110793E+02  0.14851898275E+02  0.23584805638E+01  0.23101006357E+02  0.00000000000E+00 0. -1.
         11    1    3    3    0    0 -0.30189424958E+02  0.14313705820E+02  0.18295188952E+03  0.18597762616E+03  0.00000000000E+00 0.  1.
        -11    1    4    4    0    0 -0.14155867656E+02 -0.65848739431E+02  0.14835602978E+02  0.68967674960E+02  0.00000000000E+00 0. -1.
         11    1    4    4    0    0 -0.23210554288E+02  0.29218855851E+01  0.73405876155E+02  0.77043428661E+02  0.00000000000E+00 0.  1.
         -2    1    1    2    0  502  0.50019736109E+02  0.33761249750E+02 -0.10898267267E+02  0.61323471970E+02  0.00000000000E+00 0.  1.
<scales pt_clust_5="13000.00000" pt_clust_6="13000.00000" pt_clust_7="13000.00000" pt_clust_8="13000.00000" pt_clust_9="60.34729"></scales>
<clustering>
<clus scale="   60.347">  2  9  1 -1</clus>
<clus scale="   90.425">  7  8 -1 -1</clus>
<clus scale="   91.451">  5  6 -1 -1</clus>
<clus scale="   98.498">  2  7  1 -1</clus>
<clus scale="   60.347">  2  5  1 -1</clus>
</clustering>
</event>
<event>
 9    1  0.1321469E-005  0.1076551E+03  0.7546771E-02  0.1265292E+00
          1   -1    0    0  502    0 -0.00000000000E+00  0.00000000000E+00  0.58946181020E+03  0.58946181020E+03  0.00000000000E+00 0. -1.
         21   -1    0    0  501  502  0.00000000000E+00 -0.00000000000E+00 -0.40206705241E+02  0.40206705241E+02  0.00000000000E+00 0. -1.
         23    2    1    2    0    0  0.74735088826E+01 -0.57300230973E+02  0.35514892807E+03  0.37136944167E+03  0.91898483606E+02 0.  0.
         23    2    1    2    0    0 -0.47986499794E+02  0.41390241130E+02  0.18191280814E+03  0.21309831659E+03  0.91119517895E+02 0.  0.
        -11    1    3    3    0    0  0.33101568986E+02 -0.22634996975E+01  0.48465091652E+02  0.58734167305E+02  0.00000000000E+00 0.  1.
         11    1    3    3    0    0 -0.25628060103E+02 -0.55036731276E+02  0.30668383642E+03  0.31263527436E+03  0.00000000000E+00 0. -1.
        -11    1    4    4    0    0 -0.57177443256E+02  0.18628542403E+02  0.17844743874E+03  0.18830764988E+03  0.00000000000E+00 0. -1.
         11    1    4    4    0    0  0.91909434624E+01  0.22761698727E+02  0.34653694026E+01  0.24790666707E+02  0.00000000000E+00 0.  1.
          1    1    1    2  501    0  0.40512990911E+02  0.15909989844E+02  0.12193368746E+02  0.45200757192E+02  0.00000000000E+00 0. -1.
<scales pt_clust_5="13000.00000" pt_clust_6="13000.00000" pt_clust_7="13000.00000" pt_clust_8="13000.00000" pt_clust_9="43.52505"></scales>
<clustering>
<clus scale="   43.525">  2  9  1 -1</clus>
<clus scale="   91.120">  7  8 -1 -1</clus>
<clus scale="   91.898">  5  6 -1 -1</clus>
<clus scale="  106.991">  2  7  1 -1</clus>
<clus scale="   43.525">  2  5  1 -1</clus>
</clustering>
</event>
<event>
 9    1  0.1321469E-005  0.9270789E+02  0.7546771E-02  0.1296825E+00
         21   -1    0    0  501  502  0.00000000000E+00  0.00000000000E+00  0.66184014135E+03  0.66184014135E+03  0.00000000000E+00 0. -1.
          3   -1    0    0  502    0 -0.00000000000E+00 -0.00000000000E+00 -0.62943524180E+02  0.62943524180E+02  0.00000000000E+00 0. -1.
         23    2    1    2    0    0  0.18248667717E+02 -0.94903615635E+01 -0.91451328807E+01  0.93428123455E+02  0.90675795894E+02 0.  0.
         23    2    1    2    0    0  0.90355648004E+00 -0.37915745371E+02  0.23718330819E+03  0.25698923675E+03  0.91373551739E+02 0.  0.
        -11    1    4    4    0    0  0.32312617363E+02  0.15982338907E+02  0.74739533415E+02  0.82979143482E+02  0.00000000000E+00 0.  1.
         11    1    4    4    0    0 -0.31409060883E+02 -0.53898084279E+02  0.16244377478E+03  0.17401009327E+03  0.00000000000E+00 0. -1.
        -13    1    3    3    0    0 -0.10710895060E+02  0.34447983428E+02  0.99919036635E+01  0.37432939693E+02  0.00000000000E+00 0.  1.
         13    1    3    3    0    0  0.28959562777E+02 -0.43938344992E+02 -0.19137036544E+02  0.55995183762E+02  0.00000000000E+00 0. -1.
          3    1    1    2  501    0 -0.19152224197E+02  0.47406106935E+02  0.37085844185E+03  0.37436630532E+03  0.00000000000E+00 0. -1.
<scales pt_clust_5="13000.00000" pt_clust_6="13000.00000" pt_clust_7="13000.00000" pt_clust_8="13000.00000" pt_clust_9="51.12873"></scales>
<clustering>
<clus scale="   51.129">  1  9  2 -1</clus>
<clus scale="   90.676">  7  8 -1 -1</clus>
<clus scale="   91.374">  5  6 -1 -1</clus>
<clus scale="   92.020">  2  7  1 -1</clus>
<clus scale="   51.129">  1  5  2 -1</clus>
</clustering>
</event>
<event>
 9    1  0.1321469E-005  0.1056991E+03  0.7546771E-02  0.1271155E+00
         -2   -1    0    0    0  501 -0.00000000000E+00  0.00000000000E+00  0.21241464726E+03  0.21241464726E+03  0.00000000000E+00 0.  1.
         21   -1    0    0  501  502  0.00000000000E+00 -0.00000000000E+00 -0.10674527693E+03  0.10674527693E+03  0.00000000000E+00 0.  1.
         23    2    1    2    0    0 -0.39637800335E+02 -0.33930889245E+01  0.90297139910E+02  0.13482904139E+03  0.91883777996E+02 0.  0.
         23    2    1    2    0    0  0.69993219747E+02  0.85041648001E+01  0.62697800825E+02  0.12787484506E+03  0.86311008222E+02 0.  0.
        -13    1    3    3    0    0 -0.43880037725E+02  0.35491775603E+02  0.72441379085E+02  0.91830698843E+02  0.00000000000E+00 0.  1.
         13    1    3    3    0    0  0.42422373895E+01 -0.38884864527E+02  0.17855760825E+02  0.42998342549E+02  0.00000000000E+00 0. -1.
        -13    1    4    4    0    0  0.48479718102E+02 -0.21488719352E+02 -0.23538757377E+01  0.53080965116E+02  0.00000000000E+00 0. -1.
         13    1    4    4    0    0  0.21513501644E+02  0.29992884153E+02  0.65051676563E+02  0.74793879940E+02  0.00000000000E+00 0.  1.
         -2    1    1    2    0  502 -0.30355419412E+02 -0.51110758756E+01 -0.47325570402E+02  0.56456037747E+02  0.00000000000E+00 0.  1.
<scales pt_clust_5="13000.00000" pt_clust_6="13000.00000" pt_clust_7="13000.00000" pt_clust_8="13000.00000" pt_clust_9="30.78270"></scales>
<clustering>
<clus scale="   30.783">  2  9  1 -1</clus>
<clus scale="   86.311">  7  8 -1 -1</clus>
<clus scale="   91.884">  5  6 -1 -1</clus>
<clus scale="  100.892">  2  7  1 -1</clus>
<clus scale="   30.783">  2  5  1 -1</clus>
</clustering>
</event>
<event>
 9    1  0.1321469E-005  0.8958870E+02  0.7546771E-02  0.1304347E+00
         -1   -1    0    0    0  501 -0.00000000000E+00  0.00000000000E+00  0.39357596770E+03  0.39357596770E+03  0.00000000000E+00 0.  1.
         21   -1    0    0  501  502  0.00000000000E+00 -0.00000000000E+00 -0.13656041906E+03  0.13656041906E+03  0.00000000000E+00 0.  1.
         23    2    1    2    0    0  0.49410714364E+01 -0.14241823392E+02  0.18638955630E+03  0.20617413508E+03  0.86830084407E+02 0.  0.
         23    2    1    2    0    0  0.41241064969E+02  0.41961991948E+01  0.18019873624E+03  0.20463123940E+03  0.87658006295E+02 0.  0.
        -11    1    3    3    0    0  0.19432777421E+02  0.32752623647E+02  0.95888677470E+02  0.10317463671E+03  0.00000000000E+00 0.  1.
         11    1    3    3    0    0 -0.14491705985E+02 -0.46994447039E+02  0.90500878830E+02  0.10299949837E+03  0.00000000000E+00 0. -1.
        -11    1    4    4    0    0  0.60059951665E+02 -0.22557675291E+02  0.11490127435E+03  0.13159919968E+03  0.00000000000E+00 0.  1.
         11    1    4    4    0    0 -0.18818886696E+02  0.26753874486E+02  0.65297461887E+02  0.73032039718E+02  0.00000000000E+00 0. -1.
         -1    1    1    2    0  502 -0.46182136405E+02  0.10045624197E+02 -0.10957274389E+03  0.11933101228E+03  0.00000000000E+00 0.  1.
<scales pt_clust_5="13000.00000" pt_clust_6="13000.00000" pt_clust_7="13000.00000" pt_clust_8="13000.00000" pt_clust_9="47.26208"></scales>
<clustering>
<clus scale="   47.262">  2  9  1 -1</clus>
<clus scale="   86.830">  5  6 -1 -1</clus>
<clus scale="   87.658">  7  8 -1 -1</clus>
<clus scale="   88.779">  1  5  2 -1</clus>
<clus scale="   47.262">  2  5  1 -1</clus>
</clustering>
</event>
<event>
 9    1  0.1321469E-005  0.1220454E+03  0.7546771E-02  0.1239912E+00
          1   -1    0    0  502    0 -0.00000000000E+00  0.00000000000E+00  0.76219171491E+03  0.76219171491E+03  0.00000000000E+00 0. -1.
         21   -1    0    0  501  502  0.00000000000E+00 -0.00000000000E+00 -0.97110399075E+02  0.97110399075E+02  0.00000000000E+00 0. -1.
         23    2    1    2    0    0 -0.65275995497E+02  0.23314369565E+02  0.47284447835E+03  0.48677524563E+03  0.92540389209E+02 0.  0.
         23    2    1    2    0    0  0.13191579296E+03  0.44448181618E+02  0.21722088005E+03  0.27425770567E+03  0.93032043439E+02 0.  0.
        -11    1    3    3    0    0 -0.78599223620E+02  0.42612896693E+02  0.41150642100E+03  0.42110714960E+03  0.00000000000E+00 0.  1.
         11    1    3    3    0    0  0.13323228124E+02 -0.19298527128E+02  0.61338057356E+02  0.65668096037E+02  0.00000000000E+00 0. -1.
        -13    1    4    4    0    0  0.11615453895E+03  0.20123652433E+02  0.10340820283E+03  0.15681229135E+03  0.00000000000E+00 0. -1.
         13    1    4    4    0    0  0.15761254013E+02  0.24324529185E+02  0.11381267722E+03  0.11744541432E+03  0.00000000000E+00 0.  1.
          1    1    1    2  501    0 -0.66639797468E+02 -0.67762551183E+02 -0.24984042578E+02  0.98269162676E+02  0.00000000000E+00 0. -1.
<scales pt_clust_5="13000.00000" pt_clust_6="13000.00000" pt_clust_7="13000.00000" pt_clust_8="13000.00000" pt_clust_9="95.04013"></scales>
<clustering>
<clus scale="   92.540">  5  6 -1 -1</clus>
<clus scale="   93.032">  7  8 -1 -1</clus>
<clus scale="   95.040">  2  9  1 -1</clus>
<clus scale="  121.671">  1  5  2 -1</clus>
<clus scale="   95.040">  2  5  1 -1</clus>
</clustering>
</event>
<event>
 9    1  0.1321469E-005  0.1318701E+03  0.7546771E-02  0.1224737E+00
         -3   -1    0    0    0  501 -0.00000000000E+00  0.00000000000E+00  0.11457026997E+03  0.11457026997E+03  0.00000000000E+00 0.  1.
         21   -1    0    0  501  502  0.00000000000E+00 -0.00000000000E+00 -0.32317473406E+03  0.32317473406E+03  0.00000000000E+00 0.  1.
         23    2    1    2    0    0  0.90562006357E+02 -0.59378736540E+02  0.24768561477E+02  0.14347378941E+03  0.90796119195E+02 0.  0.
         23    2    1    2    0    0 -0.58335704287E+02  0.38943224050E+02 -0.89968345098E+02  0.14587631209E+03  0.90917359266E+02 0.  0.
        -13    1    3    3    0    0 -0.95326622003E+01 -0.19866060195E+02 -0.17215436552E+02  0.27962533004E+02  0.00000000000E+00 0. -1.
         13    1    3    3    0    0  0.10009466856E+03 -0.39512676344E+02  0.41983998029E+02  0.11551125640E+03  0.00000000000E+00 0.  1.
        -13    1    4    4    0    0 -0.14530347152E+02 -0.23327840511E+02 -0.56257246270E+02  0.62611475699E+02  0.00000000000E+00 0. -1.
         13    1    4    4    0    0 -0.43805357136E+02  0.62271064562E+02 -0.33711098827E+02  0.83264836393E+02  0.00000000000E+00 0.  1.
         -3    1    1    2    0  502 -0.32226302070E+02  0.20435512489E+02 -0.14340468047E+03  0.14839490253E+03  0.00000000000E+00 0.  1.
<scales pt_clust_5="13000.00000" pt_clust_6="13000.00000" pt_clust_7="13000.00000" pt_clust_8="13000.00000" pt_clust_9="38.15946"></scales>
<clustering>
<clus scale="   38.159">  2  9  1 -1</clus>
<clus scale="   90.796">  5  6 -1 -1</clus>
<clus scale="   90.917">  7  8 -1 -1</clus>
<clus scale="  131.787">  1  5  2 -1</clus>
<clus scale="   38.159">  2  5  1 -1</clus>
</clustering>
</event>
<event>
 9    1  0.1321469E-005  0.1323838E+03  0.7546771E-02  0.1224159E+00
         -1   -1    0    0    0  501 -0.00000000000E+00  0.00000000000E+00  0.50216329088E+03  0.50216329088E+03  0.00000000000E+00 0.  1.
         21   -1    0    0  501  502  0.00000000000E+00 -0.00000000000E+00 -0.55112671564E+02  0.55112671564E+02  0.00000000000E+00 0.  1.
         23    2    1    2    0    0 -0.63076539814E+02 -0.48313659310E+02  0.16345811651E+03  0.20416613714E+03  0.93018257078E+02 0.  0.
         23    2    1    2    0    0  0.11417450238E+03  0.19091636774E+02  0.22995705812E+03  0.27347510106E+03  0.92239225558E+02 0.  0.
        -11    1    4    4    0    0  0.11151946185E+02  0.33868307499E+02  0.10479100542E+03  0.11069138618E+03  0.00000000000E+00 0. -1.
         11    1    4    4    0    0  0.10302255619E+03 -0.14776670725E+02  0.12516605269E+03  0.16278371488E+03  0.00000000000E+00 0.  1.
        -13    1    3    3    0    0 -0.21653462939E+02  0.27428316111E+02  0.59854619492E+02  0.69309165747E+02  0.00000000000E+00 0. -1.
         13    1    3    3    0    0 -0.41423076876E+02 -0.75741975420E+02  0.10360349702E+03  0.13485697139E+03  0.00000000000E+00 0.  1.
         -1    1    1    2    0  502 -0.51097962566E+02  0.29222022535E+02  0.53635444691E+02  0.79634724252E+02  0.00000000000E+00 0.  1.
<scales pt_clust_5="13000.00000" pt_clust_6="13000.00000" pt_clust_7="13000.00000" pt_clust_8="13000.00000" pt_clust_9="58.86364"></scales>
<clustering>
<clus scale="   58.864">  2  9  1 -1</clus>
<clus scale="   92.239">  5  6 -1 -1</clus>
<clus scale="   93.018">  7  8 -1 -1</clus>
<clus scale="  131.838">  2  5  1 -1</clus>
<clus scale="   58.864">  2  5  1 -1</clus>
</clustering>
</event>
<event>
 9    1  0.1321469E-005  0.1405680E+03  0.7546771E-02  0.1213540E+00
          2   -1    0    0  502    0 -0.00000000000E+00  0.00000000000E+00  0.56178674339E+03  0.56178674339E+03  0.00000000000E+00 0. -1.
         21   -1    0    0  501  502  0.00000000000E+00 -0.00000000000E+00 -0.20931571214E+03  0.20931571214E+03  0.00000000000E+00 0. -1.
         23    2    1    2    0    0  0.67329951150E+02 -0.75284423049E+02  0.24949733858E+03  0.28444264040E+03  0.91965357843E+02 0.  0.
         23    2    1    2    0    0 -0.52552710830E+02  0.10029976325E+03  0.27616893271E+03  0.31104453889E+03  0.87507690286E+02 0.  0.
        -11    1    3    3    0    0 -0.19848724496E+02 -0.32568423858E+02  0.53301372689E+02  0.65541669396E+02  0.00000000000E+00 0.  1.
         11    1    3    3    0    0  0.87178675645E+02 -0.42715999190E+02  0.19619596589E+03  0.21890097101E+03  0.00000000000E+00 0. -1.
        -13    1    4    4    0    0  0.16608101061E+02  0.47068675478E+02  0.14625724296E+03  0.15453954300E+03  0.00000000000E+00 0. -1.
         13    1    4    4    0    0 -0.69160811892E+02  0.53231087772E+02  0.12991168975E+03  0.15650499589E+03  0.00000000000E+00 0.  1.
          2    1    1    2  501    0 -0.14777240319E+02 -0.25015340201E+02 -0.17319524004E+03  0.17561527624E+03  0.00000000000E+00 0. -1.
<scales pt_clust_5="13000.00000" pt_clust_6="13000.00000" pt_clust_7="13000.00000" pt_clust_8="13000.00000" pt_clust_9="29.05399"></scales>
<clustering>
<clus scale="   29.054">  2  9  1 -1</clus>
<clus scale="   87.508">  7  8 -1 -1</clus>
<clus scale="   91.965">  5  6 -1 -1</clus>
<clus scale="  137.693">  2  7  1 -1</clus>
<clus scale="   29.054">  2  5  1 -1</clus>
</clustering>
</event>
<event>
 9    1  0.1321469E-005  0.1013191E+03  0.7546771E-02  0.1278710E+00
         21   -1    0    0  501  502  0.00000000000E+00  0.00000000000E+00  0.56395104442E+03  0.56395104442E+03  0.00000000000E+00 0. -1.
          1   -1    0    0  502    0 -0.00000000000E+00 -0.00000000000E+00 -0.59712802755E+02  0.59712802755E+02  0.00000000000E+00 0. -1.
         23    2    1    2    0    0  0.10898255025E+02 -0.41153799157E+02  0.29427682504E+02  0.10482209087E+03  0.91155225246E+02 0.  0.
         23    2    1    2    0    0 -0.63130932875E+02 -0.11851314865E+01  0.15330574947E+03  0.19038143855E+03  0.93570936204E+02 0.  0.
        -11    1    3    3    0    0  0.19727503260E+02  0.52745972488E+01 -0.25299795923E+02  0.32512696516E+02  0.00000000000E+00 0.  1.
         11    1    3    3    0    0 -0.88292482355E+01 -0.46428396405E+02  0.54727478426E+02  0.72309394356E+02  0.00000000000E+00 0. -1.
        -13    1    4    4    0    0  0.16743854212E+02  0.23289907326E+02  0.48588510243E+02  0.56423574548E+02  0.00000000000E+00 0.  1.
         13    1    4    4    0    0 -0.79874787087E+02 -0.24475038813E+02  0.10471723923E+03  0.13395786400E+03  0.00000000000E+00 0. -1.
          1    1    1    2  501    0  0.52232677850E+02  0.42338930643E+02  0.32150480969E+03  0.32846031775E+03  0.00000000000E+00 0. -1.
<scales pt_clust_5="13000.00000" pt_clust_6="13000.00000" pt_clust_7="13000.00000" pt_clust_8="13000.00000" pt_clust_9="67.23717"></scales>
<clustering>
<clus scale="   67.237">  1  9  2 -1</clus>
<clus scale="   91.155">  5  6 -1 -1</clus>
<clus scale="   93.571">  7  8 -1 -1</clus>
<clus scale="   99.092">  2  5  1 -1</clus>
<clus scale="   67.237">  1  5  2 -1</clus>
</clustering>
</event>
<event>
 9    1  0.1321469E-005  0.1762104E+03  0.7546771E-02  0.1171529E+00
         21   -1    0    0  501  502  0.00000000000E+00  0.00000000000E+00  0.55197619689E+02  0.55197619689E+02  0.00000000000E+00 0.  1.
          3   -1    0    0  502    0 -0.00000000000E+00 -0.00000000000E+00 -0.84798491277E+03  0.84798491277E+03  0.00000000000E+00 0. -1.
         23    2    1    2    0    0 -0.14411014846E+03 -0.21739693707E+02 -0.56154442953E+03  0.58719000223E+03  0.90662027388E+02 0.  0.
         23    2    1    2    0    0  0.16520501605E+03  0.14301349011E+02 -0.22266172244E+03  0.29203510146E+03  0.90603708183E+02 0.  0.
        -11    1    4    4    0    0  0.20902506738E+02 -0.26440942004E+02 -0.17666692081E+02  0.38054568859E+02  0.00000000000E+00 0. -1.
         11    1    4    4    0    0  0.14430250931E+03  0.40742291015E+02 -0.20499503036E+03  0.25398053260E+03  0.00000000000E+00 0.  1.
        -13    1    3    3    0    0 -0.31078001953E+02 -0.17989734919E+02 -0.41001545222E+02  0.54503206130E+02  0.00000000000E+00 0.  1.
         13    1    3    3    0    0 -0.11303214650E+03 -0.37499587885E+01 -0.52054288430E+03  0.53268679610E+03  0.00000000000E+00 0. -1.
          3    1    1    2  501    0 -0.21094867590E+02  0.74383446964E+01 -0.85811411157E+01  0.23957428771E+02  0.00000000000E+00 0. -1.
<scales pt_clust_5="13000.00000" pt_clust_6="13000.00000" pt_clust_7="13000.00000" pt_clust_8="13000.00000" pt_clust_9="22.36789"></scales>
<clustering>
<clus scale="   22.368">  1  9  2 -1</clus>
<clus scale="   90.604">  5  6 -1 -1</clus>
<clus scale="   90.662">  7  8 -1 -1</clus>
<clus scale="  176.180">  1  5  2 -1</clus>
<clus scale="   22.368">  1  5  2 -1</clus>
</clustering>
</event>
<event>
 9    1  0.1321469E-005  0.1219653E+03  0.7546771E-02  0.1242729E+00
         21   -1    0    0  501  502  0.00000000000E+00  0.00000000000E+00  0.10231193012E+03  0.10231193012E+03  0.00000000000E+00 0.  1.
          1   -1    0    0  502    0 -0.00000000000E+00 -0.00000000000E+00 -0.39869266819E+03  0.39869266819E+03  0.00000000000E+00 0. -1.
         23    2    1    2    0    0 -0.10558550239E+02  0.59142535095E+02 -0.16961190390E+03  0.20023335705E+03  0.87840064270E+02 0.  0.
         23    2    1    2    0    0  0.13788526954E+01 -0.95931098624E+02 -0.18596124713E+03  0.23047609913E+03  0.96607297428E+02 0.  0.
        -11    1    3    3    0    0 -0.37489914330E+02  0.62536893635E+02 -0.14988155082E+03  0.16667584114E+03  0.00000000000E+00 0. -1.
         11    1    3    3    0    0  0.26931364092E+02 -0.33943585400E+01 -0.19730353078E+02  0.33557515914E+02  0.00000000000E+00 0.  1.
        -13    1    4    4    0    0  0.39043374644E+02 -0.87094308965E+02 -0.11318770266E+03  0.14805829863E+03  0.00000000000E+00 0.  1.
         13    1    4    4    0    0 -0.37664521949E+02 -0.88367896591E+01 -0.72773544469E+02  0.82417800503E+02  0.00000000000E+00 0. -1.
          1    1    1    2  501    0  0.91796975432E+01  0.36788563529E+02  0.59192412962E+02  0.70295142121E+02  0.00000000000E+00 0. -1.
<scales pt_clust_5="13000.00000" pt_clust_6="13000.00000" pt_clust_7="13000.00000" pt_clust_8="13000.00000" pt_clust_9="37.91656"></scales>
<clustering>
<clus scale="   37.917">  1  9  2 -1</clus>
<clus scale="   87.840">  5  6 -1 -1</clus>
<clus scale="   96.607">  7  8 -1 -1</clus>
<clus scale="  115.145">  2  5  1 -1</clus>
<clus scale="   37.917">  1  5  2 -1</clus>
</clustering>
</event>
<event>
 9    1  0.1321469E-005  0.1242568E+03  0.7546771E-02  0.1237247E+00
          1   -1    0    0  502    0 -0.00000000000E+00  0.00000000000E+00  0.47834044767E+03  0.47834044767E+03  0.00000000000E+00 0. -1.
         21   -1    0    0  501  502  0.00000000000E+00 -0.00000000000E+00 -0.10374166559E+03  0.10374166559E+03  0.00000000000E+00 0.  1.
         23    2    1    2    0    0  0.64629457163E+02  0.59397761224E+02  0.34702009243E+03  0.36952407577E+03  0.91760760986E+02 0.  0.
         23    2    1    2    0    0 -0.46805790644E+02 -0.39286556786E+02  0.90065938074E+02  0.14453745348E+03  0.95105134857E+02 0.  0.
        -13    1    4    4    0    0 -0.41103383826E+02 -0.70321472542E+02  0.63230755943E+02  0.10311511121E+03  0.00000000000E+00 0. -1.
         13    1    4    4    0    0 -0.57024068173E+01  0.31034915756E+02  0.26835182131E+02  0.41422342274E+02  0.00000000000E+00 0.  1.
        -13    1    3    3    0    0  0.17740989699E+02  0.38077737324E+02  0.39307501474E+02  0.57530309119E+02  0.00000000000E+00 0.  1.
         13    1    3    3    0    0  0.46888467464E+02  0.21320023900E+02  0.30771259095E+03  0.31199376666E+03  0.00000000000E+00 0. -1.
          1    1    1    2  501    0 -0.17823666520E+02 -0.20111204438E+02 -0.62487248420E+02  0.68020583996E+02  0.00000000000E+00 0. -1.
<scales pt_clust_5="13000.00000" pt_clust_6="13000.00000" pt_clust_7="13000.00000" pt_clust_8="13000.00000" pt_clust_9="26.87273"></scales>
<clustering>
<clus scale="   26.873">  2  9  1 -1</clus>
<clus scale="   91.761">  7  8 -1 -1</clus>
<clus scale="   95.105">  5  6 -1 -1</clus>
<clus scale="  121.716">  1  7  2 -1</clus>
<clus scale="   26.873">  2  5  1 -1</clus>
</clustering>
</event>
<event>
 9    1  0.1321469E-005  0.2284974E+03  0.7546771E-02  0.1127908E+00
          1   -1    0    0  502    0 -0.00000000000E+00  0.00000000000E+00  0.33741277738E+03  0.33741277738E+03  0.00000000000E+00 0. -1.
         21   -1    0    0  501  502  0.00000000000E+00 -0.00000000000E+00 -0.25690772792E+03  0.25690772792E+03  0.00000000000E+00 0. -1.
         23    2    1    2    0    0 -0.16122743182E+03 -0.15205859513E+03  0.19964372933E+03  0.31169833285E+03  0.90455132093E+02 0.  0.
         23    2    1    2    0    0  0.12139565611E+03  0.13504722428E+03 -0.61920497072E+02  0.21085952523E+03  0.87481045453E+02 0.  0.
        -11    1    3    3    0    0 -0.45473970694E+02 -0.27516431074E+02  0.52072227696E+01  0.53405534907E+02  0.00000000000E+00 0.  1.
         11    1    3    3    0    0 -0.11575346112E+03 -0.12454216405E+03  0.19443650656E+03  0.25829279795E+03  0.00000000000E+00 0. -1.
        -13    1    4    4    0    0  0.33636327884E+02  0.51286082581E+02 -0.65180483514E+02  0.89499498608E+02  0.00000000000E+00 0. -1.
         13    1    4    4    0    0  0.87759328230E+02  0.83761141697E+02  0.32599864419E+01  0.12136002662E+03  0.00000000000E+00 0.  1.
          1    1    1    2  501    0  0.39831775701E+02  0.17011370849E+02 -0.57218182792E+02  0.71762647218E+02  0.00000000000E+00 0. -1.
<scales pt_clust_5="13000.00000" pt_clust_6="13000.00000" pt_clust_7="13000.00000" pt_clust_8="13000.00000" pt_clust_9="43.31232"></scales>
<clustering>
<clus scale="   43.312">  2  9  1 -1</clus>
<clus scale="   87.481">  7  8 -1 -1</clus>
<clus scale="   90.455">  5  6 -1 -1</clus>
<clus scale="  227.336">  2  7  1 -1</clus>
<clus scale="   43.312">  2  5  1 -1</clus>
</clustering>
</event>
<event>
 9    1  0.1321469E-005  0.1011060E+03  0.7546771E-02  0.1278322E+00
         21   -1    0    0  501  502  0.00000000000E+00  0.00000000000E+00  0.12475905100E+03  0.12475905100E+03  0.00000000000E+00 0. -1.
          1   -1    0    0  502    0 -0.00000000000E+00 -0.00000000000E+00 -0.56443696650E+03  0.56443696650E+03  0.00000000000E+00 0. -1.
         23    2    1    2    0    0 -0.45964333517E+02  0.41186204369E+02 -0.37498794680E+03  0.39086632413E+03  0.91386540040E+02 0.  0.
         23    2    1    2    0    0  0.15707067349E+02  0.34096361269E+01 -0.16203137598E+03  0.18706585955E+03  0.92093058493E+02 0.  0.
        -11    1    3    3    0    0 -0.28736097440E+02 -0.22332999586E+02 -0.70419297232E+02  0.79267922827E+02  0.00000000000E+00 0.  1.
         11    1    3    3    0    0 -0.17228236077E+02  0.63519203955E+02 -0.30456864957E+03  0.31159840130E+03  0.00000000000E+00 0. -1.
        -13    1    4    4    0    0 -0.21206986482E+02 -0.12128806890E+02 -0.13844849635E+03  0.14058744742E+03  0.00000000000E+00 0.  1.
         13    1    4    4    0    0  0.36914053831E+02  0.15538443017E+02 -0.23582879631E+02  0.46478412121E+02  0.00000000000E+00 0. -1.
          1    1    1    2  501    0  0.30257266169E+02 -0.44595840496E+02  0.97341407280E+02  0.11126383382E+03  0.00000000000E+00 0. -1.
<scales pt_clust_5="13000.00000" pt_clust_6="13000.00000" pt_clust_7="13000.00000" pt_clust_8="13000.00000" pt_clust_9="53.89148"></scales>
<clustering>
<clus scale="   53.891">  1  9  2 -1</clus>
<clus scale="   91.387">  5  6 -1 -1</clus>
<clus scale="   92.093">  7  8 -1 -1</clus>
<clus scale="  100.463">  2  5  1 -1</clus>
<clus scale="   53.891">  1  5  2 -1</clus>
</clustering>
</event>
<event>
 9    1  0.1321469E-005  0.9736998E+02  0.7546771E-02  0.1286225E+00
         21   -1    0    0  501  502  0.00000000000E+00  0.00000000000E+00  0.38896110628E+02  0.38896110628E+02  0.00000000000E+00 0.  1.
          1   -1    0    0  502    0 -0.00000000000E+00 -0.00000000000E+00 -0.45471687924E+03  0.45471687924E+03  0.00000000000E+00 0. -1.
         23    2    1    2    0    0 -0.38119735692E+02 -0.31598396816E+01 -0.20082751989E+03  0.22414420789E+03  0.91901220616E+02 0.  0.
         23    2    1    2    0    0  0.65306888429E+01  0.43709846184E+02 -0.18206644162E+03  0.20842498184E+03  0.91321319216E+02 0.  0.
        -13    1    4    4    0    0 -0.26793266915E+02 -0.17305184859E+02 -0.54727896133E+02  0.63344227756E+02  0.00000000000E+00 0. -1.
         13    1    4    4    0    0  0.33323955758E+02  0.61015031043E+02 -0.12733854548E+03  0.14508075409E+03  0.00000000000E+00 0.  1.
        -13    1    3    3    0    0 -0.19086087475E+02 -0.32843381527E+02 -0.17829799270E+03  0.18229959036E+03  0.00000000000E+00 0. -1.
         13    1    3    3    0    0 -0.19033648217E+02  0.29683541846E+02 -0.22529527192E+02  0.41844617533E+02  0.00000000000E+00 0.  1.
          1    1    1    2  501    0  0.31589046849E+02 -0.40550006502E+02 -0.32926807099E+02  0.61043800127E+02  0.00000000000E+00 0. -1.
<scales pt_clust_5="13000.00000" pt_clust_6="13000.00000" pt_clust_7="13000.00000" pt_clust_8="13000.00000" pt_clust_9="51.40205"></scales>
<clustering>
<clus scale="   51.402">  1  9  2 -1</clus>
<clus scale="   91.321">  5  6 -1 -1</clus>
<clus scale="   91.901">  7  8 -1 -1</clus>
<clus scale="   96.823">  1  5  2 -1</clus>
<clus scale="   51.402">  1  5  2 -1</clus>
</clustering>
</event>
<event>
 9    1  0.1321469E-005  0.1087643E+03  0.7546771E-02  0.1263201E+00
         21   -1    0    0  501  502  0.00000000000E+00  0.00000000000E+00  0.29207019415E+03  0.29207019415E+03  0.00000000000E+00 0. -1.
         -2   -1    0    0    0  501 -0.00000000000E+00 -0.00000000000E+00 -0.67612160458E+02  0.67612160458E+02  0.00000000000E+00 0.  1.
         23    2    1    2    0    0 -0.47024113317E+02 -0.24902147738E+02  0.19749184640E+02  0.10840144755E+03  0.92355072090E+02 0.  0.
         23    2    1    2    0    0  0.45017597693E+02  0.51673330273E+02  0.18419449126E+03  0.21749390964E+03  0.93162615662E+02 0.  0.
        -11    1    3    3    0    0  0.79107923677E+01  0.22161508056E+02  0.26865787652E+02  0.35713913554E+02  0.00000000000E+00 0. -1.
         11    1    3    3    0    0 -0.54934905685E+02 -0.47063655794E+02 -0.71166030122E+01  0.72687533991E+02  0.00000000000E+00 0.  1.
        -11    1    4    4    0    0  0.50408637423E+02  0.75717018708E+00  0.14347719733E+03  0.15207665892E+03  0.00000000000E+00 0. -1.
         11    1    4    4    0    0 -0.53910397296E+01  0.50916160086E+02  0.40717293925E+02  0.65417250721E+02  0.00000000000E+00 0.  1.
         -2    1    1    2    0  502  0.20065156237E+01 -0.26771182535E+02  0.20514357800E+02  0.33786997428E+02  0.00000000000E+00 0.  1.
<scales pt_clust_5="13000.00000" pt_clust_6="13000.00000" pt_clust_7="13000.00000" pt_clust_8="13000.00000" pt_clust_9="26.84629"></scales>
<clustering>
<clus scale="   26.846">  1  9  2 -1</clus>
<clus scale="   92.355">  5  6 -1 -1</clus>
<clus scale="   93.163">  7  8 -1 -1</clus>
<clus scale="  108.073">  2  5  1 -1</clus>
<clus scale="   26.846">  1  5  2 -1</clus>
</clustering>
</event>
<event>
 9    1  0.1321469E-005  0.1087865E+03  0.7546771E-02  0.1266962E+00
         21   -1    0    0  501  502  0.00000000000E+00  0.00000000000E+00  0.61173629778E+03  0.61173629778E+03  0.00000000000E+00 0. -1.
          1   -1    0    0  502    0 -0.00000000000E+00 -0.00000000000E+00 -0.25518566141E+03  0.25518566141E+03  0.00000000000E+00 0. -1.
         23    2    1    2    0    0  0.34653225360E+02 -0.51058493194E+02 -0.22234450312E+03  0.24767459300E+03  0.89987833599E+02 0.  0.
         23    2    1    2    0    0  0.46262298940E+02  0.86351828200E+02  0.27120507180E+03  0.29914407141E+03  0.79612473629E+02 0.  0.
        -11    1    3    3    0    0  0.41937904601E+02  0.78574894414E+01 -0.51897387668E+02  0.67185317067E+02  0.00000000000E+00 0.  1.
         11    1    3    3    0    0 -0.72846792412E+01 -0.58915982635E+02 -0.17044711545E+03  0.18048927594E+03  0.00000000000E+00 0. -1.
        -13    1    4    4    0    0 -0.18081223820E+02  0.20684937550E+02  0.28389021702E+02  0.39506124202E+02  0.00000000000E+00 0.  1.
         13    1    4    4    0    0  0.64343522760E+02  0.65666890650E+02  0.24281605009E+03  0.25963794721E+03  0.00000000000E+00 0. -1.
          1    1    1    2  501    0 -0.80915524299E+02 -0.35293335006E+02  0.30769006770E+03  0.32010329478E+03  0.00000000000E+00 0. -1.
<scales pt_clust_5="13000.00000" pt_clust_6="13000.00000" pt_clust_7="13000.00000" pt_clust_8="13000.00000" pt_clust_9="88.27764"></scales>
<clustering>
<clus scale="   79.612">  7  8 -1 -1</clus>
<clus scale="   88.278">  1  9  2 -1</clus>
<clus scale="   89.988">  5  6 -1 -1</clus>
<clus scale="  100.374">  1  7  2 -1</clus>
<clus scale="   88.278">  1  5  2 -1</clus>
</clustering>
</event>
<event>
 9    1  0.1321469E-005  0.1063175E+03  0.7546771E-02  0.1268933E+00
         21   -1    0    0  501  502  0.00000000000E+00  0.00000000000E+00  0.21187944242E+03  0.21187944242E+03  0.00000000000E+00 0.  1.
          2   -1    0    0  502    0 -0.00000000000E+00 -0.00000000000E+00 -0.16816474952E+03  0.16816474952E+03  0.00000000000E+00 0. -1.
         23    2    1    2    0    0  0.93388043645E+00 -0.53406265082E+02 -0.58630027819E+02  0.12284759916E+03  0.93813384835E+02 0.  0.
         23    2    1    2    0    0  0.93997271200E+02  0.16888136462E+02  0.38695158793E+02  0.13721007686E+03  0.90601289894E+02 0.  0.
        -11    1    4    4    0    0  0.81899941883E+02 -0.23578306203E+02  0.41672979726E+02  0.94869248142E+02  0.00000000000E+00 0.  1.
         11    1    4    4    0    0  0.12097329317E+02  0.40466442665E+02 -0.29778209327E+01  0.42340828713E+02  0.00000000000E+00 0. -1.
        -13    1    3    3    0    0  0.32120872374E+02 -0.15364386138E+02 -0.64127759488E+02  0.73349739880E+02  0.00000000000E+00 0.  1.
         13    1    3    3    0    0 -0.31186991937E+02 -0.38041878944E+02  0.54977316687E+01  0.49497859279E+02  0.00000000000E+00 0. -1.
          2    1    1    2  501    0 -0.94931151636E+02  0.36518128620E+02  0.63649561927E+02  0.11998651592E+03  0.00000000000E+00 0. -1.
<scales pt_clust_5="13000.00000" pt_clust_6="13000.00000" pt_clust_7="13000.00000" pt_clust_8="13000.00000" pt_clust_9="101.71282"></scales>
<clustering>
<clus scale="   90.601">  5  6 -1 -1</clus>
<clus scale="   93.813">  7  8 -1 -1</clus>
<clus scale="  101.713">  1  9  2 -1</clus>
<clus scale="  103.494">  1  5  2 -1</clus>
<clus scale="  101.713">  1  5  2 -1</clus>
</clustering>
</event>
<event>
 9    1  0.1321469E-005  0.1108533E+03  0.7546771E-02  0.1260521E+00
         21   -1    0    0  501  502  0.00000000000E+00  0.00000000000E+00  0.65234543018E+02  0.65234543018E+02  0.00000000000E+00 0. -1.
         -3   -1    0    0    0  501 -0.00000000000E+00 -0.00000000000E+00 -0.22555583153E+03  0.22555583153E+03  0.00000000000E+00 0.  1.
         23    2    1    2    0    0 -0.16020198303E+02 -0.51138240565E+02 -0.79663902007E+02  0.13353482847E+03  0.92808656539E+02 0.  0.
         23    2    1    2    0    0  0.35718523982E+02  0.60270123748E+02 -0.65255227221E+02  0.13063521859E+03  0.88876402294E+02 0.  0.
        -11    1    4    4    0    0  0.14810456782E+02 -0.22590365268E+02 -0.96732043234E+01  0.28692248342E+02  0.00000000000E+00 0.  1.
         11    1    4    4    0    0  0.20908067200E+02  0.82860489016E+02 -0.55582022897E+02  0.10194297025E+03  0.00000000000E+00 0. -1.
        -11    1    3    3    0    0  0.32409798085E+02  0.46652846385E+01 -0.30779126203E+02  0.44939008696E+02  0.00000000000E+00 0.  1.
         11    1    3    3    0    0 -0.48429996388E+02 -0.55803525203E+02 -0.48884775804E+02  0.88595819770E+02  0.00000000000E+00 0. -1.
         -3    1    1    2    0  502 -0.19698325679E+02 -0.91318831836E+01 -0.15402159284E+02  0.26620327490E+02  0.00000000000E+00 0.  1.
<scales pt_clust_5="13000.00000" pt_clust_6="13000.00000" pt_clust_7="13000.00000" pt_clust_8="13000.00000" pt_clust_9="21.71211"></scales>
<clustering>
<clus scale="   21.712">  1  9  2 -1</clus>
<clus scale="   88.876">  5  6 -1 -1</clus>
<clus scale="   92.809">  7  8 -1 -1</clus>
<clus scale="  107.583">  1  5  2 -1</clus>
<clus scale="   21.712">  1  5  2 -1</clus>
</clustering>
</event>
<event>
 9    1  0.1321469E-005  0.1094483E+03  0.7546771E-02  0.1262339E+00
          1   -1    0    0  502    0 -0.00000000000E+00  0.00000000000E+00  0.59185196283E+03  0.59185196283E+03  0.00000000000E+00 0. -1.
         21   -1    0    0  501  502  0.00000000000E+00 -0.00000000000E+00 -0.46822793407E+02  0.46822793407E+02  0.00000000000E+00 0.  1.
         23    2    1    2    0    0 -0.57304166172E+02 -0.45039683856E+02  0.30050759373E+03  0.32214725158E+03  0.90342112138E+02 0.  0.
         23    2    1    2    0    0  0.26750811970E+02  0.10070393014E+02  0.30911171526E+02  0.97927954060E+02  0.88415863422E+02 0.  0.
        -11    1    4    4    0    0 -0.78474096005E+00 -0.37627302803E+02  0.93244457121E+01  0.38773380333E+02  0.00000000000E+00 0.  1.
         11    1    4    4    0    0  0.27535552930E+02  0.47697695817E+02  0.21586725814E+02  0.59154573726E+02  0.00000000000E+00 0. -1.
        -13    1    3    3    0    0 -0.13521757003E+01 -0.50353450261E+02  0.20706913093E+03  0.21310777395E+03  0.00000000000E+00 0.  1.
         13    1    3    3    0    0 -0.55951990471E+02  0.53137664058E+01  0.93438462802E+02  0.10903947763E+03  0.00000000000E+00 0. -1.
          1    1    1    2  501    0  0.30553354202E+02  0.34969290842E+02  0.21361040417E+03  0.21859955060E+03  0.00000000000E+00 0. -1.
<scales pt_clust_5="13000.00000" pt_clust_6="13000.00000" pt_clust_7="13000.00000" pt_clust_8="13000.00000" pt_clust_9="46.43663"></scales>
<clustering>
<clus scale="   46.437">  2  9  1 -1</clus>
<clus scale="   88.416">  5  6 -1 -1</clus>
<clus scale="   90.342">  7  8 -1 -1</clus>
<clus scale="  107.864">  2  5  1 -1</clus>
<clus scale="   46.437">  2  5  1 -1</clus>
</clustering>
</event>
<event>
 9    1  0.1321469E-005  0.9799906E+02  0.7546771E-02  0.1286021E+00
          1   -1    0    0  502    0 -0.00000000000E+00  0.00000000000E+00  0.15164597477E+03  0.15164597477E+03  0.00000000000E+00 0. -1.
         21   -1    0    0  501  502  0.00000000000E+00 -0.00000000000E+00 -0.14508453744E+03  0.14508453744E+03  0.00000000000E+00 0.  1.
         23    2    1    2    0    0 -0.16601130367E+02 -0.10986071488E+02  0.54415138700E+02  0.10681435056E+03  0.89732975373E+02 0.  0.
         23    2    1    2    0    0  0.55964410997E+02  0.31872258530E+01  0.20994795371E+02  0.11022673099E+03  0.92557966083E+02 0.  0.
        -11    1    3    3    0    0  0.54882184356E+01 -0.26777902247E+02 -0.15771547729E+02  0.31558173396E+02  0.00000000000E+00 0.  1.
         11    1    3    3    0    0 -0.22089348803E+02  0.15791830759E+02  0.70186686429E+02  0.75256177163E+02  0.00000000000E+00 0. -1.
        -13    1    4    4    0    0 -0.13162938417E+02 -0.27752960344E+02 -0.27935180025E+01  0.30843046193E+02  0.00000000000E+00 0.  1.
         13    1    4    4    0    0  0.69127349414E+02  0.30940186197E+02  0.23788313374E+02  0.79383684798E+02  0.00000000000E+00 0. -1.
          1    1    1    2  501    0 -0.39363280630E+02  0.77988456352E+01 -0.68848496740E+02  0.79689430657E+02  0.00000000000E+00 0. -1.
<scales pt_clust_5="13000.00000" pt_clust_6="13000.00000" pt_clust_7="13000.00000" pt_clust_8="13000.00000" pt_clust_9="40.12842"></scales>
<clustering>
<clus scale="   40.128">  2  9  1 -1</clus>
<clus scale="   89.733">  5  6 -1 -1</clus>
<clus scale="   92.558">  7  8 -1 -1</clus>
<clus scale="   95.335">  1  5  2 -1</clus>
<clus scale="   40.128">  2  5  1 -1</clus>
</clustering>
</event>
<event>
 9    1  0.1321469E-005  0.1198109E+03  0.7546771E-02  0.1243990E+00
         -4   -1    0    0    0  501 -0.00000000000E+00  0.00000000000E+00  0.73804899914E+02  0.73804899914E+02  0.00000000000E+00 0.  1.
         21   -1    0    0  501  502  0.00000000000E+00 -0.00000000000E+00 -0.53628358583E+03  0.53628358583E+03  0.00000000000E+00 0. -1.
         23    2    1    2    0    0 -0.75738108813E+02 -0.11018588906E+02 -0.20961114896E+02  0.12084836038E+03  0.91144322043E+02 0.  0.
         23    2    1    2    0    0  0.75242383252E+02 -0.28537583732E+02 -0.14505443136E+03  0.19014928680E+03  0.92952424871E+02 0.  0.
        -11    1    3    3    0    0 -0.10895698327E+02 -0.32470600724E+02 -0.37282479381E+02  0.50626469581E+02  0.00000000000E+00 0.  1.
         11    1    3    3    0    0 -0.64842410487E+02  0.21452011818E+02  0.16321364485E+02  0.70221890799E+02  0.00000000000E+00 0. -1.
        -13    1    4    4    0    0  0.44998479168E+01 -0.48682439271E+02 -0.49627144069E+02  0.69664065005E+02  0.00000000000E+00 0.  1.
         13    1    4    4    0    0  0.70742535335E+02  0.20144855538E+02 -0.95427287291E+02  0.12048522179E+03  0.00000000000E+00 0. -1.
         -4    1    1    2    0  502  0.49572556097E+00  0.39556172638E+02 -0.29646313966E+03  0.29909083857E+03  0.00000000000E+00 0.  1.
<scales pt_clust_5="13000.00000" pt_clust_6="13000.00000" pt_clust_7="13000.00000" pt_clust_8="13000.00000" pt_clust_9="39.55928"></scales>
<clustering>
<clus scale="   39.559">  2  9  1 -1</clus>
<clus scale="   91.144">  5  6 -1 -1</clus>
<clus scale="   92.952">  7  8 -1 -1</clus>
<clus scale="  118.414">  1  5  2 -1</clus>
<clus scale="   39.559">  2  5  1 -1</clus>
</clustering>
</event>
<event>
 9    1  0.1321469E-005  0.1086978E+03  0.7546771E-02  0.1263234E+00
         21   -1    0    0  501  502  0.00000000000E+00  0.00000000000E+00  0.11387623746E+03  0.11387623746E+03  0.00000000000E+00 0.  1.
          1   -1    0    0  502    0 -0.00000000000E+00 -0.00000000000E+00 -0.59248062965E+03  0.59248062965E+03  0.00000000000E+00 0. -1.
         23    2    1    2    0    0 -0.53362818844E+02 -0.10407664640E+02 -0.39087597419E+03  0.40520478359E+03  0.91929209339E+02 0.  0.
         23    2    1    2    0    0  0.88262886965E+02  0.85023846082E+02  0.31669132523E+02  0.15609566567E+03  0.91342932236E+02 0.  0.
        -11    1    4    4    0    0  0.54419257921E+02  0.97390671220E+02  0.41026912823E+02  0.11886801945E+03  0.00000000000E+00 0.  1.
         11    1    4    4    0    0  0.33843629044E+02 -0.12366825138E+02 -0.93577803005E+01  0.37227646219E+02  0.00000000000E+00 0. -1.
        -13    1    3    3    0    0  0.19785548423E+02 -0.22785438051E+02 -0.77523290092E+02  0.83189570382E+02  0.00000000000E+00 0. -1.
         13    1    3    3    0    0 -0.73148367266E+02  0.12377773412E+02 -0.31335268410E+03  0.32201521321E+03  0.00000000000E+00 0.  1.
          1    1    1    2  501    0 -0.34900068121E+02 -0.74616181442E+02 -0.11939755052E+03  0.14505641784E+03  0.00000000000E+00 0. -1.
<scales pt_clust_5="13000.00000" pt_clust_6="13000.00000" pt_clust_7="13000.00000" pt_clust_8="13000.00000" pt_clust_9="82.37473"></scales>
<clustering>
<clus scale="   82.375">  1  9  2 -1</clus>
<clus scale="   91.343">  5  6 -1 -1</clus>
<clus scale="   91.929">  7  8 -1 -1</clus>
<clus scale="  108.202">  1  5  2 -1</clus>
<clus scale="   82.375">  1  5  2 -1</clus>
</clustering>
</event>
<event>
 9    1  0.1321469E-005  0.2087046E+03  0.7546771E-02  0.1142666E+00
         -1   -1    0    0    0  501 -0.00000000000E+00  0.00000000000E+00  0.27711795518E+03  0.27711795518E+03  0.00000000000E+00 0.  1.
         21   -1    0    0  501  502  0.00000000000E+00 -0.00000000000E+00 -0.53445301835E+03  0.53445301835E+03  0.00000000000E+00 0.  1.
         23    2    1    2    0    0  0.20645310030E+03 -0.15712110810E+02  0.17682723240E+03  0.28686792614E+03  0.90308271371E+02 0.  0.
         23    2    1    2    0    0 -0.78851949607E+02  0.80556027594E+02 -0.27679318940E+03  0.31197828914E+03  0.89493461522E+02 0.  0.
        -11    1    4    4    0    0 -0.72361815297E+02  0.99474701125E+02 -0.24910786387E+03  0.27782400241E+03  0.00000000000E+00 0.  1.
         11    1    4    4    0    0 -0.64901343101E+01 -0.18918673532E+02 -0.27685325534E+02  0.34154286722E+02  0.00000000000E+00 0. -1.
        -13    1    3    3    0    0  0.13644801317E+03 -0.48066061260E+02  0.14033523142E+03  0.20154995342E+03  0.00000000000E+00 0.  1.
         13    1    3    3    0    0  0.70005087135E+02  0.32353950450E+02  0.36492000974E+02  0.85317972723E+02  0.00000000000E+00 0. -1.
         -1    1    1    2    0  502 -0.12760115070E+03 -0.64843916783E+02 -0.15736910617E+03  0.21272475827E+03  0.00000000000E+00 0.  1.
<scales pt_clust_5="13000.00000" pt_clust_6="13000.00000" pt_clust_7="13000.00000" pt_clust_8="13000.00000" pt_clust_9="143.13206"></scales>
<clustering>
<clus scale="   89.493">  5  6 -1 -1</clus>
<clus scale="   90.308">  7  8 -1 -1</clus>
<clus scale="  143.132">  2  9  1 -1</clus>
<clus scale="  208.353">  2  5  1 -1</clus>
<clus scale="  143.132">  2  5  1 -1</clus>
</clustering>
</event>
<event>
 9    1  0.1321469E-005  0.9442914E+02  0.7546771E-02  0.1293142E+00
          1   -1    0    0  502    0 -0.00000000000E+00  0.00000000000E+00  0.17754348060E+03  0.17754348060E+03  0.00000000000E+00 0. -1.
         21   -1    0    0  501  502  0.00000000000E+00 -0.00000000000E+00 -0.83723841505E+02  0.83723841505E+02  0.00000000000E+00 0.  1.
         23    2    1    2    0    0 -0.30662165125E+02  0.47235099950E+01  0.72039527265E+02  0.11992513844E+03  0.90718605718E+02 0.  0.
         23    2    1    2    0    0  0.11090512635E+02  0.41350315658E+01  0.50438075681E+02  0.10552595505E+03  0.91932745825E+02 0.  0.
        -13    1    3    3    0    0 -0.31220929053E+02  0.42347121968E+02  0.21309857495E+02  0.56763854488E+02  0.00000000000E+00 0.  1.
         13    1    3    3    0    0  0.55876392779E+00 -0.37623611973E+02  0.50729669770E+02  0.63161283948E+02  0.00000000000E+00 0. -1.
        -13    1    4    4    0    0  0.29182999334E+02  0.41429664518E+02  0.33496309708E+02  0.60745924277E+02  0.00000000000E+00 0.  1.
         13    1    4    4    0    0 -0.18092486699E+02 -0.37294632952E+02  0.16941765973E+02  0.44780030776E+02  0.00000000000E+00 0. -1.
          1    1    1    2  501    0  0.19571652490E+02 -0.88585415608E+01 -0.28657963854E+02  0.35816228612E+02  0.00000000000E+00 0. -1.
<scales pt_clust_5="13000.00000" pt_clust_6="13000.00000" pt_clust_7="13000.00000" pt_clust_8="13000.00000" pt_clust_9="21.48309"></scales>
<clustering>
<clus scale="   21.483">  2  9  1 -1</clus>
<clus scale="   90.719">  5  6 -1 -1</clus>
<clus scale="   91.933">  7  8 -1 -1</clus>
<clus scale="   93.248">  1  5  2 -1</clus>
<clus scale="   21.483">  2  5  1 -1</clus>
</clustering>
</event>
<event>
 9    1  0.1321469E-005  0.9309727E+02  0.7546771E-02  0.1297366E+00
         21   -1    0    0  501  502  0.00000000000E+00  0.00000000000E+00  0.65692723588E+02  0.65692723588E+02  0.00000000000E+00 0.  1.
          2   -1    0    0  502    0 -0.00000000000E+00 -0.00000000000E+00 -0.27369584083E+03  0.27369584083E+03  0.00000000000E+00 0. -1.
         23    2    1    2    0    0 -0.68578641135E+01 -0.91840430049E+01 -0.16916791841E+03  0.19170081414E+03  0.89442945927E+02 0.  0.
         23    2    1    2    0    0 -0.14977461052E+02  0.10761083922E+02 -0.64207416979E+02  0.11417629049E+03  0.92593237590E+02 0.  0.
        -11    1    4    4    0    0  0.37993724142E+02 -0.47707284435E+01 -0.34225909862E+02  0.51358502996E+02  0.00000000000E+00 0.  1.
         11    1    4    4    0    0 -0.52971185194E+02  0.15531812366E+02 -0.29981507117E+02  0.62817787491E+02  0.00000000000E+00 0. -1.
        -11    1    3    3    0    0 -0.17090191976E+02 -0.35947303535E+02 -0.30612048869E+02  0.50213353096E+02  0.00000000000E+00 0.  1.
         11    1    3    3    0    0  0.10232327863E+02  0.26763260530E+02 -0.13855586954E+03  0.14148746104E+03  0.00000000000E+00 0. -1.
          2    1    1    2  501    0  0.21835325165E+02 -0.15770409175E+01  0.25372218152E+02  0.33511459788E+02  0.00000000000E+00 0. -1.
<scales pt_clust_5="13000.00000" pt_clust_6="13000.00000" pt_clust_7="13000.00000" pt_clust_8="13000.00000" pt_clust_9="21.89220"></scales>
<clustering>
<clus scale="   21.892">  1  9  2 -1</clus>
<clus scale="   89.443">  7  8 -1 -1</clus>
<clus scale="   89.965">  2  7  1 -1</clus>
<clus scale="   92.593">  5  6 -1 -1</clus>
<clus scale="   21.892">  1  5  2 -1</clus>
</clustering>
</event>
<event>
 9    1  0.1321469E-005  0.1125643E+03  0.7546771E-02  0.1256287E+00
         21   -1    0    0  501  502  0.00000000000E+00  0.00000000000E+00  0.81908976466E+02  0.81908976466E+02  0.00000000000E+00 0.  1.
          1   -1    0    0  502    0 -0.00000000000E+00 -0.00000000000E+00 -0.35632149179E+03  0.35632149179E+03  0.00000000000E+00 0. -1.
         23    2    1    2    0    0  0.61629382957E+02 -0.27369961893E+02 -0.22337378133E+03  0.24961666952E+03  0.88686751298E+02 0.  0.
         23    2    1    2    0    0 -0.74026863986E+02 -0.26983855489E+01 -0.83042436405E+02  0.14298442199E+03  0.89784412967E+02 0.  0.
        -11    1    4    4    0    0 -0.13273369706E+02  0.27398472836E+02  0.60380830346E+01  0.31037350142E+02  0.00000000000E+00 0.  1.
         11    1    4    4    0    0 -0.60753494280E+02 -0.30096858385E+02 -0.89080519440E+02  0.11194707185E+03  0.00000000000E+00 0. -1.
        -13    1    3    3    0    0  0.67501616547E+02  0.12504446894E+02 -0.16468702547E+03  0.17842266051E+03  0.00000000000E+00 0. -1.
         13    1    3    3    0    0 -0.58722335901E+01 -0.39874408787E+02 -0.58686755870E+02  0.71194009003E+02  0.00000000000E+00 0.  1.
          1    1    1    2  501    0  0.12397481029E+02  0.30068347442E+02  0.32003702418E+02  0.45629376746E+02  0.00000000000E+00 0. -1.
<scales pt_clust_5="13000.00000" pt_clust_6="13000.00000" pt_clust_7="13000.00000" pt_clust_8="13000.00000" pt_clust_9="32.52388"></scales>
<clustering>
<clus scale="   32.524">  1  9  2 -1</clus>
<clus scale="   88.687">  7  8 -1 -1</clus>
<clus scale="   89.784">  5  6 -1 -1</clus>
<clus scale="  111.691">  2  7  1 -1</clus>
<clus scale="   32.524">  1  5  2 -1</clus>
</clustering>
</event>
<event>
 9    1  0.1321469E-005  0.1008003E+03  0.7546771E-02  0.1279539E+00
         -1   -1    0    0    0  501 -0.00000000000E+00  0.00000000000E+00  0.18544200138E+03  0.18544200138E+03  0.00000000000E+00 0.  1.
         21   -1    0    0  501  502  0.00000000000E+00 -0.00000000000E+00 -0.32915618066E+03  0.32915618066E+03  0.00000000000E+00 0.  1.
         23    2    1    2    0    0  0.16286143495E+02 -0.18287333001E+01  0.40639187754E+02  0.10176338955E+03  0.91845855303E+02 0.  0.
         23    2    1    2    0    0  0.21402579083E+02  0.78454458265E+02  0.71426273802E+02  0.14317729453E+03  0.93727544872E+02 0.  0.
        -11    1    3    3    0    0  0.51488432117E+02 -0.16148629786E+02  0.15305638931E+02  0.56090101345E+02  0.00000000000E+00 0.  1.
         11    1    3    3    0    0 -0.35202288622E+02  0.14319896486E+02  0.25333548823E+02  0.45673288207E+02  0.00000000000E+00 0. -1.
        -13    1    4    4    0    0  0.35342250004E+02  0.95287139867E+02  0.63961176758E+02  0.12008224595E+03  0.00000000000E+00 0.  1.
         13    1    4    4    0    0 -0.13939670921E+02 -0.16832681603E+02  0.74650970433E+01  0.23095048586E+02  0.00000000000E+00 0. -1.
         -1    1    1    2    0  502 -0.37688722577E+02 -0.76625724965E+02 -0.25577964084E+03  0.26965749795E+03  0.00000000000E+00 0.  1.
<scales pt_clust_5="13000.00000" pt_clust_6="13000.00000" pt_clust_7="13000.00000" pt_clust_8="13000.00000" pt_clust_9="85.39287"></scales>
<clustering>
<clus scale="   85.393">  2  9  1 -1</clus>
<clus scale="   91.846">  5  6 -1 -1</clus>
<clus scale="   93.728">  7  8 -1 -1</clus>
<clus scale="   99.053">  1  5  2 -1</clus>
<clus scale="   85.393">  2  5  1 -1</clus>
</clustering>
</event>
<event>
 9    1  0.1321469E-005  0.1575689E+03  0.7546771E-02  0.1191786E+00
         21   -1    0    0  501  502  0.00000000000E+00  0.00000000000E+00  0.17732963945E+03  0.17732963945E+03  0.00000000000E+00 0. -1.
          1   -1    0    0  502    0 -0.00000000000E+00 -0.00000000000E+00 -0.30419587799E+03  0.30419587799E+03  0.00000000000E+00 0. -1.
         23    2    1    2    0    0  0.12289887726E+03  0.93691676508E+02 -0.13956474914E+03  0.22691868585E+03  0.90174866266E+02 0.  0.
         23    2    1    2    0    0 -0.10064829723E+03 -0.28821689168E+02 -0.62541408385E+02  0.15280187602E+03  0.92066367644E+02 0.  0.
        -11    1    4    4    0    0 -0.12486883889E+02 -0.22037721236E+02  0.19666752899E+02  0.32068124300E+02  0.00000000000E+00 0. -1.
         11    1    4    4    0    0 -0.88161413343E+02 -0.67839679317E+01 -0.82208161283E+02  0.12073375172E+03  0.00000000000E+00 0.  1.
        -11    1    3    3    0    0  0.61125145528E+02  0.48496778046E+02 -0.13135244586E+02  0.79124936316E+02  0.00000000000E+00 0.  1.
         11    1    3    3    0    0  0.61773731734E+02  0.45194898462E+02 -0.12642950456E+03  0.14779374954E+03  0.00000000000E+00 0. -1.
          1    1    1    2  501    0 -0.22250580029E+02 -0.64869987340E+02  0.75239918982E+02  0.10180495556E+03  0.00000000000E+00 0. -1.
<scales pt_clust_5="13000.00000" pt_clust_6="13000.00000" pt_clust_7="13000.00000" pt_clust_8="13000.00000" pt_clust_9="68.57991"></scales>
<clustering>
<clus scale="   68.580">  1  9  2 -1</clus>
<clus scale="   90.175">  7  8 -1 -1</clus>
<clus scale="   92.066">  5  6 -1 -1</clus>
<clus scale="  156.471">  2  7  1 -1</clus>
<clus scale="   68.580">  1  5  2 -1</clus>
</clustering>
</event>
<event>
 9    1  0.1321469E-005  0.9627949E+02  0.7546771E-02  0.1289888E+00
          1   -1    0    0  502    0 -0.00000000000E+00  0.00000000000E+00  0.29219360685E+03  0.29219360685E+03  0.00000000000E+00 0. -1.
         21   -1    0    0  501  502  0.00000000000E+00 -0.00000000000E+00 -0.99700449078E+02  0.99700449078E+02  0.00000000000E+00 0. -1.
         23    2    1    2    0    0 -0.29823118531E+02 -0.54334060846E-01  0.16179656533E+03  0.18795437839E+03  0.90880682514E+02 0.  0.
         23    2    1    2    0    0  0.87438466654E+01  0.12108010235E+02  0.95549007213E+02  0.13469039946E+03  0.93748771518E+02 0.  0.
        -11    1    4    4    0    0 -0.23902283876E+02 -0.22973529970E+02  0.76034322985E+02  0.82947697530E+02  0.00000000000E+00 0.  1.
         11    1    4    4    0    0  0.32646130541E+02  0.35081540206E+02  0.19514684228E+02  0.51742701930E+02  0.00000000000E+00 0. -1.
        -11    1    3    3    0    0 -0.24032266660E+02  0.42998357803E+02  0.10878411206E+03  0.11941688177E+03  0.00000000000E+00 0. -1.
         11    1    3    3    0    0 -0.57908518709E+01 -0.43052691864E+02  0.53012453269E+02  0.68537496626E+02  0.00000000000E+00 0.  1.
          1    1    1    2  501    0  0.21079271866E+02 -0.12053676174E+02 -0.64852414772E+02  0.69249278071E+02  0.00000000000E+00 0. -1.
<scales pt_clust_5="13000.00000" pt_clust_6="13000.00000" pt_clust_7="13000.00000" pt_clust_8="13000.00000" pt_clust_9="24.28223"></scales>
<clustering>
<clus scale="   24.282">  2  9  1 -1</clus>
<clus scale="   90.881">  7  8 -1 -1</clus>
<clus scale="   93.489">  1  7  2 -1</clus>
<clus scale="   93.749">  5  6 -1 -1</clus>
<clus scale="   24.282">  2  5  1 -1</clus>
</clustering>
</event>
<event>
 9    1  0.1321469E-005  0.1088094E+03  0.7546771E-02  0.1262831E+00
         -1   -1    0    0    0  501 -0.00000000000E+00  0.00000000000E+00  0.14698600707E+03  0.14698600707E+03  0.00000000000E+00 0.  1.
         21   -1    0    0  501  502  0.00000000000E+00 -0.00000000000E+00 -0.41606333979E+03  0.41606333979E+03  0.00000000000E+00 0. -1.
         23    2    1    2    0    0 -0.56792481667E+02 -0.79533103493E+01  0.10641964664E+03  0.15123332419E+03  0.90872086116E+02 0.  0.
         23    2    1    2    0    0  0.86436229543E+02  0.33354629933E+02 -0.27968477166E+03  0.30835608856E+03  0.90973362791E+02 0.  0.
        -13    1    4    4    0    0  0.80801693869E+02 -0.41720051040E+01 -0.12361757325E+03  0.14774174689E+03  0.00000000000E+00 0.  1.
         13    1    4    4    0    0  0.56345356749E+01  0.37526635037E+02 -0.15606719841E+03  0.16061434167E+03  0.00000000000E+00 0. -1.
        -13    1    3    3    0    0  0.61514265919E+01 -0.36438962970E+02  0.25855114265E+02  0.45101274983E+02  0.00000000000E+00 0. -1.
         13    1    3    3    0    0 -0.62943908259E+02  0.28485652620E+02  0.80564532371E+02  0.10613204920E+03  0.00000000000E+00 0.  1.
         -1    1    1    2    0  502 -0.29643747876E+02 -0.25401319584E+02 -0.95812207688E+02  0.10345993411E+03  0.00000000000E+00 0.  1.
<scales pt_clust_5="13000.00000" pt_clust_6="13000.00000" pt_clust_7="13000.00000" pt_clust_8="13000.00000" pt_clust_9="39.03817"></scales>
<clustering>
<clus scale="   39.038">  2  9  1 -1</clus>
<clus scale="   90.872">  7  8 -1 -1</clus>
<clus scale="   90.973">  5  6 -1 -1</clus>
<clus scale="  108.725">  1  7  2 -1</clus>
<clus scale="   39.038">  2  5  1 -1</clus>
</clustering>
</event>
<event>
 9    1  0.1321469E-005  0.9396250E+02  0.7546771E-02  0.1296113E+00
         21   -1    0    0  501  502  0.00000000000E+00  0.00000000000E+00  0.22079742248E+03  0.22079742248E+03  0.00000000000E+00 0.  1.
         -1   -1    0    0    0  501 -0.00000000000E+00 -0.00000000000E+00 -0.10385710917E+03  0.10385710917E+03  0.00000000000E+00 0.  1.
         23    2    1    2    0    0 -0.17451423374E+00 -0.28462667605E+02 -0.58784367382E+02  0.11136680519E+03  0.90204265688E+02 0.  0.
         23    2    1    2    0    0 -0.16216908110E+02  0.16254391040E+02  0.94621046631E+02  0.12964850000E+03  0.85606061411E+02 0.  0.
        -13    1    4    4    0    0  0.23981218049E+02  0.16244269262E+01  0.81399679107E+02  0.84874291400E+02  0.00000000000E+00 0. -1.
         13    1    4    4    0    0 -0.40198126159E+02  0.14629964114E+02  0.13221367524E+02  0.44774208601E+02  0.00000000000E+00 0.  1.
        -13    1    3    3    0    0 -0.35729724349E+02 -0.52594520920E+01  0.31779295977E+01  0.36254300088E+02  0.00000000000E+00 0.  1.
         13    1    3    3    0    0  0.35555210115E+02 -0.23203215513E+02 -0.61962296980E+02  0.75112505107E+02  0.00000000000E+00 0. -1.
         -1    1    1    2    0  502  0.16391422343E+02  0.12208276565E+02  0.81103634063E+02  0.83639226451E+02  0.00000000000E+00 0.  1.
<scales pt_clust_5="13000.00000" pt_clust_6="13000.00000" pt_clust_7="13000.00000" pt_clust_8="13000.00000" pt_clust_9="20.43822"></scales>
<clustering>
<clus scale="   20.438">  1  9  2 -1</clus>
<clus scale="   85.606">  5  6 -1 -1</clus>
<clus scale="   89.557">  1  5  2 -1</clus>
<clus scale="   90.204">  7  8 -1 -1</clus>
<clus scale="   20.438">  1  5  2 -1</clus>
</clustering>
</event>
<event>
 9    1  0.1321469E-005  0.1025615E+03  0.7546771E-02  0.1275068E+00
         21   -1    0    0  501  502  0.00000000000E+00  0.00000000000E+00  0.63702714679E+02  0.63702714679E+02  0.00000000000E+00 0.  1.
         -2   -1    0    0    0  501 -0.00000000000E+00 -0.00000000000E+00 -0.36905021503E+03  0.36905021503E+03  0.00000000000E+00 0.  1.
         23    2    1    2    0    0 -0.50777725788E+02 -0.17651569701E+02 -0.28196855927E+03  0.30112768149E+03  0.91003608676E+02 0.  0.
         23    2    1    2    0    0  0.16977420264E+02  0.16613229700E+02 -0.25959397952E+02  0.97710685556E+02  0.91155117958E+02 0.  0.
        -11    1    4    4    0    0 -0.29310238284E+02 -0.11451249156E+02  0.96536141951E+01  0.32915246354E+02  0.00000000000E+00 0.  1.
         11    1    4    4    0    0  0.46287658548E+02  0.28064478855E+02 -0.35613012147E+02  0.64795439203E+02  0.00000000000E+00 0. -1.
        -13    1    3    3    0    0 -0.58624169566E+02  0.58115415587E+01 -0.26414741012E+03  0.27063706609E+03  0.00000000000E+00 0.  1.
         13    1    3    3    0    0  0.78464437778E+01 -0.23463111260E+02 -0.17821149154E+02  0.30490615394E+02  0.00000000000E+00 0. -1.
         -2    1    1    2    0  502  0.33800305524E+02  0.10383400011E+01  0.25804568660E+01  0.33914562671E+02  0.00000000000E+00 0.  1.
<scales pt_clust_5="13000.00000" pt_clust_6="13000.00000" pt_clust_7="13000.00000" pt_clust_8="13000.00000" pt_clust_9="33.81625"></scales>
<clustering>
<clus scale="   33.816">  1  9  2 -1</clus>
<clus scale="   91.004">  7  8 -1 -1</clus>
<clus scale="   91.155">  5  6 -1 -1</clus>
<clus scale="  102.427">  2  7  1 -1</clus>
<clus scale="   33.816">  1  5  2 -1</clus>
</clustering>
</event>
<event>
 9    1  0.1321469E-005  0.9737768E+02  0.7546771E-02  0.1303075E+00
         21   -1    0    0  501  502  0.00000000000E+00  0.00000000000E+00  0.98680770276E+02  0.98680770276E+02  0.00000000000E+00 0. -1.
         -1   -1    0    0    0  501 -0.00000000000E+00 -0.00000000000E+00 -0.12229302427E+03  0.12229302427E+03  0.00000000000E+00 0.  1.
         23    2    1    2    0    0  0.33352098546E+02 -0.31693547902E+02 -0.41118401565E+02  0.87689618554E+02  0.62304917935E+02 0.  0.
         23    2    1    2    0    0 -0.10087270615E+02  0.30119028323E+00  0.44161090322E+01  0.92076392212E+02  0.91415076655E+02 0.  0.
        -11    1    3    3    0    0 -0.11809295724E+02 -0.27948742235E+02 -0.25881063936E+02  0.39880084359E+02  0.00000000000E+00 0. -1.
         11    1    3    3    0    0  0.45161394270E+02 -0.37448056667E+01 -0.15237337629E+02  0.47809534195E+02  0.00000000000E+00 0.  1.
        -13    1    4    4    0    0 -0.21770364094E+02 -0.42362728231E+02  0.45027000847E+01  0.47841653441E+02  0.00000000000E+00 0. -1.
         13    1    4    4    0    0  0.11683093478E+02  0.42663918514E+02 -0.86591052509E-01  0.44234738772E+02  0.00000000000E+00 0.  1.
         -1    1    1    2    0  502 -0.23264827931E+02  0.31392357619E+02  0.13090038534E+02  0.41207783783E+02  0.00000000000E+00 0.  1.
<scales pt_clust_5="13000.00000" pt_clust_6="13000.00000" pt_clust_7="13000.00000" pt_clust_8="13000.00000" pt_clust_9="39.07342"></scales>
<clustering>
<clus scale="   39.073">  1  9  2 -1</clus>
<clus scale="   62.305">  5  6 -1 -1</clus>
<clus scale="   70.764">  2  5  1 -1</clus>
<clus scale="   91.415">  7  8 -1 -1</clus>
<clus scale="   39.073">  1  5  2 -1</clus>
</clustering>
</event>
<event>
 9    1  0.1321469E-005  0.9222920E+02  0.7546771E-02  0.1300202E+00
         21   -1    0    0  501  502  0.00000000000E+00  0.00000000000E+00  0.12163717314E+03  0.12163717314E+03  0.00000000000E+00 0.  1.
          3   -1    0    0  502    0 -0.00000000000E+00 -0.00000000000E+00 -0.86475682433E+02  0.86475682433E+02  0.00000000000E+00 0. -1.
         23    2    1    2    0    0 -0.11901003072E+02 -0.51048683225E+01  0.62296635636E+01  0.88641284711E+02  0.87468709218E+02 0.  0.
         23    2    1    2    0    0  0.42395639276E+00 -0.14545249397E+02  0.21184821338E+02  0.95432730920E+02  0.91906830305E+02 0.  0.
        -11    1    4    4    0    0 -0.22234498499E+01 -0.48013219270E+02 -0.10579159446E+02  0.49215155882E+02  0.00000000000E+00 0.  1.
         11    1    4    4    0    0  0.26474062427E+01  0.33467969872E+02  0.31763980784E+02  0.46217575038E+02  0.00000000000E+00 0. -1.
        -13    1    3    3    0    0  0.18307837568E+02 -0.26486248199E+02  0.30526537261E+02  0.44368544456E+02  0.00000000000E+00 0.  1.
         13    1    3    3    0    0 -0.30208840640E+02  0.21381379876E+02 -0.24296873697E+02  0.44272740254E+02  0.00000000000E+00 0. -1.
          3    1    1    2  501    0  0.11477046679E+02  0.19650117720E+02  0.77470058070E+01  0.24038839944E+02  0.00000000000E+00 0. -1.
<scales pt_clust_5="13000.00000" pt_clust_6="13000.00000" pt_clust_7="13000.00000" pt_clust_8="13000.00000" pt_clust_9="22.75631"></scales>
<clustering>
<clus scale="   22.756">  1  9  2 -1</clus>
<clus scale="   87.469">  7  8 -1 -1</clus>
<clus scale="   87.807">  2  7  1 -1</clus>
<clus scale="   91.907">  5  6 -1 -1</clus>
<clus scale="   22.756">  1  5  2 -1</clus>
</clustering>
</event>
<event>
 9    1  0.1321469E-005  0.2003386E+03  0.7546771E-02  0.1149560E+00
          3   -1    0    0  502    0 -0.00000000000E+00  0.00000000000E+00  0.56465356969E+03  0.56465356969E+03  0.00000000000E+00 0. -1.
         21   -1    0    0  501  502  0.00000000000E+00 -0.00000000000E+00 -0.12118492031E+03  0.12118492031E+03  0.00000000000E+00 0.  1.
         23    2    1    2    0    0 -0.15369683991E+03 -0.11499253559E+03  0.36978769522E+03  0.42649746087E+03  0.91165469079E+02 0.  0.
         23    2    1    2    0    0  0.14739023052E+03  0.45936188375E+02  0.60990006817E+02  0.18884555014E+03  0.90049138927E+02 0.  0.
        -11    1    4    4    0    0  0.17080147304E+02  0.41236696349E+02  0.32926934651E+02  0.55465120420E+02  0.00000000000E+00 0. -1.
         11    1    4    4    0    0  0.13031008322E+03  0.46994920259E+01  0.28063072166E+02  0.13338042973E+03  0.00000000000E+00 0.  1.
        -11    1    3    3    0    0 -0.90294734477E+02 -0.55338266265E+02  0.28876614571E+03  0.30757332410E+03  0.00000000000E+00 0. -1.
         11    1    3    3    0    0 -0.63402105438E+02 -0.59654269325E+02  0.81021549510E+02  0.11892413677E+03  0.00000000000E+00 0.  1.
          3    1    1    2  501    0  0.63066093903E+01  0.69056347215E+02  0.12690947336E+02  0.70495478982E+02  0.00000000000E+00 0. -1.
<scales pt_clust_5="13000.00000" pt_clust_6="13000.00000" pt_clust_7="13000.00000" pt_clust_8="13000.00000" pt_clust_9="69.34373"></scales>
<clustering>
<clus scale="   69.344">  2  9  1 -1</clus>
<clus scale="   90.049">  5  6 -1 -1</clus>
<clus scale="   91.165">  7  8 -1 -1</clus>
<clus scale="  199.833">  2  5  1 -1</clus>
<clus scale="   69.344">  2  5  1 -1</clus>
</clustering>
</event>
<event>
 9    1  0.1321469E-005  0.1018398E+03  0.7546771E-02  0.1279125E+00
         21   -1    0    0  501  502  0.00000000000E+00  0.00000000000E+00  0.13795491339E+03  0.13795491339E+03  0.00000000000E+00 0.  1.
          3   -1    0    0  502    0 -0.00000000000E+00 -0.00000000000E+00 -0.13497584500E+03  0.13497584500E+03  0.00000000000E+00 0. -1.
         23    2    1    2    0    0  0.12429586016E+01  0.43111688217E+02 -0.72677278302E+02  0.12330221671E+03  0.89784671615E+02 0.  0.
         23    2    1    2    0    0 -0.57540894281E+01 -0.16222030822E+02  0.39829699402E+02  0.10460685100E+03  0.95183635633E+02 0.  0.
        -13    1    4    4    0    0  0.14518017883E+02 -0.52820950178E+02  0.25040277294E+02  0.60231562390E+02  0.00000000000E+00 0.  1.
         13    1    4    4    0    0 -0.20272107311E+02  0.36598919356E+02  0.14789422108E+02  0.44375288609E+02  0.00000000000E+00 0. -1.
        -13    1    3    3    0    0 -0.38502118223E+02  0.55347124625E+01 -0.10095242714E+02  0.40186565855E+02  0.00000000000E+00 0.  1.
         13    1    3    3    0    0  0.39745076825E+02  0.37576975754E+02 -0.62582035588E+02  0.83115650855E+02  0.00000000000E+00 0. -1.
          3    1    1    2  501    0  0.45111308265E+01 -0.26889657395E+02  0.35826647283E+02  0.45021690680E+02  0.00000000000E+00 0. -1.
<scales pt_clust_5="13000.00000" pt_clust_6="13000.00000" pt_clust_7="13000.00000" pt_clust_8="13000.00000" pt_clust_9="27.26544"></scales>
<clustering>
<clus scale="   27.265">  1  9  2 -1</clus>
<clus scale="   89.785">  7  8 -1 -1</clus>
<clus scale="   95.184">  5  6 -1 -1</clus>
<clus scale="   96.813">  2  7  1 -1</clus>
<clus scale="   27.265">  1  5  2 -1</clus>
</clustering>
</event>
<event>
 9    1  0.1321469E-005  0.1119554E+03  0.7546771E-02  0.1257477E+00
         21   -1    0    0  501  502  0.00000000000E+00  0.00000000000E+00  0.15565132536E+03  0.15565132536E+03  0.00000000000E+00 0. -1.
          1   -1    0    0  502    0 -0.00000000000E+00 -0.00000000000E+00 -0.31646664321E+03  0.31646664321E+03  0.00000000000E+00 0. -1.
         23    2    1    2    0    0  0.23766168523E+02 -0.70497926204E+02 -0.15818711346E+03  0.19688415576E+03  0.90583770946E+02 0.  0.
         23    2    1    2    0    0 -0.40553196604E+02  0.39013146214E+02 -0.11484648576E+03  0.15747966912E+03  0.91888756445E+02 0.  0.
        -11    1    4    4    0    0  0.28056861280E+02  0.18377753909E+02 -0.21626289657E+02  0.39907714892E+02  0.00000000000E+00 0.  1.
         11    1    4    4    0    0 -0.68610057884E+02  0.20635392306E+02 -0.93220196105E+02  0.11757195422E+03  0.00000000000E+00 0. -1.
        -13    1    3    3    0    0  0.89452355034E+01  0.18990456307E+02 -0.10269463406E+02  0.23369136647E+02  0.00000000000E+00 0.  1.
         13    1    3    3    0    0  0.14820933020E+02 -0.89488382511E+02 -0.14791765005E+03  0.17351501911E+03  0.00000000000E+00 0. -1.
          1    1    1    2  501    0  0.16787028081E+02  0.31484779989E+02  0.11221828137E+03  0.11775414369E+03  0.00000000000E+00 0. -1.
<scales pt_clust_5="13000.00000" pt_clust_6="13000.00000" pt_clust_7="13000.00000" pt_clust_8="13000.00000" pt_clust_9="35.68047"></scales>
<clustering>
<clus scale="   35.680">  1  9  2 -1</clus>
<clus scale="   90.584">  7  8 -1 -1</clus>
<clus scale="   91.889">  5  6 -1 -1</clus>
<clus scale="  110.887">  2  7  1 -1</clus>
<clus scale="   35.680">  1  5  2 -1</clus>
</clustering>
</event>
<event>
 9    1  0.1321469E-005  0.9309367E+02  0.7546771E-02  0.1300870E+00
          3   -1    0    0  502    0 -0.00000000000E+00  0.00000000000E+00  0.18443728431E+03  0.18443728431E+03  0.00000000000E+00 0. -1.
         21   -1    0    0  501  502  0.00000000000E+00 -0.00000000000E+00 -0.71767838183E+02  0.71767838183E+02  0.00000000000E+00 0.  1.
         23    2    1    2    0    0  0.12154845900E+02 -0.41752082785E+01  0.10882911942E+03  0.14247123401E+03  0.91044509140E+02 0.  0.
         23    2    1    2    0    0 -0.35472014162E+02  0.89500933632E+01  0.23787406125E+01  0.89888006292E+02  0.82072086048E+02 0.  0.
        -11    1    4    4    0    0  0.10045302999E+02 -0.20539540689E+02 -0.20797616915E+02  0.30908279043E+02  0.00000000000E+00 0. -1.
         11    1    4    4    0    0 -0.45517317161E+02  0.29489634052E+02  0.23176357528E+02  0.58979727249E+02  0.00000000000E+00 0.  1.
        -11    1    3    3    0    0  0.49562329749E+02  0.14782895864E+01  0.82930696189E+02  0.96623549100E+02  0.00000000000E+00 0. -1.
         11    1    3    3    0    0 -0.37407483849E+02 -0.56534978649E+01  0.25898423227E+02  0.45847684911E+02  0.00000000000E+00 0.  1.
          3    1    1    2  501    0  0.23317168262E+02 -0.47748850847E+01  0.14615860951E+01  0.23845882186E+02  0.00000000000E+00 0. -1.
<scales pt_clust_5="13000.00000" pt_clust_6="13000.00000" pt_clust_7="13000.00000" pt_clust_8="13000.00000" pt_clust_9="23.80105"></scales>
<clustering>
<clus scale="   23.801">  2  9  1 -1</clus>
<clus scale="   82.072">  5  6 -1 -1</clus>
<clus scale="   84.340">  2  5  1 -1</clus>
<clus scale="   91.045">  7  8 -1 -1</clus>
<clus scale="   23.801">  2  5  1 -1</clus>
</clustering>
</event>
<event>
 9    1  0.1321469E-005  0.1829017E+03  0.7546771E-02  0.1166695E+00
         -1   -1    0    0    0  501 -0.00000000000E+00  0.00000000000E+00  0.29310196879E+03  0.29310196879E+03  0.00000000000E+00 0.  1.
         21   -1    0    0  501  502  0.00000000000E+00 -0.00000000000E+00 -0.30912178020E+03  0.30912178020E+03  0.00000000000E+00 0. -1.
         23    2    1    2    0    0  0.50623294609E+02  0.13827703833E+03  0.21498498943E+03  0.27625482061E+03  0.91732889090E+02 0.  0.
         23    2    1    2    0    0 -0.56276618847E+02 -0.16278477759E+03 -0.18465221884E+03  0.27323230718E+03  0.10437197955E+03 0.  0.
        -11    1    4    4    0    0  0.25291167881E+02 -0.10458116956E+02 -0.15618483185E+02  0.31511147235E+02  0.00000000000E+00 0.  1.
         11    1    4    4    0    0 -0.81567786728E+02 -0.15232666064E+03 -0.16903373566E+03  0.24172115994E+03  0.00000000000E+00 0. -1.
        -13    1    3    3    0    0  0.70834680483E+02  0.63326534646E+02  0.13176622458E+03  0.16245042286E+03  0.00000000000E+00 0.  1.
         13    1    3    3    0    0 -0.20211385874E+02  0.74950503685E+02  0.83218764855E+02  0.11380439774E+03  0.00000000000E+00 0. -1.
         -1    1    1    2    0  502  0.56533242382E+01  0.24507739261E+02 -0.46352581998E+02  0.52736621209E+02  0.00000000000E+00 0.  1.
<scales pt_clust_5="13000.00000" pt_clust_6="13000.00000" pt_clust_7="13000.00000" pt_clust_8="13000.00000" pt_clust_9="25.15133"></scales>
<clustering>
<clus scale="   25.151">  2  9  1 -1</clus>
<clus scale="   91.733">  7  8 -1 -1</clus>
<clus scale="  104.372">  5  6 -1 -1</clus>
<clus scale="  175.996">  1  7  2 -1</clus>
<clus scale="   25.151">  2  5  1 -1</clus>
</clustering>
</event>
<event>
 9    1  0.1321469E-005  0.9627339E+02  0.7546771E-02  0.1290748E+00
         21   -1    0    0  501  502  0.00000000000E+00  0.00000000000E+00  0.26265862628E+03  0.26265862628E+03  0.00000000000E+00 0. -1.
          3   -1    0    0  502    0 -0.00000000000E+00 -0.00000000000E+00 -0.12148264262E+03  0.12148264262E+03  0.00000000000E+00 0. -1.
         23    2    1    2    0    0  0.86571841145E+01 -0.41397901208E+01 -0.62374682569E+02  0.11029293866E+03  0.90453560431E+02 0.  0.
         23    2    1    2    0    0 -0.64483567623E+02 -0.26781959235E+02  0.11392439035E+03  0.16382283771E+03  0.94782654547E+02 0.  0.
        -11    1    4    4    0    0 -0.63299677785E+02 -0.56929798469E+02  0.97620291326E+02  0.12952826888E+03  0.00000000000E+00 0. -1.
         11    1    4    4    0    0 -0.11838898383E+01  0.30147839235E+02  0.16304099027E+02  0.34294568823E+02  0.00000000000E+00 0.  1.
        -13    1    3    3    0    0  0.48239740171E+02  0.86047362274E+01 -0.28725607048E+02  0.56800303851E+02  0.00000000000E+00 0. -1.
         13    1    3    3    0    0 -0.39582556057E+02 -0.12744526348E+02 -0.33649075521E+02  0.53492634813E+02  0.00000000000E+00 0.  1.
          3    1    1    2  501    0  0.55826383509E+02  0.30921749355E+02  0.89626275871E+02  0.11002549253E+03  0.00000000000E+00 0. -1.
<scales pt_clust_5="13000.00000" pt_clust_6="13000.00000" pt_clust_7="13000.00000" pt_clust_8="13000.00000" pt_clust_9="63.81802"></scales>
<clustering>
<clus scale="   63.818">  1  9  2 -1</clus>
<clus scale="   90.454">  7  8 -1 -1</clus>
<clus scale="   92.014">  2  7  1 -1</clus>
<clus scale="   94.783">  5  6 -1 -1</clus>
<clus scale="   63.818">  1  5  2 -1</clus>
</clustering>
</event>
<event>
 9    1  0.1321469E-005  0.9556165E+02  0.7546771E-02  0.1290028E+00
          1   -1    0    0  502    0 -0.00000000000E+00  0.00000000000E+00  0.38475733453E+03  0.38475733453E+03  0.00000000000E+00 0. -1.
         21   -1    0    0  501  502  0.00000000000E+00 -0.00000000000E+00 -0.49989707368E+02  0.49989707368E+02  0.00000000000E+00 0.  1.
         23    2    1    2    0    0  0.31699696807E+02 -0.18670626919E+01  0.25110652395E+03  0.26936842272E+03  0.92176483371E+02 0.  0.
         23    2    1    2    0    0 -0.59910490864E+01 -0.28153225903E+02  0.80786267459E+02  0.12575013226E+03  0.91968353013E+02 0.  0.
        -13    1    4    4    0    0  0.37952446415E+02 -0.19963308149E+02  0.65923696026E+02  0.78643852645E+02  0.00000000000E+00 0. -1.
         13    1    4    4    0    0 -0.43943495501E+02 -0.81899177533E+01  0.14862571433E+02  0.47106279616E+02  0.00000000000E+00 0.  1.
        -13    1    3    3    0    0  0.45234333887E+02 -0.28580161853E+02  0.21909225723E+03  0.22553134547E+03  0.00000000000E+00 0. -1.
         13    1    3    3    0    0 -0.13534637080E+02  0.26713099161E+02  0.32014266725E+02  0.43837077247E+02  0.00000000000E+00 0.  1.
          1    1    1    2  501    0 -0.25708647721E+02  0.30020288594E+02  0.28748357539E+01  0.39628486919E+02  0.00000000000E+00 0. -1.
<scales pt_clust_5="13000.00000" pt_clust_6="13000.00000" pt_clust_7="13000.00000" pt_clust_8="13000.00000" pt_clust_9="39.52407"></scales>
<clustering>
<clus scale="   39.524">  2  9  1 -1</clus>
<clus scale="   91.968">  5  6 -1 -1</clus>
<clus scale="   92.176">  7  8 -1 -1</clus>
<clus scale="   95.361">  2  5  1 -1</clus>
<clus scale="   39.524">  2  5  1 -1</clus>
</clustering>
</event>
<event>
 9    1  0.1321469E-005  0.1022571E+03  0.7546771E-02  0.1276151E+00
         21   -1    0    0  501  502  0.00000000000E+00  0.00000000000E+00  0.48380308556E+02  0.48380308556E+02  0.00000000000E+00 0.  1.
          1   -1    0    0  502    0 -0.00000000000E+00 -0.00000000000E+00 -0.34365684572E+03  0.34365684572E+03  0.00000000000E+00 0. -1.
         23    2    1    2    0    0 -0.13920568443E+02 -0.21083092325E+02 -0.17961393196E+03  0.20495866261E+03  0.95439037180E+02 0.  0.
         23    2    1    2    0    0  0.34666357962E+02  0.33121014180E+02 -0.12147310772E+03  0.16239932464E+03  0.96535313696E+02 0.  0.
        -11    1    3    3    0    0 -0.29201852065E+02  0.29928259143E+02 -0.10725097530E+03  0.11511394599E+03  0.00000000000E+00 0. -1.
         11    1    3    3    0    0  0.15281283623E+02 -0.51011351468E+02 -0.72362956658E+02  0.89844716617E+02  0.00000000000E+00 0.  1.
        -13    1    4    4    0    0  0.12669209999E+02  0.40579593647E+02 -0.40531739178E+01  0.42704104268E+02  0.00000000000E+00 0.  1.
         13    1    4    4    0    0  0.21997147963E+02 -0.74585794668E+01 -0.11741993380E+03  0.11969522037E+03  0.00000000000E+00 0. -1.
          1    1    1    2  501    0 -0.20745789519E+02 -0.12037921855E+02  0.58105025167E+01  0.24679167021E+02  0.00000000000E+00 0. -1.
<scales pt_clust_5="13000.00000" pt_clust_6="13000.00000" pt_clust_7="13000.00000" pt_clust_8="13000.00000" pt_clust_9="23.98540"></scales>
<clustering>
<clus scale="   23.985">  1  9  2 -1</clus>
<clus scale="   95.439">  5  6 -1 -1</clus>
<clus scale="   96.535">  7  8 -1 -1</clus>
<clus scale="  101.223">  2  5  1 -1</clus>
<clus scale="   23.985">  1  5  2 -1</clus>
</clustering>
</event>
<event>
 9    1  0.1321469E-005  0.1022774E+03  0.7546771E-02  0.1276554E+00
         21   -1    0    0  501  502  0.00000000000E+00  0.00000000000E+00  0.39769881301E+03  0.39769881301E+03  0.00000000000E+00 0. -1.
          2   -1    0    0  502    0 -0.00000000000E+00 -0.00000000000E+00 -0.76312963269E+02  0.76312963269E+02  0.00000000000E+00 0. -1.
         23    2    1    2    0    0 -0.16895326003E+02  0.48709212325E+02 -0.23904288267E+02  0.10486654688E+03  0.88133638592E+02 0.  0.
         23    2    1    2    0    0 -0.86414706068E+01 -0.26887481872E+02  0.28275012262E+03  0.29815530457E+03  0.90284783383E+02 0.  0.
        -11    1    3    3    0    0 -0.66919767875E+01 -0.25693111158E+02 -0.19366676891E+01  0.26620841385E+02  0.00000000000E+00 0.  1.
         11    1    3    3    0    0 -0.10203349215E+02  0.74402323484E+02 -0.21967620578E+02  0.78245705498E+02  0.00000000000E+00 0. -1.
        -11    1    4    4    0    0  0.40796291319E+02 -0.16616628018E+02  0.13682214088E+03  0.14373847066E+03  0.00000000000E+00 0.  1.
         11    1    4    4    0    0 -0.49437761926E+02 -0.10270853854E+02  0.14592798174E+03  0.15441683392E+03  0.00000000000E+00 0. -1.
          2    1    1    2  501    0  0.25536796609E+02 -0.21821730454E+02  0.62540015396E+02  0.70989924826E+02  0.00000000000E+00 0. -1.
<scales pt_clust_5="13000.00000" pt_clust_6="13000.00000" pt_clust_7="13000.00000" pt_clust_8="13000.00000" pt_clust_9="33.59041"></scales>
<clustering>
<clus scale="   33.590">  1  9  2 -1</clus>
<clus scale="   88.134">  5  6 -1 -1</clus>
<clus scale="   90.285">  7  8 -1 -1</clus>
<clus scale="  100.384">  2  5  1 -1</clus>
<clus scale="   33.590">  1  5  2 -1</clus>
</clustering>
</event>
<event>
 9    1  0.1321469E-005  0.9598727E+02  0.7546771E-02  0.1291562E+00
         21   -1    0    0  501  502  0.00000000000E+00  0.00000000000E+00  0.40131216541E+03  0.40131216541E+03  0.00000000000E+00 0. -1.
          2   -1    0    0  502    0 -0.00000000000E+00 -0.00000000000E+00 -0.10697653426E+03  0.10697653426E+03  0.00000000000E+00 0. -1.
         23    2    1    2    0    0  0.64914378429E+01  0.61215612605E+01 -0.48114003392E+02  0.10292484100E+03  0.90548071737E+02 0.  0.
         23    2    1    2    0    0 -0.32963863393E+02  0.26756399564E+02  0.60921175718E+02  0.12068856512E+03  0.95141047362E+02 0.  0.
        -11    1    3    3    0    0  0.12956745604E+02  0.40151144659E+02  0.17317624635E+01  0.42225474246E+02  0.00000000000E+00 0.  1.
         11    1    3    3    0    0 -0.64653077610E+01 -0.34029583399E+02 -0.49845765856E+02  0.60699366755E+02  0.00000000000E+00 0. -1.
        -13    1    4    4    0    0 -0.18983844848E+02 -0.18508711160E+02 -0.15546219600E+02  0.30735056497E+02  0.00000000000E+00 0. -1.
         13    1    4    4    0    0 -0.13980018545E+02  0.45265110724E+02  0.76467395319E+02  0.89953508626E+02  0.00000000000E+00 0.  1.
          2    1    1    2  501    0  0.26472425550E+02 -0.32877960825E+02  0.28152845883E+03  0.28467529354E+03  0.00000000000E+00 0. -1.
<scales pt_clust_5="13000.00000" pt_clust_6="13000.00000" pt_clust_7="13000.00000" pt_clust_8="13000.00000" pt_clust_9="42.21078"></scales>
<clustering>
<clus scale="   42.211">  1  9  2 -1</clus>
<clus scale="   90.548">  5  6 -1 -1</clus>
<clus scale="   91.437">  2  5  1 -1</clus>
<clus scale="   95.141">  7  8 -1 -1</clus>
<clus scale="   42.211">  1  5  2 -1</clus>
</clustering>
</event>
<event>
 9    1  0.1321469E-005  0.2124116E+03  0.7546771E-02  0.1139834E+00
         21   -1    0    0  501  502  0.00000000000E+00  0.00000000000E+00  0.23607389375E+03  0.23607389375E+03  0.00000000000E+00 0.  1.
          2   -1    0    0  502    0 -0.00000000000E+00 -0.00000000000E+00 -0.26502957326E+03  0.26502957326E+03  0.00000000000E+00 0. -1.
         23    2    1    2    0    0 -0.10035954195E+03 -0.17202557075E+03 -0.86987032776E+02  0.23527286602E+03  0.90120713298E+02 0.  0.
         23    2    1    2    0    0  0.60265802248E+02  0.17193500198E+03  0.11565843633E+02  0.20445829656E+03  0.92064186649E+02 0.  0.
        -11    1    4    4    0    0 -0.69523257859E+01  0.11070842117E+03  0.21511510234E+02  0.11299307246E+03  0.00000000000E+00 0.  1.
         11    1    4    4    0    0  0.67218128034E+02  0.61226580819E+02 -0.99456666014E+01  0.91465224098E+02  0.00000000000E+00 0. -1.
        -11    1    3    3    0    0 -0.68348718552E+02 -0.13074765588E+03 -0.10380802736E+03  0.18039568562E+03  0.00000000000E+00 0. -1.
         11    1    3    3    0    0 -0.32010823394E+02 -0.41277914871E+02  0.16820994586E+02  0.54877180406E+02  0.00000000000E+00 0.  1.
          2    1    1    2  501    0  0.40093739699E+02  0.90568762156E-01  0.46465509637E+02  0.61372304434E+02  0.00000000000E+00 0. -1.
<scales pt_clust_5="13000.00000" pt_clust_6="13000.00000" pt_clust_7="13000.00000" pt_clust_8="13000.00000" pt_clust_9="40.09384"></scales>
<clustering>
<clus scale="   40.094">  1  9  2 -1</clus>
<clus scale="   90.121">  7  8 -1 -1</clus>
<clus scale="   92.064">  5  6 -1 -1</clus>
<clus scale="  211.576">  2  7  1 -1</clus>
<clus scale="   40.094">  1  5  2 -1</clus>
</clustering>
</event>
<event>
 9    1  0.1321469E-005  0.1378755E+03  0.7546771E-02  0.1216470E+00
         21   -1    0    0  501  502  0.00000000000E+00  0.00000000000E+00  0.23983822401E+02  0.23983822401E+02  0.00000000000E+00 0. -1.
         -3   -1    0    0    0  501 -0.00000000000E+00 -0.00000000000E+00 -0.10690523216E+04  0.10690523216E+04  0.00000000000E+00 0.  1.
         23    2    1    2    0    0  0.65606824457E+02 -0.62251885504E+02 -0.47640905690E+03  0.49357096069E+03  0.92017123826E+02 0.  0.
         23    2    1    2    0    0 -0.73186686465E+02  0.97820987482E+02 -0.43223703041E+03  0.45827846371E+03  0.90912392885E+02 0.  0.
        -11    1    4    4    0    0  0.20716726352E+02  0.24656220058E+02 -0.11565658333E+03  0.12005647507E+03  0.00000000000E+00 0.  1.
         11    1    4    4    0    0 -0.93903412817E+02  0.73164767424E+02 -0.31658044708E+03  0.33822198865E+03  0.00000000000E+00 0. -1.
        -13    1    3    3    0    0  0.26003504935E+02 -0.69751825707E+02 -0.40305902420E+03  0.40987568414E+03  0.00000000000E+00 0.  1.
         13    1    3    3    0    0  0.39603319522E+02  0.74999402031E+01 -0.73350032697E+02  0.83695276550E+02  0.00000000000E+00 0. -1.
         -3    1    1    2    0  502  0.75798620074E+01 -0.35569101978E+02 -0.13642241185E+03  0.14118671956E+03  0.00000000000E+00 0.  1.
<scales pt_clust_5="13000.00000" pt_clust_6="13000.00000" pt_clust_7="13000.00000" pt_clust_8="13000.00000" pt_clust_9="36.36780"></scales>
<clustering>
<clus scale="   36.368">  1  9  2 -1</clus>
<clus scale="   90.912">  5  6 -1 -1</clus>
<clus scale="   92.017">  7  8 -1 -1</clus>
<clus scale="  137.141">  1  5  2 -1</clus>
<clus scale="   36.368">  1  5  2 -1</clus>
</clustering>
</event>
<event>
 9    1  0.1321469E-005  0.1331136E+03  0.7546771E-02  0.1223421E+00
          1   -1    0    0  502    0 -0.00000000000E+00  0.00000000000E+00  0.97396594877E+03  0.97396594877E+03  0.00000000000E+00 0. -1.
         21   -1    0    0  501  502  0.00000000000E+00 -0.00000000000E+00 -0.32271096353E+02  0.32271096353E+02  0.00000000000E+00 0.  1.
         23    2    1    2    0    0  0.52623984584E+02  0.67271851720E+02  0.59840649113E+03  0.61140619112E+03  0.91828188023E+02 0.  0.
         23    2    1    2    0    0 -0.66814695948E+02 -0.96723641716E+02  0.32311767877E+03  0.35641678554E+03  0.93852140197E+02 0.  0.
        -11    1    3    3    0    0  0.76110921597E+02  0.31020539935E+02  0.38658355208E+03  0.39522397324E+03  0.00000000000E+00 0.  1.
         11    1    3    3    0    0 -0.23486937013E+02  0.36251311785E+02  0.21182293906E+03  0.21618221788E+03  0.00000000000E+00 0. -1.
        -11    1    4    4    0    0 -0.21915649703E+02 -0.67268731920E+02  0.77243104994E+02  0.10474671959E+03  0.00000000000E+00 0.  1.
         11    1    4    4    0    0 -0.44899046245E+02 -0.29454909795E+02  0.24587457378E+03  0.25167006595E+03  0.00000000000E+00 0. -1.
          1    1    1    2  501    0  0.14190711364E+02  0.29451789996E+02  0.20170682507E+02  0.38414068462E+02  0.00000000000E+00 0. -1.
<scales pt_clust_5="13000.00000" pt_clust_6="13000.00000" pt_clust_7="13000.00000" pt_clust_8="13000.00000" pt_clust_9="32.69227"></scales>
<clustering>
<clus scale="   32.692">  2  9  1 -1</clus>
<clus scale="   91.828">  5  6 -1 -1</clus>
<clus scale="   93.852">  7  8 -1 -1</clus>
<clus scale="  131.694">  1  5  2 -1</clus>
<clus scale="   32.692">  2  5  1 -1</clus>
</clustering>
</event>
<event>
 9    1  0.1321469E-005  0.1260261E+03  0.7546771E-02  0.1234002E+00
         21   -1    0    0  501  502  0.00000000000E+00  0.00000000000E+00  0.39906607242E+02  0.39906607242E+02  0.00000000000E+00 0.  1.
          2   -1    0    0  502    0 -0.00000000000E+00 -0.00000000000E+00 -0.52666189543E+03  0.52666189543E+03  0.00000000000E+00 0. -1.
         23    2    1    2    0    0 -0.89481747796E+02 -0.24839266219E+02 -0.33941841025E+03  0.36408651581E+03  0.93435332917E+02 0.  0.
         23    2    1    2    0    0  0.67266268143E+02  0.15528234038E+02 -0.11873214407E+03  0.16508608260E+03  0.91598120890E+02 0.  0.
        -13    1    3    3    0    0 -0.84656751907E+02  0.18633590636E+02 -0.24870987066E+03  0.26338294574E+03  0.00000000000E+00 0. -1.
         13    1    3    3    0    0 -0.48249958886E+01 -0.43472856856E+02 -0.90708539595E+02  0.10070357007E+03  0.00000000000E+00 0.  1.
        -13    1    4    4    0    0  0.40709053455E+02  0.53206777735E+01 -0.12858252159E+03  0.13497778152E+03  0.00000000000E+00 0. -1.
         13    1    4    4    0    0  0.26557214688E+02  0.10207556265E+02  0.98503775178E+01  0.30108301083E+02  0.00000000000E+00 0.  1.
          2    1    1    2  501    0  0.22215479653E+02  0.93110321811E+01 -0.28604733862E+02  0.37395904265E+02  0.00000000000E+00 0. -1.
<scales pt_clust_5="13000.00000" pt_clust_6="13000.00000" pt_clust_7="13000.00000" pt_clust_8="13000.00000" pt_clust_9="24.08782"></scales>
<clustering>
<clus scale="   24.088">  1  9  2 -1</clus>
<clus scale="   91.598">  7  8 -1 -1</clus>
<clus scale="   93.435">  5  6 -1 -1</clus>
<clus scale="  124.670">  1  7  2 -1</clus>
<clus scale="   24.088">  1  5  2 -1</clus>
</clustering>
</event>
<event>
 9    1  0.1321469E-005  0.1539314E+03  0.7546771E-02  0.1195752E+00
         -3   -1    0    0    0  501 -0.00000000000E+00  0.00000000000E+00  0.16522487130E+03  0.16522487130E+03  0.00000000000E+00 0.  1.
         21   -1    0    0  501  502  0.00000000000E+00 -0.00000000000E+00 -0.18207497970E+03  0.18207497970E+03  0.00000000000E+00 0.  1.
         23    2    1    2    0    0 -0.70750762257E+02  0.90843335830E+02  0.24580158709E+02  0.14918864808E+03  0.91623613164E+02 0.  0.
         23    2    1    2    0    0  0.83952161277E+02 -0.11067709809E+03 -0.48520059323E+02  0.17325320189E+03  0.91460868047E+02 0.  0.
        -13    1    4    4    0    0  0.40293324381E+02 -0.47811956542E+02  0.24798023629E+02  0.67264233839E+02  0.00000000000E+00 0.  1.
         13    1    4    4    0    0  0.43658836896E+02 -0.62865141548E+02 -0.73318082952E+02  0.10598896805E+03  0.00000000000E+00 0. -1.
        -13    1    3    3    0    0 -0.67110697624E+02  0.20046211712E+02  0.33677609669E+02  0.77716650292E+02  0.00000000000E+00 0.  1.
         13    1    3    3    0    0 -0.36400646326E+01  0.70797124118E+02 -0.90974509595E+01  0.71471997788E+02  0.00000000000E+00 0. -1.
         -3    1    1    2    0  502 -0.13201399020E+02  0.19833762260E+02  0.70897922091E+01  0.24858001027E+02  0.00000000000E+00 0.  1.
<scales pt_clust_5="13000.00000" pt_clust_6="13000.00000" pt_clust_7="13000.00000" pt_clust_8="13000.00000" pt_clust_9="23.82552"></scales>
<clustering>
<clus scale="   23.826">  2  9  1 -1</clus>
<clus scale="   91.461">  5  6 -1 -1</clus>
<clus scale="   91.624">  7  8 -1 -1</clus>
<clus scale="  153.835">  2  5  1 -1</clus>
<clus scale="   23.826">  2  5  1 -1</clus>
</clustering>
</event>
<event>
 9    1  0.1321469E-005  0.9082708E+02  0.7546771E-02  0.1302947E+00
          1   -1    0    0  502    0 -0.00000000000E+00  0.00000000000E+00  0.32094559833E+03  0.32094559833E+03  0.00000000000E+00 0. -1.
         21   -1    0    0  501  502  0.00000000000E+00 -0.00000000000E+00 -0.45144579855E+02  0.45144579855E+02  0.00000000000E+00 0. -1.
         23    2    1    2    0    0  0.57449118903E+01  0.63327514860E+01  0.93502764619E+02  0.12622766457E+03  0.84365565005E+02 0.  0.
         23    2    1    2    0    0  0.47354463515E+02 -0.15947258207E+02  0.13025550917E+03  0.16489298858E+03  0.87900169263E+02 0.  0.
        -11    1    4    4    0    0  0.41019609373E+02 -0.40861785297E+02  0.12622641399E+03  0.13887188859E+03  0.00000000000E+00 0. -1.
         11    1    4    4    0    0  0.63348541423E+01  0.24914527090E+02  0.40290951784E+01  0.26021099998E+02  0.00000000000E+00 0.  1.
        -13    1    3    3    0    0 -0.18651029038E+02 -0.33010409475E+02  0.49558278502E+02  0.62398485446E+02  0.00000000000E+00 0.  1.
         13    1    3    3    0    0  0.24395940928E+02  0.39343160961E+02  0.43944486117E+02  0.63829179129E+02  0.00000000000E+00 0. -1.
          1    1    1    2  501    0 -0.53099375406E+02  0.96145067210E+01  0.52042744687E+02  0.74969525025E+02  0.00000000000E+00 0. -1.
<scales pt_clust_5="13000.00000" pt_clust_6="13000.00000" pt_clust_7="13000.00000" pt_clust_8="13000.00000" pt_clust_9="53.96279"></scales>
<clustering>
<clus scale="   53.963">  2  9  1 -1</clus>
<clus scale="   84.366">  7  8 -1 -1</clus>
<clus scale="   87.411">  1  7  2 -1</clus>
<clus scale="   87.900">  5  6 -1 -1</clus>
<clus scale="   53.963">  2  5  1 -1</clus>
</clustering>
</event>
<event>
 9    1  0.1321469E-005  0.1118886E+03  0.7546771E-02  0.1257663E+00
         21   -1    0    0  501  502  0.00000000000E+00  0.00000000000E+00  0.18583531104E+03  0.18583531104E+03  0.00000000000E+00 0.  1.
          2   -1    0    0  502    0 -0.00000000000E+00 -0.00000000000E+00 -0.87275566027E+02  0.87275566027E+02  0.00000000000E+00 0. -1.
         23    2    1    2    0    0  0.66071021893E+02 -0.35169328860E+02  0.34204491065E+02  0.12393237599E+03  0.92666201944E+02 0.  0.
         23    2    1    2    0    0 -0.50462585907E+02  0.96607352411E+01  0.49765621481E+02  0.11590435199E+03  0.91199777116E+02 0.  0.
        -11    1    4    4    0    0 -0.82241498256E+01  0.21157780927E+02  0.65550861137E+02  0.69370049228E+02  0.00000000000E+00 0.  1.
         11    1    4    4    0    0 -0.42238436081E+02 -0.11497045686E+02 -0.15785239656E+02  0.46534302757E+02  0.00000000000E+00 0. -1.
        -11    1    3    3    0    0  0.48391439290E+02 -0.63513865136E+02  0.57582101186E+01  0.80055602208E+02  0.00000000000E+00 0. -1.
         11    1    3    3    0    0  0.17679582603E+02  0.28344536276E+02  0.28446280947E+02  0.43876773781E+02  0.00000000000E+00 0.  1.
          2    1    1    2  501    0 -0.15608435986E+02  0.25508593619E+02  0.14589632468E+02  0.33274149094E+02  0.00000000000E+00 0. -1.
<scales pt_clust_5="13000.00000" pt_clust_6="13000.00000" pt_clust_7="13000.00000" pt_clust_8="13000.00000" pt_clust_9="29.90504"></scales>
<clustering>
<clus scale="   29.905">  1  9  2 -1</clus>
<clus scale="   91.200">  5  6 -1 -1</clus>
<clus scale="   92.666">  7  8 -1 -1</clus>
<clus scale="  110.677">  1  5  2 -1</clus>
<clus scale="   29.905">  1  5  2 -1</clus>
</clustering>
</event>
<event>
 9    1  0.1321469E-005  0.1005677E+03  0.7546771E-02  0.1280162E+00
          1   -1    0    0  502    0 -0.00000000000E+00  0.00000000000E+00  0.51132097588E+03  0.51132097588E+03  0.00000000000E+00 0. -1.
         21   -1    0    0  501  502  0.00000000000E+00 -0.00000000000E+00 -0.18738761725E+03  0.18738761725E+03  0.00000000000E+00 0. -1.
         23    2    1    2    0    0 -0.28135065092E+01  0.28357050082E+02  0.28048196673E+03  0.29633830619E+03  0.91291948974E+02 0.  0.
         23    2    1    2    0    0 -0.41851696326E+02 -0.64675663095E+02  0.20192742676E+03  0.23376223370E+03  0.89081930503E+02 0.  0.
        -13    1    3    3    0    0 -0.39323054103E+02 -0.12096074664E+02  0.12170623233E+03  0.12847188250E+03  0.00000000000E+00 0. -1.
         13    1    3    3    0    0  0.36509547594E+02  0.40453124746E+02  0.15877573440E+03  0.16786642369E+03  0.00000000000E+00 0.  1.
        -13    1    4    4    0    0 -0.36057699419E+02  0.13990298276E+02  0.59916809014E+02  0.71315567275E+02  0.00000000000E+00 0.  1.
         13    1    4    4    0    0 -0.57939969068E+01 -0.78665961372E+02  0.14201061775E+03  0.16244666642E+03  0.00000000000E+00 0. -1.
          1    1    1    2  501    0  0.44665202835E+02  0.36318613013E+02 -0.15847603485E+03  0.16860805324E+03  0.00000000000E+00 0. -1.
<scales pt_clust_5="13000.00000" pt_clust_6="13000.00000" pt_clust_7="13000.00000" pt_clust_8="13000.00000" pt_clust_9="57.56754"></scales>
<clustering>
<clus scale="   57.568">  2  9  1 -1</clus>
<clus scale="   89.082">  7  8 -1 -1</clus>
<clus scale="   91.292">  5  6 -1 -1</clus>
<clus scale="   98.566">  2  7  1 -1</clus>
<clus scale="   57.568">  2  5  1 -1</clus>
</clustering>
</event>
<event>
 9    1  0.1321469E-005  0.1046735E+03  0.7546771E-02  0.1271136E+00
         21   -1    0    0  501  502  0.00000000000E+00  0.00000000000E+00  0.73329919784E+02  0.73329919784E+02  0.00000000000E+00 0. -1.
          1   -1    0    0  502    0 -0.00000000000E+00 -0.00000000000E+00 -0.35057792271E+03  0.35057792271E+03  0.00000000000E+00 0. -1.
         23    2    1    2    0    0  0.41824472958E+02 -0.26978975536E+02 -0.15242920872E+03  0.18442861357E+03  0.91115850286E+02 0.  0.
         23    2    1    2    0    0 -0.62574369119E+02 -0.21425687981E+02 -0.14493598567E+03  0.18310307232E+03  0.90253439684E+02 0.  0.
        -13    1    3    3    0    0  0.48250945848E+02  0.10761369372E+02 -0.34089382430E+02  0.60050369195E+02  0.00000000000E+00 0.  1.
         13    1    3    3    0    0 -0.64264728892E+01 -0.37740344908E+02 -0.11833982629E+03  0.12437824438E+03  0.00000000000E+00 0. -1.
        -13    1    4    4    0    0 -0.77584244259E+02  0.70074542445E+01 -0.86510367646E+02  0.11641504663E+03  0.00000000000E+00 0.  1.
         13    1    4    4    0    0  0.15009875141E+02 -0.28433142225E+02 -0.58425618025E+02  0.66688025688E+02  0.00000000000E+00 0. -1.
          1    1    1    2  501    0  0.20749896160E+02  0.48404663516E+02  0.20117191466E+02  0.56376156603E+02  0.00000000000E+00 0. -1.
<scales pt_clust_5="13000.00000" pt_clust_6="13000.00000" pt_clust_7="13000.00000" pt_clust_8="13000.00000" pt_clust_9="52.66469"></scales>
<clustering>
<clus scale="   52.665">  1  9  2 -1</clus>
<clus scale="   90.253">  7  8 -1 -1</clus>
<clus scale="   91.116">  5  6 -1 -1</clus>
<clus scale="  103.924">  1  7  2 -1</clus>
<clus scale="   52.665">  1  5  2 -1</clus>
</clustering>
</event>
<event>
 9    1  0.1321469E-005  0.1133207E+03  0.7546771E-02  0.1279284E+00
         -1   -1    0    0    0  501 -0.00000000000E+00  0.00000000000E+00  0.33319464595E+03  0.33319464595E+03  0.00000000000E+00 0.  1.
         21   -1    0    0  501  502  0.00000000000E+00 -0.00000000000E+00 -0.74443023615E+02  0.74443023615E+02  0.00000000000E+00 0.  1.
         23    2    1    2    0    0 -0.10422866225E-01  0.18319124873E+00  0.20050597029E+03  0.21239193044E+03  0.70054652418E+02 0.  0.
         23    2    1    2    0    0  0.59253420229E+02 -0.42136191278E+02  0.29250138825E+02  0.11707588090E+03  0.86975656617E+02 0.  0.
        -11    1    3    3    0    0  0.13101893594E+02  0.31446026360E+02  0.74752264886E+02  0.82148726680E+02  0.00000000000E+00 0. -1.
         11    1    3    3    0    0 -0.13112316460E+02 -0.31262835112E+02  0.12575370541E+03  0.13024320376E+03  0.00000000000E+00 0.  1.
        -13    1    4    4    0    0  0.28448227427E+02 -0.63460231050E+02  0.98313052415E-03  0.69544967967E+02  0.00000000000E+00 0.  1.
         13    1    4    4    0    0  0.30805192802E+02  0.21324039772E+02  0.29249155695E+02  0.47530912937E+02  0.00000000000E+00 0. -1.
         -1    1    1    2    0  502 -0.59242997362E+02  0.41953000029E+02  0.28995513221E+02  0.78169858225E+02  0.00000000000E+00 0.  1.
<scales pt_clust_5="13000.00000" pt_clust_6="13000.00000" pt_clust_7="13000.00000" pt_clust_8="13000.00000" pt_clust_9="72.64171"></scales>
<clustering>
<clus scale="   70.055">  5  6 -1 -1</clus>
<clus scale="   70.055">  1  5  2 -1</clus>
<clus scale="   72.642">  2  9  1 -1</clus>
<clus scale="   86.976">  7  8 -1 -1</clus>
<clus scale="   72.642">  2  5  1 -1</clus>
</clustering>
</event>
<event>
 9    1  0.1321469E-005  0.9901269E+02  0.7546771E-02  0.1283129E+00
         -1   -1    0    0    0  501 -0.00000000000E+00  0.00000000000E+00  0.44911185549E+03  0.44911185549E+03  0.00000000000E+00 0.  1.
         21   -1    0    0  501  502  0.00000000000E+00 -0.00000000000E+00 -0.63584101866E+02  0.63584101866E+02  0.00000000000E+00 0.  1.
         23    2    1    2    0    0 -0.43448662299E+02 -0.52316729215E+02  0.27422759325E+03  0.29611892388E+03  0.88661252913E+02 0.  0.
         23    2    1    2    0    0  0.12686213173E+02 -0.12338887788E+02  0.11211805962E+03  0.14497154454E+03  0.90183708493E+02 0.  0.
        -13    1    3    3    0    0 -0.70381542410E+02 -0.43214776129E+02  0.21782358906E+03  0.23295534838E+03  0.00000000000E+00 0.  1.
         13    1    3    3    0    0  0.26932880112E+02 -0.91019530853E+01  0.56404004185E+02  0.63163575494E+02  0.00000000000E+00 0. -1.
        -13    1    4    4    0    0  0.47887263132E+02  0.11459941798E+02  0.64602638778E+02  0.81228204297E+02  0.00000000000E+00 0. -1.
         13    1    4    4    0    0 -0.35201049959E+02 -0.23798829585E+02  0.47515420841E+02  0.63743340244E+02  0.00000000000E+00 0.  1.
         -1    1    1    2    0  502  0.30762449126E+02  0.64655617002E+02 -0.81789924793E+00  0.71605488933E+02  0.00000000000E+00 0.  1.
<scales pt_clust_5="13000.00000" pt_clust_6="13000.00000" pt_clust_7="13000.00000" pt_clust_8="13000.00000" pt_clust_9="71.60082"></scales>
<clustering>
<clus scale="   71.601">  2  9  1 -1</clus>
<clus scale="   88.661">  5  6 -1 -1</clus>
<clus scale="   90.184">  7  8 -1 -1</clus>
<clus scale="   97.628">  1  5  2 -1</clus>
<clus scale="   71.601">  2  5  1 -1</clus>
</clustering>
</event>
<event>
 9    1  0.1321469E-005  0.1126101E+03  0.7546771E-02  0.1257256E+00
         21   -1    0    0  501  502  0.00000000000E+00  0.00000000000E+00  0.15532084227E+03  0.15532084227E+03  0.00000000000E+00 0.  1.
          1   -1    0    0  502    0 -0.00000000000E+00 -0.00000000000E+00 -0.14264625416E+03  0.14264625416E+03  0.00000000000E+00 0. -1.
         23    2    1    2    0    0 -0.70891846383E+02  0.12735080112E+02 -0.53906632258E+02  0.12944571261E+03  0.93072183619E+02 0.  0.
         23    2    1    2    0    0  0.49764016115E+02 -0.11898458847E+02  0.45039793460E+01  0.10294189770E+03  0.89211646379E+02 0.  0.
        -13    1    3    3    0    0 -0.88972847202E+02 -0.27705940982E+01 -0.25956846302E+02  0.92723252752E+02  0.00000000000E+00 0.  1.
         13    1    3    3    0    0  0.18081000819E+02  0.15505674211E+02 -0.27949785956E+02  0.36722459862E+02  0.00000000000E+00 0. -1.
        -13    1    4    4    0    0 -0.20835123930E+02 -0.12966029886E+02  0.18785354717E+02  0.30904851917E+02  0.00000000000E+00 0.  1.
         13    1    4    4    0    0  0.70599140045E+02  0.10675710387E+01 -0.14281375371E+02  0.72037045785E+02  0.00000000000E+00 0. -1.
          1    1    1    2  501    0  0.21127830268E+02 -0.83662126535E+00  0.62077241018E+02  0.65579486118E+02  0.00000000000E+00 0. -1.
<scales pt_clust_5="13000.00000" pt_clust_6="13000.00000" pt_clust_7="13000.00000" pt_clust_8="13000.00000" pt_clust_9="21.14439"></scales>
<clustering>
<clus scale="   21.144">  1  9  2 -1</clus>
<clus scale="   89.212">  7  8 -1 -1</clus>
<clus scale="   93.072">  5  6 -1 -1</clus>
<clus scale="  109.441">  1  7  2 -1</clus>
<clus scale="   21.144">  1  5  2 -1</clus>
</clustering>
</event>
<event>
 9    1  0.1321469E-005  0.1481320E+03  0.7546771E-02  0.1203248E+00
          2   -1    0    0  502    0 -0.00000000000E+00  0.00000000000E+00  0.14759149285E+03  0.14759149285E+03  0.00000000000E+00 0. -1.
         21   -1    0    0  501  502  0.00000000000E+00 -0.00000000000E+00 -0.24547437395E+03  0.24547437395E+03  0.00000000000E+00 0.  1.
         23    2    1    2    0    0 -0.22839591256E+01  0.12033268660E+03  0.34497022684E+02  0.15540032943E+03  0.92054580969E+02 0.  0.
         23    2    1    2    0    0 -0.15701641107E+02 -0.10888051885E+03 -0.46758919461E+02  0.14942956445E+03  0.89673236043E+02 0.  0.
        -11    1    3    3    0    0  0.20411309081E+02  0.12625117124E+03  0.26393419798E+02  0.13058557496E+03  0.00000000000E+00 0.  1.
         11    1    3    3    0    0 -0.22695268206E+02 -0.59184846434E+01  0.81036028854E+01  0.24814754465E+02  0.00000000000E+00 0. -1.
        -13    1    4    4    0    0 -0.50817573042E+02 -0.85978417252E+02 -0.35809256217E+02  0.10609908951E+03  0.00000000000E+00 0. -1.
         13    1    4    4    0    0  0.35115931936E+02 -0.22902101599E+02 -0.10949663244E+02  0.43330474940E+02  0.00000000000E+00 0.  1.
          2    1    1    2  501    0  0.17985600233E+02 -0.11452167750E+02 -0.85620984327E+02  0.88235972931E+02  0.00000000000E+00 0. -1.
<scales pt_clust_5="13000.00000" pt_clust_6="13000.00000" pt_clust_7="13000.00000" pt_clust_8="13000.00000" pt_clust_9="21.32215"></scales>
<clustering>
<clus scale="   21.322">  2  9  1 -1</clus>
<clus scale="   89.673">  7  8 -1 -1</clus>
<clus scale="   92.055">  5  6 -1 -1</clus>
<clus scale="  146.664">  2  7  1 -1</clus>
<clus scale="   21.322">  2  5  1 -1</clus>
</clustering>
</event>
<event>
 9    1  0.1321469E-005  0.1082415E+03  0.7546771E-02  0.1264598E+00
          2   -1    0    0  502    0 -0.00000000000E+00  0.00000000000E+00  0.11229134418E+04  0.11229134418E+04  0.00000000000E+00 0. -1.
         21   -1    0    0  501  502  0.00000000000E+00 -0.00000000000E+00 -0.23204971029E+02  0.23204971029E+02  0.00000000000E+00 0. -1.
         23    2    1    2    0    0  0.32509210015E+02  0.26241184510E+02  0.48867272629E+03  0.49864689081E+03  0.90012442443E+02 0.  0.
         23    2    1    2    0    0 -0.49867318301E+02 -0.57468035827E+02  0.59746820099E+03  0.60925505430E+03  0.91837603504E+02 0.  0.
        -11    1    3    3    0    0  0.63336066239E+02  0.23118790594E+02  0.36319195690E+03  0.36939725678E+03  0.00000000000E+00 0. -1.
         11    1    3    3    0    0 -0.30826856223E+02  0.31223939168E+01  0.12548076939E+03  0.12924963403E+03  0.00000000000E+00 0.  1.
        -13    1    4    4    0    0 -0.65321625114E+02 -0.83505316524E+01  0.38814104325E+03  0.39368784022E+03  0.00000000000E+00 0.  1.
         13    1    4    4    0    0  0.15454306813E+02 -0.49117504175E+02  0.20932715775E+03  0.21556721408E+03  0.00000000000E+00 0. -1.
          2    1    1    2  501    0  0.17358108286E+02  0.31226851317E+02  0.13567543446E+02  0.38216467676E+02  0.00000000000E+00 0. -1.
<scales pt_clust_5="13000.00000" pt_clust_6="13000.00000" pt_clust_7="13000.00000" pt_clust_8="13000.00000" pt_clust_9="35.72702"></scales>
<clustering>
<clus scale="   35.727">  2  9  1 -1</clus>
<clus scale="   90.012">  5  6 -1 -1</clus>
<clus scale="   91.838">  7  8 -1 -1</clus>
<clus scale="  106.697">  1  5  2 -1</clus>
<clus scale="   35.727">  2  5  1 -1</clus>
</clustering>
</event>
<event>
 9    1  0.1321469E-005  0.9949986E+02  0.7546771E-02  0.1282398E+00
         21   -1    0    0  501  502  0.00000000000E+00  0.00000000000E+00  0.44172911447E+02  0.44172911447E+02  0.00000000000E+00 0. -1.
         -1   -1    0    0    0  501 -0.00000000000E+00 -0.00000000000E+00 -0.30788273800E+03  0.30788273800E+03  0.00000000000E+00 0.  1.
         23    2    1    2    0    0  0.47315437955E+02 -0.15891063955E+02 -0.14166161957E+03  0.17475738164E+03  0.89335611018E+02 0.  0.
         23    2    1    2    0    0 -0.39803888495E+02 -0.10428826793E+02 -0.11289409503E+03  0.14843725968E+03  0.87151783694E+02 0.  0.
        -11    1    3    3    0    0  0.38696965652E+02 -0.46901214594E+02 -0.12385247571E+03  0.13797323951E+03  0.00000000000E+00 0. -1.
         11    1    3    3    0    0  0.86184723031E+01  0.31010150639E+02 -0.17809143867E+02  0.36784142137E+02  0.00000000000E+00 0.  1.
        -13    1    4    4    0    0  0.18691474067E+02  0.15591501834E+02 -0.62143290084E+02  0.66740202537E+02  0.00000000000E+00 0.  1.
         13    1    4    4    0    0 -0.58495362562E+02 -0.26020328627E+02 -0.50750804949E+02  0.81697057145E+02  0.00000000000E+00 0. -1.
         -1    1    1    2    0  502 -0.75115494604E+01  0.26319890748E+02 -0.91541119452E+01  0.28861008122E+02  0.00000000000E+00 0.  1.
<scales pt_clust_5="13000.00000" pt_clust_6="13000.00000" pt_clust_7="13000.00000" pt_clust_8="13000.00000" pt_clust_9="27.37079"></scales>
<clustering>
<clus scale="   27.371">  1  9  2 -1</clus>
<clus scale="   87.152">  7  8 -1 -1</clus>
<clus scale="   89.336">  5  6 -1 -1</clus>
<clus scale="   97.544">  1  7  2 -1</clus>
<clus scale="   27.371">  1  5  2 -1</clus>
</clustering>
</event>
<event>
 9    1  0.1321469E-005  0.1252673E+03  0.7546771E-02  0.1236160E+00
          1   -1    0    0  502    0 -0.00000000000E+00  0.00000000000E+00  0.36145753058E+03  0.36145753058E+03  0.00000000000E+00 0. -1.
         21   -1    0    0  501  502  0.00000000000E+00 -0.00000000000E+00 -0.85206786140E+02  0.85206786140E+02  0.00000000000E+00 0. -1.
         23    2    1    2    0    0  0.36175434410E+02 -0.75539725750E+02  0.20568451343E+03  0.24116787771E+03  0.94026134428E+02 0.  0.
         23    2    1    2    0    0 -0.85819801982E+02  0.40831404016E+02  0.62587676855E+02  0.14439907281E+03  0.88891129867E+02 0.  0.
        -13    1    4    4    0    0 -0.37543271774E+02 -0.19451818084E+02 -0.39376986088E+01  0.42466174217E+02  0.00000000000E+00 0. -1.
         13    1    4    4    0    0 -0.48276530207E+02  0.60283222100E+02  0.66525375463E+02  0.10193289860E+03  0.00000000000E+00 0.  1.
        -13    1    3    3    0    0 -0.20485653356E+02  0.63480310028E+01  0.15402582045E+02  0.26404526595E+02  0.00000000000E+00 0.  1.
         13    1    3    3    0    0  0.56661087766E+02 -0.81887756753E+02  0.19028193138E+03  0.21476335112E+03  0.00000000000E+00 0. -1.
          1    1    1    2  501    0  0.49644367572E+02  0.34708321734E+02  0.79785541558E+01  0.61097366192E+02  0.00000000000E+00 0. -1.
<scales pt_clust_5="13000.00000" pt_clust_6="13000.00000" pt_clust_7="13000.00000" pt_clust_8="13000.00000" pt_clust_9="60.57418"></scales>
<clustering>
<clus scale="   60.574">  2  9  1 -1</clus>
<clus scale="   88.891">  5  6 -1 -1</clus>
<clus scale="   94.026">  7  8 -1 -1</clus>
<clus scale="  121.460">  2  5  1 -1</clus>
<clus scale="   60.574">  2  5  1 -1</clus>
</clustering>
</event>
<event>
 9    1  0.1321469E-005  0.9379147E+02  0.7546771E-02  0.1298438E+00
         -1   -1    0    0    0  501 -0.00000000000E+00  0.00000000000E+00  0.17514224729E+03  0.17514224729E+03  0.00000000000E+00 0.  1.
         21   -1    0    0  501  502  0.00000000000E+00 -0.00000000000E+00 -0.74296116595E+02  0.74296116595E+02  0.00000000000E+00 0. -1.
         23    2    1    2    0    0  0.17145866467E+02 -0.21255764946E+02  0.75470176061E+02  0.11411154717E+03  0.81116640970E+02 0.  0.
         23    2    1    2    0    0  0.15654436861E+01  0.37890950290E+02  0.41716242125E+02  0.10542953399E+03  0.89089657377E+02 0.  0.
        -11    1    4    4    0    0  0.30589002053E+02  0.27828828098E+02  0.57552811674E+02  0.70869294137E+02  0.00000000000E+00 0.  1.
         11    1    4    4    0    0 -0.29023558367E+02  0.10062122192E+02 -0.15836569549E+02  0.34560239848E+02  0.00000000000E+00 0. -1.
        -11    1    3    3    0    0  0.10138465300E+02 -0.52469872316E+02  0.43810066002E+02  0.69102806474E+02  0.00000000000E+00 0. -1.
         11    1    3    3    0    0  0.70074011677E+01  0.31214107370E+02  0.31660110059E+02  0.45008740695E+02  0.00000000000E+00 0.  1.
         -1    1    1    2    0  502 -0.18711310153E+02 -0.16635185344E+02 -0.16340287494E+02  0.29897282727E+02  0.00000000000E+00 0.  1.
<scales pt_clust_5="13000.00000" pt_clust_6="13000.00000" pt_clust_7="13000.00000" pt_clust_8="13000.00000" pt_clust_9="25.03682"></scales>
<clustering>
<clus scale="   25.037">  2  9  1 -1</clus>
<clus scale="   81.117">  7  8 -1 -1</clus>
<clus scale="   86.254">  1  7  2 -1</clus>
<clus scale="   89.090">  5  6 -1 -1</clus>
<clus scale="   25.037">  2  5  1 -1</clus>
</clustering>
</event>
<event>
 9    1  0.1321469E-005  0.4035568E+03  0.7546771E-02  0.1076889E+00
         21   -1    0    0  501  502  0.00000000000E+00  0.00000000000E+00  0.10019520272E+04  0.10019520272E+04  0.00000000000E+00 0. -1.
         -1   -1    0    0    0  501 -0.00000000000E+00 -0.00000000000E+00 -0.32760035716E+03  0.32760035716E+03  0.00000000000E+00 0.  1.
         23    2    1    2    0    0 -0.12153441091E+03  0.11843776567E+02 -0.11989105455E+03  0.19537814515E+03  0.94275482314E+02 0.  0.
         23    2    1    2    0    0  0.42932463945E+03  0.14681508901E+03  0.47296103467E+03  0.66180850729E+03  0.91782588853E+02 0.  0.
        -11    1    3    3    0    0 -0.88474130153E+02  0.51053075956E+02 -0.89179669791E+02  0.13559904784E+03  0.00000000000E+00 0.  1.
         11    1    3    3    0    0 -0.33060280757E+02 -0.39209299389E+02 -0.30711384755E+02  0.59779097316E+02  0.00000000000E+00 0. -1.
        -13    1    4    4    0    0  0.46879736850E+02  0.49106390765E+02  0.61138139474E+02  0.91362024055E+02  0.00000000000E+00 0.  1.
         13    1    4    4    0    0  0.38244490260E+03  0.97708698244E+02  0.41182289519E+03  0.57044648324E+03  0.00000000000E+00 0. -1.
         -1    1    1    2    0  502 -0.30779022854E+03 -0.15865886557E+03  0.32128168992E+03  0.47236573192E+03  0.00000000000E+00 0.  1.
<scales pt_clust_5="13000.00000" pt_clust_6="13000.00000" pt_clust_7="13000.00000" pt_clust_8="13000.00000" pt_clust_9="392.98103"></scales>
<clustering>
<clus scale="   91.783">  7  8 -1 -1</clus>
<clus scale="   94.275">  5  6 -1 -1</clus>
<clus scale="  154.268">  2  5  1 -1</clus>
<clus scale="  392.981">  1  9  2 -1</clus>
<clus scale="  392.981">  1  5  2 -1</clus>
</clustering>
</event>
<event>
 9    1  0.1321469E-005  0.9763940E+02  0.7546771E-02  0.1288401E+00
         21   -1    0    0  501  502  0.00000000000E+00  0.00000000000E+00  0.39750603369E+03  0.39750603369E+03  0.00000000000E+00 0.  1.
         -1   -1    0    0    0  501 -0.00000000000E+00 -0.00000000000E+00 -0.37832481631E+02  0.37832481631E+02  0.00000000000E+00 0.  1.
         23    2    1    2    0    0 -0.12044546675E+02 -0.18335013293E+01  0.86006385000E+02  0.13007928639E+03  0.96825046636E+02 0.  0.
         23    2    1    2    0    0 -0.74013737416E+00  0.22947746866E+02  0.13607938920E+03  0.16547490889E+03  0.91308260409E+02 0.  0.
        -13    1    4    4    0    0 -0.37432990447E+02  0.19650776839E+02  0.26566947612E+02  0.49931798582E+02  0.00000000000E+00 0.  1.
         13    1    4    4    0    0  0.36692853073E+02  0.32969700264E+01  0.10951244159E+03  0.11554311031E+03  0.00000000000E+00 0. -1.
        -13    1    3    3    0    0  0.37967550101E+02 -0.18165980459E+02  0.22891149671E+02  0.47911819418E+02  0.00000000000E+00 0. -1.
         13    1    3    3    0    0 -0.50012096776E+02  0.16332479130E+02  0.63115235329E+02  0.82167466975E+02  0.00000000000E+00 0.  1.
         -1    1    1    2    0  502  0.12784684050E+02 -0.21114245537E+02  0.13758777786E+03  0.13978432004E+03  0.00000000000E+00 0.  1.
<scales pt_clust_5="13000.00000" pt_clust_6="13000.00000" pt_clust_7="13000.00000" pt_clust_8="13000.00000" pt_clust_9="24.68318"></scales>
<clustering>
<clus scale="   24.683">  1  9  2 -1</clus>
<clus scale="   91.308">  5  6 -1 -1</clus>
<clus scale="   92.171">  1  5  2 -1</clus>
<clus scale="   96.825">  7  8 -1 -1</clus>
<clus scale="   24.683">  1  5  2 -1</clus>
</clustering>
</event>
<event>
 9    1  0.1321469E-005  0.9347820E+02  0.7546771E-02  0.1294724E+00
         -1   -1    0    0    0  501 -0.00000000000E+00  0.00000000000E+00  0.46180167228E+03  0.46180167228E+03  0.00000000000E+00 0.  1.
         21   -1    0    0  501  502  0.00000000000E+00 -0.00000000000E+00 -0.41703890566E+02  0.41703890566E+02  0.00000000000E+00 0.  1.
         23    2    1    2    0    0 -0.13596518616E+02  0.23618520854E-01  0.12659919206E+03  0.15706241703E+03  0.91958585985E+02 0.  0.
         23    2    1    2    0    0 -0.55293460461E+02  0.60553925668E+01  0.12786979823E+03  0.16695587568E+03  0.91812551294E+02 0.  0.
        -11    1    4    4    0    0 -0.50586249690E+02  0.43133732405E+02  0.60374522400E+02  0.89802953648E+02  0.00000000000E+00 0.  1.
         11    1    4    4    0    0 -0.47072107708E+01 -0.37078339838E+02  0.67495275827E+02  0.77152922027E+02  0.00000000000E+00 0. -1.
        -11    1    3    3    0    0  0.26853606454E+02 -0.76873085822E+01  0.10857777198E+03  0.11211308337E+03  0.00000000000E+00 0.  1.
         11    1    3    3    0    0 -0.40450125070E+02  0.77109271031E+01  0.18021420071E+02  0.44949333659E+02  0.00000000000E+00 0. -1.
         -1    1    1    2    0  502  0.68889979077E+02 -0.60790110877E+01  0.16562879143E+03  0.17948727014E+03  0.00000000000E+00 0.  1.
<scales pt_clust_5="13000.00000" pt_clust_6="13000.00000" pt_clust_7="13000.00000" pt_clust_8="13000.00000" pt_clust_9="69.15771"></scales>
<clustering>
<clus scale="   69.158">  2  9  1 -1</clus>
<clus scale="   91.813">  5  6 -1 -1</clus>
<clus scale="   91.959">  7  8 -1 -1</clus>
<clus scale="   93.335">  2  5  1 -1</clus>
<clus scale="   69.158">  2  5  1 -1</clus>
</clustering>
</event>
<event>
 9    1  0.1321469E-005  0.9600209E+02  0.7546771E-02  0.1290800E+00
         21   -1    0    0  501  502  0.00000000000E+00  0.00000000000E+00  0.11609819847E+03  0.11609819847E+03  0.00000000000E+00 0. -1.
         -1   -1    0    0    0  501 -0.00000000000E+00 -0.00000000000E+00 -0.12127765131E+03  0.12127765131E+03  0.00000000000E+00 0.  1.
         23    2    1    2    0    0 -0.27350885071E+02 -0.28154059500E+02 -0.47892685519E+02  0.11015076516E+03  0.91097528828E+02 0.  0.
         23    2    1    2    0    0  0.91027436235E+01  0.12350243542E+02  0.14551218287E+02  0.90132574330E+02  0.87617090483E+02 0.  0.
        -11    1    4    4    0    0 -0.34739152503E+02 -0.14326742354E+02  0.76814674459E+01  0.38354520010E+02  0.00000000000E+00 0. -1.
         11    1    4    4    0    0  0.43841896127E+02  0.26676985896E+02  0.68697508415E+01  0.51778054319E+02  0.00000000000E+00 0.  1.
        -13    1    3    3    0    0  0.52208614784E+01 -0.47635446723E+02  0.13982892805E+01  0.47941092937E+02  0.00000000000E+00 0. -1.
         13    1    3    3    0    0 -0.32571746550E+02  0.19481387223E+02 -0.49290974799E+02  0.62209672223E+02  0.00000000000E+00 0.  1.
         -1    1    1    2    0  502  0.18248141448E+02  0.15803815958E+02  0.28162014390E+02  0.37092510290E+02  0.00000000000E+00 0.  1.
<scales pt_clust_5="13000.00000" pt_clust_6="13000.00000" pt_clust_7="13000.00000" pt_clust_8="13000.00000" pt_clust_9="24.14032"></scales>
<clustering>
<clus scale="   24.140">  1  9  2 -1</clus>
<clus scale="   87.617">  5  6 -1 -1</clus>
<clus scale="   91.098">  7  8 -1 -1</clus>
<clus scale="   92.706">  1  5  2 -1</clus>
<clus scale="   24.140">  1  5  2 -1</clus>
</clustering>
</event>
<event>
 9    1  0.1321469E-005  0.1244969E+03  0.7546771E-02  0.1236426E+00
          1   -1    0    0  502    0 -0.00000000000E+00  0.00000000000E+00  0.26351270500E+03  0.26351270500E+03  0.00000000000E+00 0. -1.
         21   -1    0    0  501  502  0.00000000000E+00 -0.00000000000E+00 -0.21474867944E+03  0.21474867944E+03  0.00000000000E+00 0. -1.
         23    2    1    2    0    0 -0.61175695289E+02 -0.43307177783E+02  0.15608934715E+03  0.19536240467E+03  0.90468820723E+02 0.  0.
         23    2    1    2    0    0  0.74844767491E+02  0.83970805768E+02  0.21463466309E+02  0.14715316562E+03  0.92415032990E+02 0.  0.
        -13    1    4    4    0    0  0.91427949197E+02  0.66184185506E+02 -0.26589390737E+01  0.11290033774E+03  0.00000000000E+00 0.  1.
         13    1    4    4    0    0 -0.16583181706E+02  0.17786620262E+02  0.24122405383E+02  0.34252827873E+02  0.00000000000E+00 0. -1.
        -13    1    3    3    0    0 -0.66407769254E+02  0.53045802345E+01  0.72002106276E+02  0.98094004388E+02  0.00000000000E+00 0. -1.
         13    1    3    3    0    0  0.52320739647E+01 -0.48611758018E+02  0.84087240870E+02  0.97268400279E+02  0.00000000000E+00 0.  1.
          1    1    1    2  501    0 -0.13669072202E+02 -0.40663627985E+02 -0.12878878789E+03  0.13574581416E+03  0.00000000000E+00 0. -1.
<scales pt_clust_5="13000.00000" pt_clust_6="13000.00000" pt_clust_7="13000.00000" pt_clust_8="13000.00000" pt_clust_9="42.89958"></scales>
<clustering>
<clus scale="   42.900">  2  9  1 -1</clus>
<clus scale="   90.469">  7  8 -1 -1</clus>
<clus scale="   92.415">  5  6 -1 -1</clus>
<clus scale="  123.059">  1  7  2 -1</clus>
<clus scale="   42.900">  2  5  1 -1</clus>
</clustering>
</event>
<event>
 9    1  0.1321469E-005  0.1142339E+03  0.7546771E-02  0.1253061E+00
          2   -1    0    0  502    0 -0.00000000000E+00  0.00000000000E+00  0.19944724805E+03  0.19944724805E+03  0.00000000000E+00 0. -1.
         21   -1    0    0  501  502  0.00000000000E+00 -0.00000000000E+00 -0.98391935454E+02  0.98391935454E+02  0.00000000000E+00 0.  1.
         23    2    1    2    0    0  0.17005684330E+02 -0.49083873609E+02  0.48475399715E+02  0.11563716130E+03  0.91234142452E+02 0.  0.
         23    2    1    2    0    0 -0.47736023571E+02  0.76773745936E+02  0.57639365261E+02  0.14052851937E+03  0.90846201446E+02 0.  0.
        -13    1    4    4    0    0 -0.29793012178E+02  0.87512632940E+02  0.70250759872E+02  0.11610880139E+03  0.00000000000E+00 0.  1.
         13    1    4    4    0    0 -0.17943011393E+02 -0.10738887004E+02 -0.12611394611E+02  0.24419717975E+02  0.00000000000E+00 0. -1.
        -13    1    3    3    0    0 -0.20457720128E+02  0.10664233766E+02 -0.88959420634E+01  0.24726139607E+02  0.00000000000E+00 0.  1.
         13    1    3    3    0    0  0.37463404458E+02 -0.59748107375E+02  0.57371341778E+02  0.90911021697E+02  0.00000000000E+00 0. -1.
          2    1    1    2  501    0  0.30730339241E+02 -0.27689872327E+02 -0.50594523847E+01  0.41673502826E+02  0.00000000000E+00 0. -1.
<scales pt_clust_5="13000.00000" pt_clust_6="13000.00000" pt_clust_7="13000.00000" pt_clust_8="13000.00000" pt_clust_9="41.36524"></scales>
<clustering>
<clus scale="   41.365">  2  9  1 -1</clus>
<clus scale="   90.846">  5  6 -1 -1</clus>
<clus scale="   91.234">  7  8 -1 -1</clus>
<clus scale="  113.924">  2  5  1 -1</clus>
<clus scale="   41.365">  2  5  1 -1</clus>
</clustering>
</event>
<event>
 9    1  0.1321469E-005  0.1033585E+03  0.7546771E-02  0.1275015E+00
         21   -1    0    0  501  502  0.00000000000E+00  0.00000000000E+00  0.45446090737E+03  0.45446090737E+03  0.00000000000E+00 0. -1.
         -3   -1    0    0    0  501 -0.00000000000E+00 -0.00000000000E+00 -0.43723023215E+02  0.43723023215E+02  0.00000000000E+00 0.  1.
         23    2    1    2    0    0  0.45082068985E+02 -0.17626833360E+02  0.63986145027E+02  0.12455651879E+03  0.95273298562E+02 0.  0.
         23    2    1    2    0    0 -0.24975591779E+02  0.15936025017E+01  0.16837954513E+03  0.19341094610E+03  0.91813959171E+02 0.  0.
        -11    1    4    4    0    0 -0.70508300530E+01  0.35612999426E+02  0.22872283997E+02  0.42908522555E+02  0.00000000000E+00 0.  1.
         11    1    4    4    0    0 -0.17924761726E+02 -0.34019396924E+02  0.14550726113E+03  0.15050242355E+03  0.00000000000E+00 0. -1.
        -11    1    3    3    0    0 -0.27571267037E+02 -0.14258761683E+02  0.61756385997E+01  0.31648468570E+02  0.00000000000E+00 0. -1.
         11    1    3    3    0    0  0.72653336022E+02 -0.33680716777E+01  0.57810506428E+02  0.92908050218E+02  0.00000000000E+00 0.  1.
         -3    1    1    2    0  502 -0.20106477206E+02  0.16033230859E+02  0.17837219400E+03  0.18021646570E+03  0.00000000000E+00 0.  1.
<scales pt_clust_5="13000.00000" pt_clust_6="13000.00000" pt_clust_7="13000.00000" pt_clust_8="13000.00000" pt_clust_9="25.71643"></scales>
<clustering>
<clus scale="   25.716">  1  9  2 -1</clus>
<clus scale="   91.814">  5  6 -1 -1</clus>
<clus scale="   95.273">  7  8 -1 -1</clus>
<clus scale="  100.179">  1  5  2 -1</clus>
<clus scale="   25.716">  1  5  2 -1</clus>
</clustering>
</event>
<event>
 9    1  0.1321469E-005  0.1229772E+03  0.7546771E-02  0.1246223E+00
         21   -1    0    0  501  502  0.00000000000E+00  0.00000000000E+00  0.67069282943E+02  0.67069282943E+02  0.00000000000E+00 0. -1.
          4   -1    0    0  502    0 -0.00000000000E+00 -0.00000000000E+00 -0.36532359002E+03  0.36532359002E+03  0.00000000000E+00 0. -1.
         23    2    1    2    0    0 -0.19052484607E+02  0.35295125191E+02 -0.15622343434E+03  0.18458908689E+03  0.89769853128E+02 0.  0.
         23    2    1    2    0    0  0.71268964606E+02 -0.52627377343E+02 -0.12821347943E+03  0.19107735391E+03  0.11055746337E+03 0.  0.
        -13    1    4    4    0    0 -0.12894184483E+02 -0.54840011504E+02 -0.39705853999E+02  0.68921997193E+02  0.00000000000E+00 0. -1.
         13    1    4    4    0    0  0.84163149090E+02  0.22126341611E+01 -0.88507625433E+02  0.12215535672E+03  0.00000000000E+00 0.  1.
        -13    1    3    3    0    0 -0.49176641139E+02  0.42231661904E+02 -0.84593471204E+02  0.10657349892E+03  0.00000000000E+00 0.  1.
         13    1    3    3    0    0  0.30124156532E+02 -0.69365367127E+01 -0.71629963131E+02  0.78015587972E+02  0.00000000000E+00 0. -1.
          4    1    1    2  501    0 -0.52216480000E+02  0.17332252152E+02 -0.13817393307E+02  0.56726432164E+02  0.00000000000E+00 0. -1.
<scales pt_clust_5="13000.00000" pt_clust_6="13000.00000" pt_clust_7="13000.00000" pt_clust_8="13000.00000" pt_clust_9="55.01789"></scales>
<clustering>
<clus scale="   55.018">  1  9  2 -1</clus>
<clus scale="   89.770">  7  8 -1 -1</clus>
<clus scale="  104.686">  2  7  1 -1</clus>
<clus scale="  110.557">  5  6 -1 -1</clus>
<clus scale="   55.018">  1  5  2 -1</clus>
</clustering>
</event>
<event>
 9    1  0.1321469E-005  0.1427652E+03  0.7546771E-02  0.1209923E+00
         -3   -1    0    0    0  501 -0.00000000000E+00  0.00000000000E+00  0.51096277892E+03  0.51096277892E+03  0.00000000000E+00 0.  1.
         21   -1    0    0  501  502  0.00000000000E+00 -0.00000000000E+00 -0.65114017294E+02  0.65114017294E+02  0.00000000000E+00 0.  1.
         23    2    1    2    0    0 -0.10563514366E+03 -0.29538645956E+02  0.29356842673E+03  0.32637208569E+03  0.91131783522E+02 0.  0.
         23    2    1    2    0    0  0.90613538999E+02  0.65350280314E+02  0.15311766234E+03  0.21086114118E+03  0.92390095528E+02 0.  0.
        -11    1    4    4    0    0  0.77968644126E+02  0.88392129758E+02  0.11594105756E+03  0.16533180849E+03  0.00000000000E+00 0.  1.
         11    1    4    4    0    0  0.12644894873E+02 -0.23041849444E+02  0.37176604784E+02  0.45529332693E+02  0.00000000000E+00 0. -1.
        -13    1    3    3    0    0 -0.10938663793E+03  0.23156323127E+01  0.20861319157E+03  0.23556371200E+03  0.00000000000E+00 0.  1.
         13    1    3    3    0    0  0.37514942753E+01 -0.31854278268E+02  0.84955235152E+02  0.90808373695E+02  0.00000000000E+00 0. -1.
         -3    1    1    2    0  502  0.15021604659E+02 -0.35811634358E+02 -0.83732744393E+00  0.38843569341E+02  0.00000000000E+00 0.  1.
<scales pt_clust_5="13000.00000" pt_clust_6="13000.00000" pt_clust_7="13000.00000" pt_clust_8="13000.00000" pt_clust_9="38.83454"></scales>
<clustering>
<clus scale="   38.835">  2  9  1 -1</clus>
<clus scale="   91.132">  7  8 -1 -1</clus>
<clus scale="   92.390">  5  6 -1 -1</clus>
<clus scale="  141.954">  1  7  2 -1</clus>
<clus scale="   38.835">  2  5  1 -1</clus>
</clustering>
</event>
<event>
 9    1  0.1321469E-005  0.9204532E+02  0.7546771E-02  0.1299079E+00
         21   -1    0    0  501  502  0.00000000000E+00  0.00000000000E+00  0.20789613483E+03  0.20789613483E+03  0.00000000000E+00 0. -1.
          4   -1    0    0  502    0 -0.00000000000E+00 -0.00000000000E+00 -0.62337993974E+02  0.62337993974E+02  0.00000000000E+00 0. -1.
         23    2    1    2    0    0  0.17159601764E+02  0.30690511053E+01  0.20270605676E+02  0.93206418633E+02  0.89289797920E+02 0.  0.
         23    2    1    2    0    0  0.32837383202E+01 -0.17337144545E+02  0.69711426333E+02  0.11611619633E+03  0.91169778818E+02 0.  0.
        -11    1    3    3    0    0  0.74675484309E+01  0.41299229827E+02  0.31182453477E+02  0.52285141950E+02  0.00000000000E+00 0. -1.
         11    1    3    3    0    0  0.96920533334E+01 -0.38230178722E+02 -0.10911847801E+02  0.40921276683E+02  0.00000000000E+00 0.  1.
        -11    1    4    4    0    0  0.26140051147E+02 -0.30199115415E+02 -0.17649502167E+01  0.39980043710E+02  0.00000000000E+00 0. -1.
         11    1    4    4    0    0 -0.22856312827E+02  0.12861970870E+02  0.71476376550E+02  0.76136152617E+02  0.00000000000E+00 0.  1.
          4    1    1    2  501    0 -0.20443340085E+02  0.14268093440E+02  0.55576108846E+02  0.60911513843E+02  0.00000000000E+00 0. -1.
<scales pt_clust_5="13000.00000" pt_clust_6="13000.00000" pt_clust_7="13000.00000" pt_clust_8="13000.00000" pt_clust_9="24.93008"></scales>
<clustering>
<clus scale="   24.930">  1  9  2 -1</clus>
<clus scale="   89.290">  5  6 -1 -1</clus>
<clus scale="   90.184">  2  5  1 -1</clus>
<clus scale="   91.170">  7  8 -1 -1</clus>
<clus scale="   24.930">  1  5  2 -1</clus>
</clustering>
</event>
<event>
 9    1  0.1321469E-005  0.1974646E+03  0.7546771E-02  0.1152199E+00
         21   -1    0    0  501  502  0.00000000000E+00  0.00000000000E+00  0.11089315401E+03  0.11089315401E+03  0.00000000000E+00 0. -1.
          2   -1    0    0  502    0 -0.00000000000E+00 -0.00000000000E+00 -0.64269921335E+03  0.64269921335E+03  0.00000000000E+00 0. -1.
         23    2    1    2    0    0  0.14623569767E+03 -0.42060949335E+02 -0.22738172846E+03  0.28762941035E+03  0.88736827348E+02 0.  0.
         23    2    1    2    0    0 -0.19618336512E+03  0.36891260427E+02 -0.33972182749E+03  0.40458373875E+03  0.91805249010E+02 0.  0.
        -11    1    4    4    0    0 -0.23588612862E+02  0.40462834549E+02 -0.64778817500E+02  0.79937218073E+02  0.00000000000E+00 0.  1.
         11    1    4    4    0    0 -0.17259475226E+03 -0.35715741220E+01 -0.27494300999E+03  0.32464652068E+03  0.00000000000E+00 0. -1.
        -13    1    3    3    0    0  0.10733832382E+03 -0.55840203139E+02 -0.21100242956E+03  0.24323171941E+03  0.00000000000E+00 0. -1.
         13    1    3    3    0    0  0.38897373850E+02  0.13779253804E+02 -0.16379298892E+02  0.44397690931E+02  0.00000000000E+00 0.  1.
          2    1    1    2  501    0  0.49947667451E+02  0.51696889078E+01  0.35297496603E+02  0.61379218255E+02  0.00000000000E+00 0. -1.
<scales pt_clust_5="13000.00000" pt_clust_6="13000.00000" pt_clust_7="13000.00000" pt_clust_8="13000.00000" pt_clust_9="50.21449"></scales>
<clustering>
<clus scale="   50.214">  1  9  2 -1</clus>
<clus scale="   88.737">  7  8 -1 -1</clus>
<clus scale="   91.805">  5  6 -1 -1</clus>
<clus scale="  196.057">  2  7  1 -1</clus>
<clus scale="   50.214">  1  5  2 -1</clus>
</clustering>
</event>
<event>
 9    1  0.1321469E-005  0.1689000E+03  0.7546771E-02  0.1179561E+00
          1   -1    0    0  502    0 -0.00000000000E+00  0.00000000000E+00  0.43773892932E+03  0.43773892932E+03  0.00000000000E+00 0. -1.
         21   -1    0    0  501  502  0.00000000000E+00 -0.00000000000E+00 -0.89829048486E+02  0.89829048486E+02  0.00000000000E+00 0. -1.
         23    2    1    2    0    0 -0.15352464275E+03  0.10625853285E+02  0.26312909383E+03  0.31731391869E+03  0.88138971428E+02 0.  0.
         23    2    1    2    0    0  0.12355080972E+03 -0.34920904297E+02  0.73011909737E+02  0.16991565753E+03  0.84001902183E+02 0.  0.
        -11    1    4    4    0    0  0.71185468965E+02 -0.42618256446E+02  0.41613918398E+01  0.83072281516E+02  0.00000000000E+00 0.  1.
         11    1    4    4    0    0  0.52365340759E+02  0.76973521497E+01  0.68850517897E+02  0.86843376014E+02  0.00000000000E+00 0. -1.
        -13    1    3    3    0    0 -0.85871888824E+02 -0.58676196438E+01  0.21789105779E+03  0.23427531521E+03  0.00000000000E+00 0. -1.
         13    1    3    3    0    0 -0.67652753929E+02  0.16493472929E+02  0.45238036036E+02  0.83038603479E+02  0.00000000000E+00 0.  1.
          1    1    1    2  501    0  0.29973833029E+02  0.24295051011E+02  0.11768877264E+02  0.40338401581E+02  0.00000000000E+00 0. -1.
<scales pt_clust_5="13000.00000" pt_clust_6="13000.00000" pt_clust_7="13000.00000" pt_clust_8="13000.00000" pt_clust_9="38.58342"></scales>
<clustering>
<clus scale="   38.583">  2  9  1 -1</clus>
<clus scale="   84.002">  5  6 -1 -1</clus>
<clus scale="   88.139">  7  8 -1 -1</clus>
<clus scale="  166.778">  2  5  1 -1</clus>
<clus scale="   38.583">  2  5  1 -1</clus>
</clustering>
</event>
<event>
 9    1  0.1321469E-005  0.1051945E+03  0.7546771E-02  0.1270253E+00
         -1   -1    0    0    0  501 -0.00000000000E+00  0.00000000000E+00  0.92693201445E+02  0.92693201445E+02  0.00000000000E+00 0.  1.
         21   -1    0    0  501  502  0.00000000000E+00 -0.00000000000E+00 -0.30599330303E+03  0.30599330303E+03  0.00000000000E+00 0.  1.
         23    2    1    2    0    0 -0.41277469517E+02  0.62655563569E+02  0.12551861195E+02  0.11861749299E+03  0.91011050362E+02 0.  0.
         23    2    1    2    0    0  0.10882751701E+02  0.23135887268E+01 -0.97390244276E+02  0.13293899163E+03  0.89800494644E+02 0.  0.
        -11    1    3    3    0    0  0.36065016551E+01  0.42640166311E+02  0.43113609144E+02  0.60745155615E+02  0.00000000000E+00 0.  1.
         11    1    3    3    0    0 -0.44883971172E+02  0.20015397258E+02 -0.30561747950E+02  0.57872337375E+02  0.00000000000E+00 0. -1.
        -11    1    4    4    0    0 -0.34154338864E+02  0.11801381664E+02 -0.71546008955E+02  0.80153745201E+02  0.00000000000E+00 0.  1.
         11    1    4    4    0    0  0.45037090565E+02 -0.94877929374E+01 -0.25844235321E+02  0.52785246430E+02  0.00000000000E+00 0. -1.
         -1    1    1    2    0  502  0.30394717816E+02 -0.64969152296E+02 -0.12846171850E+03  0.14713001985E+03  0.00000000000E+00 0.  1.
<scales pt_clust_5="13000.00000" pt_clust_6="13000.00000" pt_clust_7="13000.00000" pt_clust_8="13000.00000" pt_clust_9="71.72747"></scales>
<clustering>
<clus scale="   71.727">  2  9  1 -1</clus>
<clus scale="   89.800">  7  8 -1 -1</clus>
<clus scale="   91.011">  5  6 -1 -1</clus>
<clus scale="  104.149">  2  7  1 -1</clus>
<clus scale="   71.727">  2  5  1 -1</clus>
</clustering>
</event>
<event>
 9    1  0.1321469E-005  0.1522445E+03  0.7546771E-02  0.1197933E+00
         21   -1    0    0  501  502  0.00000000000E+00  0.00000000000E+00  0.30036538850E+03  0.30036538850E+03  0.00000000000E+00 0.  1.
         -1   -1    0    0    0  501 -0.00000000000E+00 -0.00000000000E+00 -0.25557122975E+03  0.25557122975E+03  0.00000000000E+00 0.  1.
         23    2    1    2    0    0  0.95321685757E+02 -0.68338513430E+02 -0.18133708293E+03  0.23474379022E+03  0.92006158552E+02 0.  0.
         23    2    1    2    0    0 -0.12633882385E+03  0.74107012442E+02  0.11894652509E+03  0.20946144521E+03  0.90953139012E+02 0.  0.
        -13    1    4    4    0    0 -0.44669725461E+01  0.30618108571E+02 -0.37147633178E+01  0.31164432975E+02  0.00000000000E+00 0.  1.
         13    1    4    4    0    0 -0.12187185130E+03  0.43488903871E+02  0.12266128841E+03  0.17829701224E+03  0.00000000000E+00 0. -1.
        -13    1    3    3    0    0  0.22420874259E+02 -0.43991952751E+02 -0.15155959850E+02  0.51649691464E+02  0.00000000000E+00 0. -1.
         13    1    3    3    0    0  0.72900811499E+02 -0.24346560679E+02 -0.16618112308E+03  0.18309409876E+03  0.00000000000E+00 0.  1.
         -1    1    1    2    0  502  0.31017138089E+02 -0.57684990119E+01  0.10718471658E+03  0.11173138281E+03  0.00000000000E+00 0.  1.
<scales pt_clust_5="13000.00000" pt_clust_6="13000.00000" pt_clust_7="13000.00000" pt_clust_8="13000.00000" pt_clust_9="31.54898"></scales>
<clustering>
<clus scale="   31.549">  1  9  2 -1</clus>
<clus scale="   90.953">  5  6 -1 -1</clus>
<clus scale="   92.006">  7  8 -1 -1</clus>
<clus scale="  151.610">  1  5  2 -1</clus>
<clus scale="   31.549">  1  5  2 -1</clus>
</clustering>
</event>
<event>
 9    1  0.1321469E-005  0.1000358E+03  0.7546771E-02  0.1281064E+00
         21   -1    0    0  501  502  0.00000000000E+00  0.00000000000E+00  0.77980660912E+02  0.77980660912E+02  0.00000000000E+00 0.  1.
          3   -1    0    0  502    0 -0.00000000000E+00 -0.00000000000E+00 -0.31393237236E+03  0.31393237236E+03  0.00000000000E+00 0. -1.
         23    2    1    2    0    0 -0.23416602713E+02 -0.28608812283E+02 -0.23481050510E+03  0.25469220845E+03  0.91462267177E+02 0.  0.
         23    2    1    2    0    0  0.41913027557E+02  0.70071933158E+01 -0.18268213045E+02  0.10402320394E+03  0.93173476446E+02 0.  0.
        -11    1    4    4    0    0  0.67269765946E+02  0.89172680159E+00  0.70854701147E+01  0.67647767693E+02  0.00000000000E+00 0.  1.
         11    1    4    4    0    0 -0.25356738389E+02  0.61154665142E+01 -0.25353683160E+02  0.36375436248E+02  0.00000000000E+00 0. -1.
        -13    1    3    3    0    0 -0.52047686532E+02  0.36044196040E+01 -0.16074974689E+03  0.16900424444E+03  0.00000000000E+00 0. -1.
         13    1    3    3    0    0  0.28631083820E+02 -0.32213231887E+02 -0.74060758209E+02  0.85687964008E+02  0.00000000000E+00 0.  1.
          3    1    1    2  501    0 -0.18496424844E+02  0.21601618967E+02  0.17127006694E+02  0.33197620884E+02  0.00000000000E+00 0. -1.
<scales pt_clust_5="13000.00000" pt_clust_6="13000.00000" pt_clust_7="13000.00000" pt_clust_8="13000.00000" pt_clust_9="28.43849"></scales>
<clustering>
<clus scale="   28.438">  1  9  2 -1</clus>
<clus scale="   91.462">  7  8 -1 -1</clus>
<clus scale="   93.173">  5  6 -1 -1</clus>
<clus scale="   98.444">  2  7  1 -1</clus>
<clus scale="   28.438">  1  5  2 -1</clus>
</clustering>
</event>
<event>
 9    1  0.1321469E-005  0.1172685E+03  0.7546771E-02  0.1248891E+00
         21   -1    0    0  501  502  0.00000000000E+00  0.00000000000E+00  0.12116090040E+03  0.12116090040E+03  0.00000000000E+00 0.  1.
          2   -1    0    0  502    0 -0.00000000000E+00 -0.00000000000E+00 -0.65856020125E+03  0.65856020125E+03  0.00000000000E+00 0. -1.
         23    2    1    2    0    0 -0.72459862031E+02  0.34188024226E+02 -0.39710162842E+03  0.41681756639E+03  0.98122004432E+02 0.  0.
         23    2    1    2    0    0  0.33581303864E+02 -0.34067237640E+02 -0.23645975071E+03  0.25917937139E+03  0.94723028873E+02 0.  0.
        -11    1    4    4    0    0 -0.10446318859E+02 -0.55969542524E+02 -0.12824251880E+03  0.14031343092E+03  0.00000000000E+00 0. -1.
         11    1    4    4    0    0  0.44027622723E+02  0.21902304884E+02 -0.10821723190E+03  0.11886594047E+03  0.00000000000E+00 0.  1.
        -13    1    3    3    0    0 -0.77108100974E+02 -0.39894197851E+00 -0.34883891309E+03  0.35725957744E+03  0.00000000000E+00 0. -1.
         13    1    3    3    0    0  0.46482389435E+01  0.34586966204E+02 -0.48262715332E+02  0.59557988950E+02  0.00000000000E+00 0.  1.
          2    1    1    2  501    0  0.38878558166E+02 -0.12078658517E+00  0.96162078266E+02  0.10372416387E+03  0.00000000000E+00 0. -1.
<scales pt_clust_5="13000.00000" pt_clust_6="13000.00000" pt_clust_7="13000.00000" pt_clust_8="13000.00000" pt_clust_9="38.87875"></scales>
<clustering>
<clus scale="   38.879">  1  9  2 -1</clus>
<clus scale="   94.723">  5  6 -1 -1</clus>
<clus scale="   98.122">  7  8 -1 -1</clus>
<clus scale="  114.440">  1  5  2 -1</clus>
<clus scale="   38.879">  1  5  2 -1</clus>
</clustering>
</event>
<event>
 9    1  0.1321469E-005  0.1002849E+03  0.7546771E-02  0.1279817E+00
         21   -1    0    0  501  502  0.00000000000E+00  0.00000000000E+00  0.45602248142E+02  0.45602248142E+02  0.00000000000E+00 0.  1.
         -1   -1    0    0    0  501 -0.00000000000E+00 -0.00000000000E+00 -0.42147563452E+03  0.42147563452E+03  0.00000000000E+00 0.  1.
         23    2    1    2    0    0 -0.20362338324E+02  0.45284284901E+02 -0.18027759917E+03  0.20767994346E+03  0.90364013148E+02 0.  0.
         23    2    1    2    0    0  0.33512908476E+02 -0.13499856927E+02 -0.49664495349E+02  0.10946752434E+03  0.90615758096E+02 0.  0.
        -11    1    4    4    0    0  0.40299107776E+02  0.24760866336E+02 -0.11532253580E+01  0.47312244905E+02  0.00000000000E+00 0.  1.
         11    1    4    4    0    0 -0.67861993000E+01 -0.38260723262E+02 -0.48511269991E+02  0.62155279435E+02  0.00000000000E+00 0. -1.
        -13    1    3    3    0    0 -0.45702280497E+02  0.33505996170E+02 -0.53755944970E+02  0.78109230195E+02  0.00000000000E+00 0.  1.
         13    1    3    3    0    0  0.25339942173E+02  0.11778288731E+02 -0.12652165420E+03  0.12957071327E+03  0.00000000000E+00 0. -1.
         -1    1    1    2    0  502 -0.13150570152E+02 -0.31784427974E+02 -0.14593129186E+03  0.14993041487E+03  0.00000000000E+00 0.  1.
<scales pt_clust_5="13000.00000" pt_clust_6="13000.00000" pt_clust_7="13000.00000" pt_clust_8="13000.00000" pt_clust_9="34.39751"></scales>
<clustering>
<clus scale="   34.398">  1  9  2 -1</clus>
<clus scale="   90.364">  7  8 -1 -1</clus>
<clus scale="   90.616">  5  6 -1 -1</clus>
<clus scale="  100.057">  2  7  1 -1</clus>
<clus scale="   34.398">  1  5  2 -1</clus>
</clustering>
</event>
<event>
 9    1  0.1321469E-005  0.1444617E+03  0.7546771E-02  0.1209006E+00
         -1   -1    0    0    0  501 -0.00000000000E+00  0.00000000000E+00  0.45333301601E+03  0.45333301601E+03  0.00000000000E+00 0.  1.
         21   -1    0    0  501  502  0.00000000000E+00 -0.00000000000E+00 -0.37441542316E+03  0.37441542316E+03  0.00000000000E+00 0.  1.
         23    2    1    2    0    0  0.50205612565E+02  0.98370970239E+02  0.41947343442E+03  0.44476806155E+03  0.98301653483E+02 0.  0.
         23    2    1    2    0    0 -0.25576667653E+02 -0.25306658810E+02 -0.18554854725E+03  0.20985545214E+03  0.91194596858E+02 0.  0.
        -11    1    4    4    0    0 -0.27632973974E+02  0.30921703390E+02 -0.86927984495E+02  0.96313070139E+02  0.00000000000E+00 0.  1.
         11    1    4    4    0    0  0.20563063215E+01 -0.56228362200E+02 -0.98620562756E+02  0.11354238200E+03  0.00000000000E+00 0. -1.
        -11    1    3    3    0    0  0.79027670688E+02  0.63118817949E+02  0.26202344106E+03  0.28086587827E+03  0.00000000000E+00 0.  1.
         11    1    3    3    0    0 -0.28822058124E+02  0.35252152291E+02  0.15744999336E+03  0.16390218328E+03  0.00000000000E+00 0. -1.
         -1    1    1    2    0  502 -0.24628944912E+02 -0.73064311430E+02 -0.15500729431E+03  0.17312492548E+03  0.00000000000E+00 0.  1.
<scales pt_clust_5="13000.00000" pt_clust_6="13000.00000" pt_clust_7="13000.00000" pt_clust_8="13000.00000" pt_clust_9="77.10369"></scales>
<clustering>
<clus scale="   77.104">  2  9  1 -1</clus>
<clus scale="   91.195">  5  6 -1 -1</clus>
<clus scale="   98.302">  7  8 -1 -1</clus>
<clus scale="  139.723">  2  5  1 -1</clus>
<clus scale="   77.104">  2  5  1 -1</clus>
</clustering>
</event>
<event>
 9    1  0.1321469E-005  0.1404934E+03  0.7546771E-02  0.1213556E+00
          3   -1    0    0  502    0 -0.00000000000E+00  0.00000000000E+00  0.66832424821E+02  0.66832424821E+02  0.00000000000E+00 0. -1.
         21   -1    0    0  501  502  0.00000000000E+00 -0.00000000000E+00 -0.71772445684E+03  0.71772445684E+03  0.00000000000E+00 0. -1.
         23    2    1    2    0    0 -0.18237526000E+02 -0.89163619019E+02 -0.15090448991E+03  0.20007788462E+03  0.94743002526E+02 0.  0.
         23    2    1    2    0    0 -0.98681001235E+02  0.11813311339E+03 -0.25383345115E+03  0.31043336195E+03  0.90796909682E+02 0.  0.
        -11    1    4    4    0    0 -0.83258280049E+02  0.87066162387E+02 -0.11223420494E+03  0.16464803245E+03  0.00000000000E+00 0. -1.
         11    1    4    4    0    0 -0.15422721186E+02  0.31066951002E+02 -0.14159924620E+03  0.14578532951E+03  0.00000000000E+00 0.  1.
        -13    1    3    3    0    0 -0.41617678788E+02 -0.39600300106E+02 -0.12871840941E+03  0.14095617715E+03  0.00000000000E+00 0.  1.
         13    1    3    3    0    0  0.23380152788E+02 -0.49563318912E+02 -0.22186080502E+02  0.59121707469E+02  0.00000000000E+00 0. -1.
          3    1    1    2  501    0  0.11691852723E+03 -0.28969494370E+02 -0.24615409096E+03  0.27404563508E+03  0.00000000000E+00 0. -1.
<scales pt_clust_5="13000.00000" pt_clust_6="13000.00000" pt_clust_7="13000.00000" pt_clust_8="13000.00000" pt_clust_9="120.45403"></scales>
<clustering>
<clus scale="   90.797">  5  6 -1 -1</clus>
<clus scale="   94.743">  7  8 -1 -1</clus>
<clus scale="  120.454">  2  9  1 -1</clus>
<clus scale="  137.863">  2  5  1 -1</clus>
<clus scale="  120.454">  2  5  1 -1</clus>
</clustering>
</event>
<event>
 9    1  0.1321469E-005  0.2070620E+03  0.7546771E-02  0.1144042E+00
          1   -1    0    0  502    0 -0.00000000000E+00  0.00000000000E+00  0.43549842627E+03  0.43549842627E+03  0.00000000000E+00 0. -1.
         21   -1    0    0  501  502  0.00000000000E+00 -0.00000000000E+00 -0.32961363036E+03  0.32961363036E+03  0.00000000000E+00 0.  1.
         23    2    1    2    0    0 -0.14125366086E+03 -0.11890730288E+03  0.35862755119E+03  0.41408914233E+03  0.93619196424E+02 0.  0.
         23    2    1    2    0    0  0.15503244267E+03  0.10305202845E+03 -0.17859649124E+03  0.27395857089E+03  0.92205276591E+02 0.  0.
        -11    1    4    4    0    0  0.10637676458E+03  0.56782047395E+02 -0.53366959350E+02  0.13186451114E+03  0.00000000000E+00 0. -1.
         11    1    4    4    0    0  0.48655678093E+02  0.46269981054E+02 -0.12522953189E+03  0.14209405974E+03  0.00000000000E+00 0.  1.
        -13    1    3    3    0    0 -0.44722897711E+01 -0.36174234136E+02  0.25172525815E+02  0.44297095243E+02  0.00000000000E+00 0.  1.
         13    1    3    3    0    0 -0.13678137109E+03 -0.82733068742E+02  0.33345502538E+03  0.36979204709E+03  0.00000000000E+00 0. -1.
          1    1    1    2  501    0 -0.13778781808E+02  0.15855274428E+02 -0.74146264042E+02  0.77064343420E+02  0.00000000000E+00 0. -1.
<scales pt_clust_5="13000.00000" pt_clust_6="13000.00000" pt_clust_7="13000.00000" pt_clust_8="13000.00000" pt_clust_9="21.00582"></scales>
<clustering>
<clus scale="   21.006">  2  9  1 -1</clus>
<clus scale="   92.205">  5  6 -1 -1</clus>
<clus scale="   93.619">  7  8 -1 -1</clus>
<clus scale="  206.427">  2  5  1 -1</clus>
<clus scale="   21.006">  2  5  1 -1</clus>
</clustering>
</event>
<event>
 9    1  0.1321469E-005  0.9205968E+02  0.7546771E-02  0.1298370E+00
         21   -1    0    0  501  502  0.00000000000E+00  0.00000000000E+00  0.59630443490E+03  0.59630443490E+03  0.00000000000E+00 0. -1.
          3   -1    0    0  502    0 -0.00000000000E+00 -0.00000000000E+00 -0.15815648902E+03  0.15815648902E+03  0.00000000000E+00 0. -1.
         23    2    1    2    0    0  0.34608057377E+02 -0.67331940950E+01 -0.58534441429E+02  0.11391414218E+03  0.91143279601E+02 0.  0.
         23    2    1    2    0    0  0.29972332126E+02 -0.29278571997E+01 -0.36526982300E+02  0.10335389789E+03  0.91874342080E+02 0.  0.
        -11    1    3    3    0    0  0.58690666371E+02 -0.23156839909E+02 -0.56499030179E+02  0.84693411579E+02  0.00000000000E+00 0. -1.
         11    1    3    3    0    0 -0.24082608994E+02  0.16423645814E+02 -0.20354112505E+01  0.29220730599E+02  0.00000000000E+00 0.  1.
        -13    1    4    4    0    0 -0.13696689331E+02 -0.14953697150E+02  0.21623558301E+02  0.29644403024E+02  0.00000000000E+00 0.  1.
         13    1    4    4    0    0  0.43669021456E+02  0.12025839950E+02 -0.58150540600E+02  0.73709494867E+02  0.00000000000E+00 0. -1.
          3    1    1    2  501    0 -0.64580389503E+02  0.96610512948E+01  0.53320936961E+03  0.53719288385E+03  0.00000000000E+00 0. -1.
<scales pt_clust_5="13000.00000" pt_clust_6="13000.00000" pt_clust_7="13000.00000" pt_clust_8="13000.00000" pt_clust_9="65.29902"></scales>
<clustering>
<clus scale="   65.299">  1  9  2 -1</clus>
<clus scale="   91.143">  5  6 -1 -1</clus>
<clus scale="   91.330">  2  5  1 -1</clus>
<clus scale="   91.874">  7  8 -1 -1</clus>
<clus scale="   65.299">  1  5  2 -1</clus>
</clustering>
</event>
<event>
 9    1  0.1321469E-005  0.9497419E+02  0.7546771E-02  0.1294462E+00
          2   -1    0    0  502    0 -0.00000000000E+00  0.00000000000E+00  0.32829122496E+03  0.32829122496E+03  0.00000000000E+00 0. -1.
         21   -1    0    0  501  502  0.00000000000E+00 -0.00000000000E+00 -0.44396477316E+03  0.44396477316E+03  0.00000000000E+00 0. -1.
         23    2    1    2    0    0 -0.16102952490E+02 -0.11727518254E+02  0.29280976538E+03  0.30764277148E+03  0.92247907177E+02 0.  0.
         23    2    1    2    0    0  0.42576487440E+02  0.43733894513E+02 -0.77961165436E+02  0.13149140719E+03  0.86525349097E+02 0.  0.
        -11    1    3    3    0    0  0.19345547246E+02 -0.40788790076E+02  0.10449806951E+03  0.11383243003E+03  0.00000000000E+00 0.  1.
         11    1    3    3    0    0 -0.35448499735E+02  0.29061271822E+02  0.18831169587E+03  0.19381034146E+03  0.00000000000E+00 0. -1.
        -13    1    4    4    0    0  0.68093516991E+02  0.20158495111E+02 -0.49240383403E+02  0.86415897490E+02  0.00000000000E+00 0.  1.
         13    1    4    4    0    0 -0.25517029551E+02  0.23575399403E+02 -0.28720782032E+02  0.45075509699E+02  0.00000000000E+00 0. -1.
          2    1    1    2  501    0 -0.26473534951E+02 -0.32006376259E+02 -0.33052214815E+03  0.33312181945E+03  0.00000000000E+00 0. -1.
<scales pt_clust_5="13000.00000" pt_clust_6="13000.00000" pt_clust_7="13000.00000" pt_clust_8="13000.00000" pt_clust_9="41.53620"></scales>
<clustering>
<clus scale="   41.536">  2  9  1 -1</clus>
<clus scale="   86.525">  7  8 -1 -1</clus>
<clus scale="   89.426">  2  7  1 -1</clus>
<clus scale="   92.248">  5  6 -1 -1</clus>
<clus scale="   41.536">  2  5  1 -1</clus>
</clustering>
</event>
<event>
 9    1  0.1321469E-005  0.2192996E+03  0.7546771E-02  0.1137321E+00
         21   -1    0    0  501  502  0.00000000000E+00  0.00000000000E+00  0.61431215438E+03  0.61431215438E+03  0.00000000000E+00 0. -1.
          2   -1    0    0  502    0 -0.00000000000E+00 -0.00000000000E+00 -0.97132891838E+02  0.97132891838E+02  0.00000000000E+00 0. -1.
         23    2    1    2    0    0  0.18338095948E+03 -0.10540567573E+02  0.13405213385E+03  0.25772410982E+03  0.12129329054E+03 0.  0.
         23    2    1    2    0    0 -0.18138586677E+03 -0.26280213881E+02  0.34050780058E+03  0.39736352809E+03  0.91437021484E+02 0.  0.
        -11    1    4    4    0    0 -0.95182420127E+02 -0.19666504111E+01  0.26018601388E+03  0.27705653328E+03  0.00000000000E+00 0.  1.
         11    1    4    4    0    0 -0.86203446645E+02 -0.24313563470E+02  0.80321786694E+02  0.12030699481E+03  0.00000000000E+00 0. -1.
        -13    1    3    3    0    0  0.82879095621E+02 -0.39477993175E+02  0.54487391709E+01  0.91962738077E+02  0.00000000000E+00 0. -1.
         13    1    3    3    0    0  0.10050186386E+03  0.28937425602E+02  0.12860339468E+03  0.16576137175E+03  0.00000000000E+00 0.  1.
          2    1    1    2  501    0 -0.19950927064E+01  0.36820781454E+02  0.42619328109E+02  0.56357408299E+02  0.00000000000E+00 0. -1.
<scales pt_clust_5="13000.00000" pt_clust_6="13000.00000" pt_clust_7="13000.00000" pt_clust_8="13000.00000" pt_clust_9="36.87479"></scales>
<clustering>
<clus scale="   36.875">  1  9  2 -1</clus>
<clus scale="   91.437">  5  6 -1 -1</clus>
<clus scale="  121.293">  7  8 -1 -1</clus>
<clus scale="  204.306">  1  5  2 -1</clus>
<clus scale="   36.875">  1  5  2 -1</clus>
</clustering>
</event>
<event>
 9    1  0.1321469E-005  0.1430345E+03  0.7546771E-02  0.1209740E+00
         21   -1    0    0  501  502  0.00000000000E+00  0.00000000000E+00  0.64526794820E+03  0.64526794820E+03  0.00000000000E+00 0. -1.
          1   -1    0    0  502    0 -0.00000000000E+00 -0.00000000000E+00 -0.76501579111E+02  0.76501579111E+02  0.00000000000E+00 0. -1.
         23    2    1    2    0    0  0.93479710819E+02  0.56232018030E+02  0.52404234144E+02  0.15233769523E+03  0.92520664972E+02 0.  0.
         23    2    1    2    0    0 -0.11151042178E+03 -0.81906521478E+01  0.19423667937E+03  0.24324494009E+03  0.94543917411E+02 0.  0.
        -11    1    3    3    0    0  0.88833577573E+02  0.85887158653E+01  0.54232656336E+02  0.10443347910E+03  0.00000000000E+00 0. -1.
         11    1    3    3    0    0  0.46461332456E+01  0.47643302165E+02 -0.18284221926E+01  0.47904216130E+02  0.00000000000E+00 0.  1.
        -13    1    4    4    0    0  0.75149877376E+01  0.21296690155E+02  0.42745685597E+02  0.48344779340E+02  0.00000000000E+00 0.  1.
         13    1    4    4    0    0 -0.11902540952E+03 -0.29487342303E+02  0.15149099377E+03  0.19490016075E+03  0.00000000000E+00 0. -1.
          1    1    1    2  501    0  0.18030710959E+02 -0.48041365883E+02  0.32212545557E+03  0.32618689198E+03  0.00000000000E+00 0. -1.
<scales pt_clust_5="13000.00000" pt_clust_6="13000.00000" pt_clust_7="13000.00000" pt_clust_8="13000.00000" pt_clust_9="51.31354"></scales>
<clustering>
<clus scale="   51.314">  1  9  2 -1</clus>
<clus scale="   92.521">  5  6 -1 -1</clus>
<clus scale="   94.544">  7  8 -1 -1</clus>
<clus scale="  141.705">  2  5  1 -1</clus>
<clus scale="   51.314">  1  5  2 -1</clus>
</clustering>
</event>
<event>
 9    1  0.1321469E-005  0.2798988E+03  0.7546771E-02  0.1121065E+00
         21   -1    0    0  501  502  0.00000000000E+00  0.00000000000E+00  0.81387134781E+03  0.81387134781E+03  0.00000000000E+00 0. -1.
          1   -1    0    0  502    0 -0.00000000000E+00 -0.00000000000E+00 -0.17199274208E+03  0.17199274208E+03  0.00000000000E+00 0. -1.
         23    2    1    2    0    0 -0.10530946574E+03  0.48851577029E+02  0.47800859399E+02  0.15416572052E+03  0.89473946323E+02 0.  0.
         23    2    1    2    0    0  0.19904324043E+03  0.19934893217E+03  0.20049092802E+03  0.35704049591E+03  0.89011769899E+02 0.  0.
        -13    1    3    3    0    0 -0.59743573671E+02 -0.58984966628E+01 -0.11927126044E+02  0.61207378587E+02  0.00000000000E+00 0.  1.
         13    1    3    3    0    0 -0.45565892071E+02  0.54750073692E+02  0.59727985443E+02  0.92958341931E+02  0.00000000000E+00 0. -1.
        -13    1    4    4    0    0  0.54672896610E+02  0.11670517398E+03  0.80928230260E+02  0.15217950489E+03  0.00000000000E+00 0.  1.
         13    1    4    4    0    0  0.14437034382E+03  0.82643758194E+02  0.11956269776E+03  0.20486099101E+03  0.00000000000E+00 0. -1.
          1    1    1    2  501    0 -0.93733774690E+02 -0.24820050920E+03  0.39358681832E+03  0.47465787347E+03  0.00000000000E+00 0. -1.
<scales pt_clust_5="13000.00000" pt_clust_6="13000.00000" pt_clust_7="13000.00000" pt_clust_8="13000.00000" pt_clust_9="265.36811"></scales>
<clustering>
<clus scale="   89.012">  7  8 -1 -1</clus>
<clus scale="   89.474">  5  6 -1 -1</clus>
<clus scale="  146.568">  2  5  1 -1</clus>
<clus scale="  265.368">  1  9  2 -1</clus>
<clus scale="  265.368">  1  5  2 -1</clus>
</clustering>
</event>
<event>
 9    1  0.1321469E-005  0.1783685E+03  0.7546771E-02  0.1169710E+00
         21   -1    0    0  501  502  0.00000000000E+00  0.00000000000E+00  0.69400601721E+02  0.69400601721E+02  0.00000000000E+00 0.  1.
          2   -1    0    0  502    0 -0.00000000000E+00 -0.00000000000E+00 -0.68669186716E+03  0.68669186716E+03  0.00000000000E+00 0. -1.
         23    2    1    2    0    0  0.98366672552E+02 -0.11750603289E+03 -0.32328435888E+03  0.36891245591E+03  0.89999741101E+02 0.  0.
         23    2    1    2    0    0 -0.11449831142E+03  0.10090103761E+03 -0.31092654296E+03  0.35850546438E+03  0.92520106811E+02 0.  0.
        -13    1    4    4    0    0  0.12173254834E+02  0.29775422454E+02 -0.42654369407E+02  0.53424331021E+02  0.00000000000E+00 0.  1.
         13    1    4    4    0    0 -0.12667156625E+03  0.71125615154E+02 -0.26827217355E+03  0.30508113336E+03  0.00000000000E+00 0. -1.
        -13    1    3    3    0    0  0.78219763812E+02 -0.13096490844E+03 -0.26460012050E+03  0.30542325134E+03  0.00000000000E+00 0. -1.
         13    1    3    3    0    0  0.20146908740E+02  0.13458875548E+02 -0.58684238381E+02  0.63489204571E+02  0.00000000000E+00 0.  1.
          2    1    1    2  501    0  0.16131638867E+02  0.16604995284E+02  0.16919636398E+02  0.28674548589E+02  0.00000000000E+00 0. -1.
<scales pt_clust_5="13000.00000" pt_clust_6="13000.00000" pt_clust_7="13000.00000" pt_clust_8="13000.00000" pt_clust_9="23.15072"></scales>
<clustering>
<clus scale="   23.151">  1  9  2 -1</clus>
<clus scale="   90.000">  7  8 -1 -1</clus>
<clus scale="   92.520">  5  6 -1 -1</clus>
<clus scale="  177.074">  2  7  1 -1</clus>
<clus scale="   23.151">  1  5  2 -1</clus>
</clustering>
</event>
<event>
 9    1  0.1321469E-005  0.1232810E+03  0.7546771E-02  0.1238047E+00
          2   -1    0    0  502    0 -0.00000000000E+00  0.00000000000E+00  0.34017658993E+03  0.34017658993E+03  0.00000000000E+00 0. -1.
         21   -1    0    0  501  502  0.00000000000E+00 -0.00000000000E+00 -0.17846403491E+03  0.17846403491E+03  0.00000000000E+00 0. -1.
         23    2    1    2    0    0  0.54969133639E+02  0.51110731680E+02  0.12287707766E+03  0.16878666168E+03  0.88069565681E+02 0.  0.
         23    2    1    2    0    0  0.16099448338E+02 -0.12675640420E+03  0.13669541366E+03  0.20720201524E+03  0.88998094151E+02 0.  0.
        -13    1    4    4    0    0 -0.24366820502E+02 -0.10344631484E+02  0.49817945810E+02  0.56414369328E+02  0.00000000000E+00 0.  1.
         13    1    4    4    0    0  0.40466268840E+02 -0.11641177271E+03  0.86877467846E+02  0.15078764591E+03  0.00000000000E+00 0. -1.
        -13    1    3    3    0    0  0.30560845124E+02  0.39976289857E+02  0.81632969123E+01  0.50977528598E+02  0.00000000000E+00 0.  1.
         13    1    3    3    0    0  0.24408288515E+02  0.11134441823E+02  0.11471378075E+03  0.11780913308E+03  0.00000000000E+00 0. -1.
          2    1    1    2  501    0 -0.71068581977E+02  0.75645672516E+02 -0.97859936294E+02  0.14265194792E+03  0.00000000000E+00 0. -1.
<scales pt_clust_5="13000.00000" pt_clust_6="13000.00000" pt_clust_7="13000.00000" pt_clust_8="13000.00000" pt_clust_9="103.79312"></scales>
<clustering>
<clus scale="   88.070">  7  8 -1 -1</clus>
<clus scale="   88.998">  5  6 -1 -1</clus>
<clus scale="  103.793">  2  9  1 -1</clus>
<clus scale="  122.612">  1  7  2 -1</clus>
<clus scale="  103.793">  2  5  1 -1</clus>
</clustering>
</event>
<event>
 9    1  0.1321469E-005  0.1147047E+03  0.7546771E-02  0.1252561E+00
         -2   -1    0    0    0  501 -0.00000000000E+00  0.00000000000E+00  0.81637923855E+02  0.81637923855E+02  0.00000000000E+00 0.  1.
         21   -1    0    0  501  502  0.00000000000E+00 -0.00000000000E+00 -0.33961047691E+03  0.33961047691E+03  0.00000000000E+00 0.  1.
         23    2    1    2    0    0 -0.65559556658E+02 -0.27128205329E+02  0.27263229226E+01  0.11652687898E+03  0.92396351087E+02 0.  0.
         23    2    1    2    0    0  0.36836231608E+02  0.45789786791E+02 -0.13540973309E+03  0.17483444256E+03  0.93689241412E+02 0.  0.
        -13    1    4    4    0    0 -0.19647078796E+02  0.50160533071E+02 -0.62851383114E+02  0.82779122625E+02  0.00000000000E+00 0.  1.
         13    1    4    4    0    0  0.56483310403E+02 -0.43707462795E+01 -0.72558349977E+02  0.92055319936E+02  0.00000000000E+00 0. -1.
        -13    1    3    3    0    0 -0.46672378303E+02  0.24648525781E+02 -0.20627849025E+02  0.56668941008E+02  0.00000000000E+00 0. -1.
         13    1    3    3    0    0 -0.18887178355E+02 -0.51776731111E+02  0.23354171947E+02  0.59857937970E+02  0.00000000000E+00 0.  1.
         -2    1    1    2    0  502  0.28723325050E+02 -0.18661581462E+02 -0.12528914288E+03  0.12988707922E+03  0.00000000000E+00 0.  1.
<scales pt_clust_5="13000.00000" pt_clust_6="13000.00000" pt_clust_7="13000.00000" pt_clust_8="13000.00000" pt_clust_9="34.25323"></scales>
<clustering>
<clus scale="   34.253">  2  9  1 -1</clus>
<clus scale="   92.396">  7  8 -1 -1</clus>
<clus scale="   93.689">  5  6 -1 -1</clus>
<clus scale="  113.651">  1  7  2 -1</clus>
<clus scale="   34.253">  2  5  1 -1</clus>
</clustering>
</event>
<event>
 9    1  0.1321469E-005  0.1258534E+03  0.7546771E-02  0.1233760E+00
         21   -1    0    0  501  502  0.00000000000E+00  0.00000000000E+00  0.41391001398E+03  0.41391001398E+03  0.00000000000E+00 0.  1.
          1   -1    0    0  502    0 -0.00000000000E+00 -0.00000000000E+00 -0.61421603617E+02  0.61421603617E+02  0.00000000000E+00 0. -1.
         23    2    1    2    0    0 -0.58623885667E+02  0.48964724274E+02  0.61871291860E+02  0.13446026675E+03  0.91745312600E+02 0.  0.
         23    2    1    2    0    0  0.85155949853E+02 -0.68740277160E+02  0.21216751359E+03  0.25572815715E+03  0.91679196313E+02 0.  0.
        -11    1    4    4    0    0  0.35987171937E+02  0.19479668432E+02  0.49090617990E+02  0.63909489130E+02  0.00000000000E+00 0.  1.
         11    1    4    4    0    0  0.49168777916E+02 -0.88219945593E+02  0.16307689560E+03  0.19181866802E+03  0.00000000000E+00 0. -1.
        -13    1    3    3    0    0 -0.74129092337E+02  0.15652829423E+02  0.19218386889E+02  0.78163161364E+02  0.00000000000E+00 0. -1.
         13    1    3    3    0    0  0.15505206671E+02  0.33311894851E+02  0.42652904970E+02  0.56297105386E+02  0.00000000000E+00 0.  1.
          1    1    1    2  501    0 -0.26532064186E+02  0.19775552887E+02  0.78449604909E+02  0.85143193694E+02  0.00000000000E+00 0. -1.
<scales pt_clust_5="13000.00000" pt_clust_6="13000.00000" pt_clust_7="13000.00000" pt_clust_8="13000.00000" pt_clust_9="33.09113"></scales>
<clustering>
<clus scale="   33.091">  1  9  2 -1</clus>
<clus scale="   91.679">  5  6 -1 -1</clus>
<clus scale="   91.745">  7  8 -1 -1</clus>
<clus scale="  125.805">  1  5  2 -1</clus>
<clus scale="   33.091">  1  5  2 -1</clus>
</clustering>
</event>
<event>
 9    1  0.1321469E-005  0.1013100E+03  0.7546771E-02  0.1279699E+00
          1   -1    0    0  502    0 -0.00000000000E+00  0.00000000000E+00  0.32756049897E+03  0.32756049897E+03  0.00000000000E+00 0. -1.
         21   -1    0    0  501  502  0.00000000000E+00 -0.00000000000E+00 -0.41903629414E+02  0.41903629414E+02  0.00000000000E+00 0.  1.
         23    2    1    2    0    0  0.49368281666E+02  0.11542576787E+02  0.18582025460E+03  0.20958713895E+03  0.82626530106E+02 0.  0.
         23    2    1    2    0    0 -0.54702842079E+02  0.91767903183E+01  0.83419338912E+02  0.13290892201E+03  0.87346328107E+02 0.  0.
        -13    1    4    4    0    0 -0.69010155662E+02 -0.14344301181E+02  0.38743171782E+02  0.80431299384E+02  0.00000000000E+00 0.  1.
         13    1    4    4    0    0  0.14307313583E+02  0.23521091500E+02  0.44676167130E+02  0.52477622628E+02  0.00000000000E+00 0. -1.
        -13    1    3    3    0    0 -0.18178396654E+02  0.11769894726E+02  0.88576886559E+02  0.91185795820E+02  0.00000000000E+00 0.  1.
         13    1    3    3    0    0  0.67546678321E+02 -0.22731793866E+00  0.97243368046E+02  0.11840134313E+03  0.00000000000E+00 0. -1.
          1    1    1    2  501    0  0.53345604125E+01 -0.20719367105E+02  0.16417276041E+02  0.26968067425E+02  0.00000000000E+00 0. -1.
<scales pt_clust_5="13000.00000" pt_clust_6="13000.00000" pt_clust_7="13000.00000" pt_clust_8="13000.00000" pt_clust_9="21.39509"></scales>
<clustering>
<clus scale="   21.395">  2  9  1 -1</clus>
<clus scale="   82.627">  7  8 -1 -1</clus>
<clus scale="   87.346">  5  6 -1 -1</clus>
<clus scale="   97.270">  1  7  2 -1</clus>
<clus scale="   21.395">  2  5  1 -1</clus>
</clustering>
</event>
<event>
 9    1  0.1321469E-005  0.9139810E+02  0.7546771E-02  0.1300123E+00
         21   -1    0    0  501  502  0.00000000000E+00  0.00000000000E+00  0.66072076836E+02  0.66072076836E+02  0.00000000000E+00 0. -1.
         -3   -1    0    0    0  501 -0.00000000000E+00 -0.00000000000E+00 -0.40638581759E+03  0.40638581759E+03  0.00000000000E+00 0.  1.
         23    2    1    2    0    0  0.15355208888E+02  0.15928646314E+02 -0.27903857399E+03  0.29427405611E+03  0.90803029215E+02 0.  0.
         23    2    1    2    0    0  0.39884556425E+02  0.21238225866E+02 -0.41608814048E+02  0.10876069023E+03  0.89753853703E+02 0.  0.
        -11    1    4    4    0    0 -0.23441813157E+01  0.20107040684E+02  0.23582281962E+02  0.31079129551E+02  0.00000000000E+00 0. -1.
         11    1    4    4    0    0  0.42228737741E+02  0.11311851818E+01 -0.65191096011E+02  0.77681560683E+02  0.00000000000E+00 0.  1.
        -13    1    3    3    0    0 -0.30555073691E+02  0.30759047337E+02 -0.10321464776E+03  0.11195085990E+03  0.00000000000E+00 0. -1.
         13    1    3    3    0    0  0.45910282580E+02 -0.14830401023E+02 -0.17582392623E+03  0.18232319621E+03  0.00000000000E+00 0.  1.
         -3    1    1    2    0  502 -0.55239765314E+02 -0.37166872179E+02 -0.19666352713E+02  0.69423148074E+02  0.00000000000E+00 0.  1.
<scales pt_clust_5="13000.00000" pt_clust_6="13000.00000" pt_clust_7="13000.00000" pt_clust_8="13000.00000" pt_clust_9="66.57934"></scales>
<clustering>
<clus scale="   66.579">  1  9  2 -1</clus>
<clus scale="   89.754">  5  6 -1 -1</clus>
<clus scale="   90.356">  1  5  2 -1</clus>
<clus scale="   90.803">  7  8 -1 -1</clus>
<clus scale="   66.579">  1  5  2 -1</clus>
</clustering>
</event>
<event>
 9    1  0.1588981E-005  0.1062290E+03  0.7546771E-02  0.1267842E+00
         21   -1    0    0  501  502  0.00000000000E+00  0.00000000000E+00  0.48143701360E+02  0.48143701360E+02  0.00000000000E+00 0.  1.
          1   -1    0    0  502    0 -0.00000000000E+00 -0.00000000000E+00 -0.63375287434E+03  0.63375287434E+03  0.00000000000E+00 0. -1.
         23    2    1    2    0    0 -0.18272400374E+02  0.50594407205E+02 -0.50831216248E+03  0.51913707498E+03  0.90710382168E+02 0.  0.
         23    2    1    2    0    0 -0.44210345342E+00 -0.69237452270E+02 -0.48770673385E+02  0.12388087302E+03  0.90409467788E+02 0.  0.
        -11    1    4    4    0    0  0.36532663361E+02 -0.66900479737E+02 -0.26754328723E+02  0.80784304087E+02  0.00000000000E+00 0.  1.
         11    1    4    4    0    0 -0.36974766815E+02 -0.23369725327E+01 -0.22016344662E+02  0.43096568934E+02  0.00000000000E+00 0. -1.
        -13    1    3    3    0    0  0.26501292479E+02 -0.11480005473E+02 -0.14597749239E+03  0.14880704726E+03  0.00000000000E+00 0.  1.
         13    1    3    3    0    0 -0.44773692854E+02  0.62074412678E+02 -0.36233467009E+03  0.37033002772E+03  0.00000000000E+00 0. -1.
          1    1    1    2  501    0  0.18714503828E+02  0.18643045065E+02 -0.28526337110E+02  0.38878627699E+02  0.00000000000E+00 0. -1.
<scales pt_clust_5="13000.00000" pt_clust_6="13000.00000" pt_clust_7="13000.00000" pt_clust_8="13000.00000" pt_clust_9="26.41582"></scales>
<clustering>
<clus scale="   26.416">  1  9  2 -1</clus>
<clus scale="   90.409">  5  6 -1 -1</clus>
<clus scale="   90.710">  7  8 -1 -1</clus>
<clus scale="  105.972">  1  5  2 -1</clus>
<clus scale="   26.416">  1  5  2 -1</clus>
</clustering>
</event>
<event>
 9    1  0.1321469E-005  0.1034694E+03  0.7546771E-02  0.1276745E+00
         -1   -1    0    0    0  501 -0.00000000000E+00  0.00000000000E+00  0.19657801681E+03  0.19657801681E+03  0.00000000000E+00 0.  1.
         21   -1    0    0  501  502  0.00000000000E+00 -0.00000000000E+00 -0.13953100042E+03  0.13953100042E+03  0.00000000000E+00 0. -1.
         23    2    1    2    0    0 -0.19755971498E+02  0.30127214081E+02  0.88118990455E+02  0.13686262510E+03  0.98328399928E+02 0.  0.
         23    2    1    2    0    0 -0.16030617873E+02 -0.34292396109E+02  0.49965314717E+02  0.11056115721E+03  0.91072979903E+02 0.  0.
        -11    1    3    3    0    0  0.35254674969E+02 -0.13800342912E+00  0.10012903308E+02  0.36649275365E+02  0.00000000000E+00 0.  1.
         11    1    3    3    0    0 -0.55010646467E+02  0.30265217510E+02  0.78106087147E+02  0.10021334974E+03  0.00000000000E+00 0. -1.
        -13    1    4    4    0    0 -0.27685103251E+02 -0.11714110423E+02  0.71303258876E+02  0.77381134983E+02  0.00000000000E+00 0. -1.
         13    1    4    4    0    0  0.11654485378E+02 -0.22578285686E+02 -0.21337944159E+02  0.33180022226E+02  0.00000000000E+00 0.  1.
         -1    1    1    2    0  502  0.35786589371E+02  0.41651820283E+01 -0.81037288783E+02  0.88685234924E+02  0.00000000000E+00 0.  1.
<scales pt_clust_5="13000.00000" pt_clust_6="13000.00000" pt_clust_7="13000.00000" pt_clust_8="13000.00000" pt_clust_9="36.02817"></scales>
<clustering>
<clus scale="   36.028">  2  9  1 -1</clus>
<clus scale="   91.073">  7  8 -1 -1</clus>
<clus scale="   96.601">  2  7  1 -1</clus>
<clus scale="   98.328">  5  6 -1 -1</clus>
<clus scale="   36.028">  2  5  1 -1</clus>
</clustering>
</event>
<event>
 9    1  0.1321469E-005  0.1014718E+03  0.7546771E-02  0.1279679E+00
         -1   -1    0    0    0  501 -0.00000000000E+00  0.00000000000E+00  0.17333673842E+03  0.17333673842E+03  0.00000000000E+00 0.  1.
         21   -1    0    0  501  502  0.00000000000E+00 -0.00000000000E+00 -0.25838109930E+03  0.25838109930E+03  0.00000000000E+00 0.  1.
         23    2    1    2    0    0 -0.20065169238E+02 -0.32314467596E+02  0.63380085226E+02  0.11837814852E+03  0.92463587493E+02 0.  0.
         23    2    1    2    0    0 -0.36757140242E+02  0.23340353168E+02  0.41879052664E+02  0.11453141163E+03  0.97302259749E+02 0.  0.
        -11    1    3    3    0    0  0.18919019335E+02 -0.30329606764E+02 -0.83553637561E+01  0.36710031906E+02  0.00000000000E+00 0. -1.
         11    1    3    3    0    0 -0.38984188572E+02 -0.19848608320E+01  0.71735448983E+02  0.81668116618E+02  0.00000000000E+00 0.  1.
        -13    1    4    4    0    0 -0.26725540111E+02  0.48656974321E+02  0.60061741084E+02  0.81787336345E+02  0.00000000000E+00 0.  1.
         13    1    4    4    0    0 -0.10031600132E+02 -0.25316621153E+02 -0.18182688420E+02  0.32744075281E+02  0.00000000000E+00 0. -1.
         -1    1    1    2    0  502  0.56822309480E+02  0.89741144286E+01 -0.19030349877E+03  0.19880827756E+03  0.00000000000E+00 0.  1.
<scales pt_clust_5="13000.00000" pt_clust_6="13000.00000" pt_clust_7="13000.00000" pt_clust_8="13000.00000" pt_clust_9="57.52660"></scales>
<clustering>
<clus scale="   57.527">  2  9  1 -1</clus>
<clus scale="   92.464">  5  6 -1 -1</clus>
<clus scale="   96.842">  1  5  2 -1</clus>
<clus scale="   97.302">  7  8 -1 -1</clus>
<clus scale="   57.527">  2  5  1 -1</clus>
</clustering>
</event>
<event>
 9    1  0.1321469E-005  0.9145060E+02  0.7546771E-02  0.1299392E+00
          1   -1    0    0  502    0 -0.00000000000E+00  0.00000000000E+00  0.45715829433E+03  0.45715829433E+03  0.00000000000E+00 0. -1.
         21   -1    0    0  501  502  0.00000000000E+00 -0.00000000000E+00 -0.27296687499E+02  0.27296687499E+02  0.00000000000E+00 0.  1.
         23    2    1    2    0    0  0.37318431420E+01 -0.11453367376E+01  0.24450642406E+03  0.26081963285E+03  0.90709707425E+02 0.  0.
         23    2    1    2    0    0 -0.11911122226E+02 -0.25658533881E+02  0.15855376674E+03  0.18485824249E+03  0.90736088065E+02 0.  0.
        -11    1    3    3    0    0  0.39497877000E+02  0.24052177593E+02  0.10833566884E+03  0.11779306718E+03  0.00000000000E+00 0. -1.
         11    1    3    3    0    0 -0.35766033858E+02 -0.25197514330E+02  0.13617075523E+03  0.14302656566E+03  0.00000000000E+00 0.  1.
        -13    1    4    4    0    0 -0.45798595976E+02 -0.27979027795E+02  0.59431747619E+02  0.80077899665E+02  0.00000000000E+00 0.  1.
         13    1    4    4    0    0  0.33887473749E+02  0.23204939138E+01  0.99122019116E+02  0.10478034283E+03  0.00000000000E+00 0. -1.
          1    1    1    2  501    0  0.81792790845E+01  0.26803870619E+02  0.26801416035E+02  0.38777106493E+02  0.00000000000E+00 0. -1.
<scales pt_clust_5="13000.00000" pt_clust_6="13000.00000" pt_clust_7="13000.00000" pt_clust_8="13000.00000" pt_clust_9="28.02406"></scales>
<clustering>
<clus scale="   28.024">  2  9  1 -1</clus>
<clus scale="   90.710">  5  6 -1 -1</clus>
<clus scale="   90.736">  7  8 -1 -1</clus>
<clus scale="   91.424">  1  5  2 -1</clus>
<clus scale="   28.024">  2  5  1 -1</clus>
</clustering>
</event>
<event>
 9    1  0.1321469E-005  0.1264772E+03  0.7546771E-02  0.1233394E+00
         -1   -1    0    0    0  501 -0.00000000000E+00  0.00000000000E+00  0.11222750912E+04  0.11222750912E+04  0.00000000000E+00 0.  1.
         21   -1    0    0  501  502  0.00000000000E+00 -0.00000000000E+00 -0.36122194009E+02  0.36122194009E+02  0.00000000000E+00 0.  1.
         23    2    1    2    0    0  0.27344967670E+02  0.66806912395E+02  0.47484981330E+03  0.48942901828E+03  0.94061192564E+02 0.  0.
         23    2    1    2    0    0 -0.30695806309E+01 -0.99789870933E+02  0.61313590404E+03  0.62797400885E+03  0.91914516284E+02 0.  0.
        -11    1    4    4    0    0 -0.46450425950E+02 -0.63358109905E+02  0.38229334606E+03  0.39028207056E+03  0.00000000000E+00 0. -1.
         11    1    4    4    0    0  0.43380845319E+02 -0.36431761028E+02  0.23084255798E+03  0.23769193829E+03  0.00000000000E+00 0.  1.
        -13    1    3    3    0    0 -0.34894217951E+02  0.30992962730E+02  0.19642181531E+03  0.20189031605E+03  0.00000000000E+00 0.  1.
         13    1    3    3    0    0  0.62239185621E+02  0.35813949665E+02  0.27842799799E+03  0.28753870223E+03  0.00000000000E+00 0. -1.
         -1    1    1    2    0  502 -0.24275387039E+02  0.32982958538E+02 -0.18328200958E+01  0.40994258126E+02  0.00000000000E+00 0.  1.
<scales pt_clust_5="13000.00000" pt_clust_6="13000.00000" pt_clust_7="13000.00000" pt_clust_8="13000.00000" pt_clust_9="40.95327"></scales>
<clustering>
<clus scale="   40.953">  2  9  1 -1</clus>
<clus scale="   91.915">  5  6 -1 -1</clus>
<clus scale="   94.061">  7  8 -1 -1</clus>
<clus scale="  124.889">  2  5  1 -1</clus>
<clus scale="   40.953">  2  5  1 -1</clus>
</clustering>
</event>
<event>
 9    1  0.1321469E-005  0.1597960E+03  0.7546771E-02  0.1189159E+00
          2   -1    0    0  502    0 -0.00000000000E+00  0.00000000000E+00  0.12430965464E+04  0.12430965464E+04  0.00000000000E+00 0. -1.
         21   -1    0    0  501  502  0.00000000000E+00 -0.00000000000E+00 -0.42131461528E+02  0.42131461528E+02  0.00000000000E+00 0. -1.
         23    2    1    2    0    0  0.12260519381E+03  0.22378807760E+02  0.79211908397E+03  0.80733410383E+03  0.93823597446E+02 0.  0.
         23    2    1    2    0    0 -0.13956285323E+03 -0.96367719791E+01  0.42120067188E+03  0.45334681494E+03  0.92426572206E+02 0.  0.
        -11    1    4    4    0    0 -0.62168963865E+02 -0.58404377816E+01  0.70453340871E+02  0.94142254177E+02  0.00000000000E+00 0.  1.
         11    1    4    4    0    0 -0.77393889361E+02 -0.37963341975E+01  0.35074733101E+03  0.35920456077E+03  0.00000000000E+00 0. -1.
        -13    1    3    3    0    0  0.28497926388E+02  0.50232315159E+02  0.27939864867E+03  0.28530513870E+03  0.00000000000E+00 0.  1.
         13    1    3    3    0    0  0.94107267421E+02 -0.27853507399E+02  0.51272043530E+03  0.52202896513E+03  0.00000000000E+00 0. -1.
          2    1    1    2  501    0  0.16957659418E+02 -0.12742035781E+02 -0.12354671008E+02  0.24547089124E+02  0.00000000000E+00 0. -1.
<scales pt_clust_5="13000.00000" pt_clust_6="13000.00000" pt_clust_7="13000.00000" pt_clust_8="13000.00000" pt_clust_9="21.21136"></scales>
<clustering>
<clus scale="   21.211">  2  9  1 -1</clus>
<clus scale="   92.427">  5  6 -1 -1</clus>
<clus scale="   93.824">  7  8 -1 -1</clus>
<clus scale="  158.980">  2  5  1 -1</clus>
<clus scale="   21.211">  2  5  1 -1</clus>
</clustering>
</event>
<event>
 9    1  0.1321469E-005  0.9409030E+02  0.7546771E-02  0.1293262E+00
         21   -1    0    0  501  502  0.00000000000E+00  0.00000000000E+00  0.23878626189E+03  0.23878626189E+03  0.00000000000E+00 0.  1.
          2   -1    0    0  502    0 -0.00000000000E+00 -0.00000000000E+00 -0.73486212323E+02  0.73486212323E+02  0.00000000000E+00 0. -1.
         23    2    1    2    0    0  0.79566299640E+00 -0.70442118029E+01  0.42811645941E+00  0.92822114500E+02  0.92550027860E+02 0.  0.
         23    2    1    2    0    0 -0.17377968844E+02  0.43904867446E+02  0.12644138891E+03  0.16367771831E+03  0.92592329354E+02 0.  0.
        -11    1    3    3    0    0  0.30280464470E+02 -0.24815436998E+02  0.28480806598E+02  0.48413518633E+02  0.00000000000E+00 0.  1.
         11    1    3    3    0    0 -0.29484801474E+02  0.17771225195E+02 -0.28052690139E+02  0.44408595867E+02  0.00000000000E+00 0. -1.
        -13    1    4    4    0    0  0.80033734036E+01  0.32453583143E+02 -0.78977238575E+00  0.33435202782E+02  0.00000000000E+00 0. -1.
         13    1    4    4    0    0 -0.25381342248E+02  0.11451284304E+02  0.12723116130E+03  0.13024251553E+03  0.00000000000E+00 0.  1.
          2    1    1    2  501    0  0.16582305848E+02 -0.36860655643E+02  0.38430544193E+02  0.55772641399E+02  0.00000000000E+00 0. -1.
<scales pt_clust_5="13000.00000" pt_clust_6="13000.00000" pt_clust_7="13000.00000" pt_clust_8="13000.00000" pt_clust_9="40.41882"></scales>
<clustering>
<clus scale="   40.419">  1  9  2 -1</clus>
<clus scale="   92.550">  5  6 -1 -1</clus>
<clus scale="   92.592">  7  8 -1 -1</clus>
<clus scale="   94.049">  2  5  1 -1</clus>
<clus scale="   40.419">  1  5  2 -1</clus>
</clustering>
</event>
<event>
 9    1  0.1321469E-005  0.9191926E+02  0.7546771E-02  0.1298859E+00
          2   -1    0    0  502    0 -0.00000000000E+00  0.00000000000E+00  0.11768738683E+03  0.11768738683E+03  0.00000000000E+00 0. -1.
         21   -1    0    0  501  502  0.00000000000E+00 -0.00000000000E+00 -0.15779520213E+03  0.15779520213E+03  0.00000000000E+00 0. -1.
         23    2    1    2    0    0 -0.47784938754E+00 -0.10583410094E+02 -0.10911838963E+02  0.91129323255E+02  0.89851257187E+02 0.  0.
         23    2    1    2    0    0 -0.37794636936E+02 -0.30144657661E+02 -0.61406584032E+02  0.11984681673E+03  0.90858989382E+02 0.  0.
        -11    1    4    4    0    0 -0.50554616195E+02 -0.13618645063E+02  0.26995059027E+01  0.52426367832E+02  0.00000000000E+00 0. -1.
         11    1    4    4    0    0  0.12759979259E+02 -0.16526012599E+02 -0.64106089934E+02  0.67420448899E+02  0.00000000000E+00 0.  1.
        -11    1    3    3    0    0  0.28571861833E+02 -0.22471010016E+02  0.24479867344E+02  0.43824211172E+02  0.00000000000E+00 0. -1.
         11    1    3    3    0    0 -0.29049711220E+02  0.11887599922E+02 -0.35391706306E+02  0.47305112083E+02  0.00000000000E+00 0.  1.
          2    1    1    2  501    0  0.38272486324E+02  0.40728067755E+02  0.32210607694E+02  0.64506448984E+02  0.00000000000E+00 0. -1.
<scales pt_clust_5="13000.00000" pt_clust_6="13000.00000" pt_clust_7="13000.00000" pt_clust_8="13000.00000" pt_clust_9="55.88883"></scales>
<clustering>
<clus scale="   55.889">  2  9  1 -1</clus>
<clus scale="   89.851">  7  8 -1 -1</clus>
<clus scale="   90.859">  5  6 -1 -1</clus>
<clus scale="   90.923">  1  7  2 -1</clus>
<clus scale="   55.889">  2  5  1 -1</clus>
</clustering>
</event>
<event>
 9    1  0.1321469E-005  0.2104652E+03  0.7546771E-02  0.1141261E+00
         21   -1    0    0  501  502  0.00000000000E+00  0.00000000000E+00  0.25924991094E+03  0.25924991094E+03  0.00000000000E+00 0. -1.
         -3   -1    0    0    0  501 -0.00000000000E+00 -0.00000000000E+00 -0.23191137151E+03  0.23191137151E+03  0.00000000000E+00 0.  1.
         23    2    1    2    0    0  0.17524386508E+03 -0.11690592644E+02 -0.17868635893E+02  0.20033498889E+03  0.94698138436E+02 0.  0.
         23    2    1    2    0    0 -0.19893573616E+03  0.35253764656E+02 -0.12898300438E+02  0.22379813422E+03  0.95399075907E+02 0.  0.
        -11    1    3    3    0    0  0.96782071217E+02  0.19456183748E+02 -0.49188685608E+02  0.11029432980E+03  0.00000000000E+00 0.  1.
         11    1    3    3    0    0  0.78461793858E+02 -0.31146776392E+02  0.31320049715E+02  0.90040659089E+02  0.00000000000E+00 0. -1.
        -13    1    4    4    0    0 -0.10533891839E+03 -0.15008053914E+02 -0.40799870876E+02  0.11395682899E+03  0.00000000000E+00 0.  1.
         13    1    4    4    0    0 -0.93596817767E+02  0.50261818570E+02  0.27901570438E+02  0.10984130523E+03  0.00000000000E+00 0. -1.
         -3    1    1    2    0  502  0.23691871086E+02 -0.23563172012E+02  0.58105475757E+02  0.67028159334E+02  0.00000000000E+00 0.  1.
<scales pt_clust_5="13000.00000" pt_clust_6="13000.00000" pt_clust_7="13000.00000" pt_clust_8="13000.00000" pt_clust_9="33.41449"></scales>
<clustering>
<clus scale="   33.414">  1  9  2 -1</clus>
<clus scale="   94.698">  5  6 -1 -1</clus>
<clus scale="   95.399">  7  8 -1 -1</clus>
<clus scale="  210.148">  2  5  1 -1</clus>
<clus scale="   33.414">  1  5  2 -1</clus>
</clustering>
</event>
<event>
 9    1  0.1321469E-005  0.1177146E+03  0.7546771E-02  0.1252262E+00
         -2   -1    0    0    0  501 -0.00000000000E+00  0.00000000000E+00  0.13586846712E+03  0.13586846712E+03  0.00000000000E+00 0.  1.
         21   -1    0    0  501  502  0.00000000000E+00 -0.00000000000E+00 -0.25255077319E+03  0.25255077319E+03  0.00000000000E+00 0. -1.
         23    2    1    2    0    0  0.57400231396E+02  0.11230238806E+02  0.84661526263E+02  0.14537115461E+03  0.10268541150E+03 0.  0.
         23    2    1    2    0    0 -0.45384630727E+02 -0.32266018068E+02 -0.18841558019E+03  0.21558869073E+03  0.88753546891E+02 0.  0.
        -11    1    3    3    0    0  0.37707217986E+02 -0.23889403690E+02 -0.70678098416E+01  0.45193935798E+02  0.00000000000E+00 0. -1.
         11    1    3    3    0    0  0.19693013410E+02  0.35119642496E+02  0.91729336105E+02  0.10017721881E+03  0.00000000000E+00 0.  1.
        -11    1    4    4    0    0 -0.71295667346E+01  0.29184475913E+02 -0.36231231146E+02  0.47066617326E+02  0.00000000000E+00 0.  1.
         11    1    4    4    0    0 -0.38255063992E+02 -0.61450493982E+02 -0.15218434904E+03  0.16852207341E+03  0.00000000000E+00 0. -1.
         -2    1    1    2    0  502 -0.12015600669E+02  0.21035779262E+02 -0.12928252151E+02  0.27459394973E+02  0.00000000000E+00 0.  1.
<scales pt_clust_5="13000.00000" pt_clust_6="13000.00000" pt_clust_7="13000.00000" pt_clust_8="13000.00000" pt_clust_9="24.22558"></scales>
<clustering>
<clus scale="   24.226">  2  9  1 -1</clus>
<clus scale="   88.754">  7  8 -1 -1</clus>
<clus scale="  102.685">  5  6 -1 -1</clus>
<clus scale="  105.781">  2  7  1 -1</clus>
<clus scale="   24.226">  2  5  1 -1</clus>
</clustering>
</event>
<event>
 9    1  0.1321469E-005  0.1028127E+03  0.7546771E-02  0.1275356E+00
         21   -1    0    0  501  502  0.00000000000E+00  0.00000000000E+00  0.96152957323E+02  0.96152957323E+02  0.00000000000E+00 0.  1.
         -2   -1    0    0    0  501 -0.00000000000E+00 -0.00000000000E+00 -0.39568289195E+03  0.39568289195E+03  0.00000000000E+00 0.  1.
         23    2    1    2    0    0 -0.15701864700E+02  0.56097469987E+02 -0.26978680257E+03  0.29040860454E+03  0.90325876991E+02 0.  0.
         23    2    1    2    0    0  0.40814790810E+02  0.28321960803E+01 -0.72654655108E+02  0.12432495286E+03  0.92217821009E+02 0.  0.
        -13    1    3    3    0    0  0.18943840060E+02 -0.11984703111E+02 -0.23201091913E+02  0.32261321281E+02  0.00000000000E+00 0. -1.
         13    1    3    3    0    0 -0.34645704759E+02  0.68082173099E+02 -0.24658571066E+03  0.25814728326E+03  0.00000000000E+00 0.  1.
        -13    1    4    4    0    0 -0.27663567060E+02  0.13464031513E+02 -0.29880341739E+02  0.42888085869E+02  0.00000000000E+00 0.  1.
         13    1    4    4    0    0  0.68478357870E+02 -0.10631835433E+02 -0.42774313369E+02  0.81436866992E+02  0.00000000000E+00 0. -1.
         -2    1    1    2    0  502 -0.25112926110E+02 -0.58929666068E+02  0.42911523056E+02  0.77102291870E+02  0.00000000000E+00 0.  1.
<scales pt_clust_5="13000.00000" pt_clust_6="13000.00000" pt_clust_7="13000.00000" pt_clust_8="13000.00000" pt_clust_9="64.05751"></scales>
<clustering>
<clus scale="   64.058">  1  9  2 -1</clus>
<clus scale="   90.326">  5  6 -1 -1</clus>
<clus scale="   92.218">  7  8 -1 -1</clus>
<clus scale="  101.119">  2  5  1 -1</clus>
<clus scale="   64.058">  1  5  2 -1</clus>
</clustering>
</event>
<event>
 9    1  0.1321469E-005  0.1042601E+03  0.7546771E-02  0.1271695E+00
          3   -1    0    0  502    0 -0.00000000000E+00  0.00000000000E+00  0.33622498572E+03  0.33622498572E+03  0.00000000000E+00 0. -1.
         21   -1    0    0  501  502  0.00000000000E+00 -0.00000000000E+00 -0.12052240775E+03  0.12052240775E+03  0.00000000000E+00 0. -1.
         23    2    1    2    0    0  0.36002561393E+02  0.38218062899E+02  0.22006234663E+03  0.24316253512E+03  0.89127870634E+02 0.  0.
         23    2    1    2    0    0 -0.68953731865E+02 -0.61481750366E+01  0.64966863631E+02  0.13039568064E+03  0.89386369007E+02 0.  0.
        -11    1    4    4    0    0 -0.32906830952E+01 -0.35787531017E+02  0.42676593722E+01  0.36191005623E+02  0.00000000000E+00 0.  1.
         11    1    4    4    0    0 -0.65663048769E+02  0.29639355980E+02  0.60699204259E+02  0.94204675013E+02  0.00000000000E+00 0. -1.
        -13    1    3    3    0    0 -0.75660048883E+00 -0.27606241160E+02  0.49555650490E+02  0.56731291990E+02  0.00000000000E+00 0.  1.
         13    1    3    3    0    0  0.36759161882E+02  0.65824304060E+02  0.17050669614E+03  0.18643124313E+03  0.00000000000E+00 0. -1.
          3    1    1    2  501    0  0.32951170472E+02 -0.32069887863E+02 -0.69326632288E+02  0.83189177706E+02  0.00000000000E+00 0. -1.
<scales pt_clust_5="13000.00000" pt_clust_6="13000.00000" pt_clust_7="13000.00000" pt_clust_8="13000.00000" pt_clust_9="45.98105"></scales>
<clustering>
<clus scale="   45.981">  2  9  1 -1</clus>
<clus scale="   89.128">  7  8 -1 -1</clus>
<clus scale="   89.386">  5  6 -1 -1</clus>
<clus scale="  104.039">  1  7  2 -1</clus>
<clus scale="   45.981">  2  5  1 -1</clus>
</clustering>
</event>
<event>
 9    1  0.1321469E-005  0.1068324E+03  0.7546771E-02  0.1266884E+00
          1   -1    0    0  502    0 -0.00000000000E+00  0.00000000000E+00  0.43321590235E+03  0.43321590235E+03  0.00000000000E+00 0. -1.
         21   -1    0    0  501  502  0.00000000000E+00 -0.00000000000E+00 -0.48840794595E+02  0.48840794595E+02  0.00000000000E+00 0.  1.
         23    2    1    2    0    0 -0.18373997586E+02 -0.31501190611E+02  0.17679864681E+03  0.20275775815E+03  0.92320193764E+02 0.  0.
         23    2    1    2    0    0  0.53785995865E+02  0.48918012831E+02  0.20870404438E+03  0.23981949145E+03  0.93113398658E+02 0.  0.
        -11    1    3    3    0    0 -0.25353836337E+02 -0.62517260493E+02  0.12132766294E+03  0.13882228449E+03  0.00000000000E+00 0.  1.
         11    1    3    3    0    0  0.69798387511E+01  0.31016069882E+02  0.55470983876E+02  0.63935473660E+02  0.00000000000E+00 0. -1.
        -13    1    4    4    0    0  0.29878501642E+02  0.12633553197E+02  0.66092782785E+01  0.33106103457E+02  0.00000000000E+00 0.  1.
         13    1    4    4    0    0  0.23907494223E+02  0.36284459634E+02  0.20209476610E+03  0.20671338800E+03  0.00000000000E+00 0. -1.
          1    1    1    2  501    0 -0.35411998279E+02 -0.17416822220E+02 -0.11275834374E+01  0.39479447346E+02  0.00000000000E+00 0. -1.
<scales pt_clust_5="13000.00000" pt_clust_6="13000.00000" pt_clust_7="13000.00000" pt_clust_8="13000.00000" pt_clust_9="39.46334"></scales>
<clustering>
<clus scale="   39.463">  2  9  1 -1</clus>
<clus scale="   92.320">  5  6 -1 -1</clus>
<clus scale="   93.113">  7  8 -1 -1</clus>
<clus scale="  106.142">  1  5  2 -1</clus>
<clus scale="   39.463">  2  5  1 -1</clus>
</clustering>
</event>
<event>
 9    1  0.1321469E-005  0.1067301E+03  0.7546771E-02  0.1268947E+00
         21   -1    0    0  501  502  0.00000000000E+00  0.00000000000E+00  0.13679703241E+03  0.13679703241E+03  0.00000000000E+00 0.  1.
         -2   -1    0    0    0  501 -0.00000000000E+00 -0.00000000000E+00 -0.47340324079E+03  0.47340324079E+03  0.00000000000E+00 0.  1.
         23    2    1    2    0    0  0.42025030452E+02  0.14521128212E+02 -0.28533887640E+03  0.30377185728E+03  0.94244896622E+02 0.  0.
         23    2    1    2    0    0 -0.63496339220E+02  0.63462037816E+01 -0.15982375123E+03  0.19381865255E+03  0.89162655988E+02 0.  0.
        -11    1    3    3    0    0  0.50973381448E+02  0.46082976269E+02 -0.15841125966E+03  0.17267325648E+03  0.00000000000E+00 0.  1.
         11    1    3    3    0    0 -0.89483509953E+01 -0.31561848057E+02 -0.12692761675E+03  0.13109860080E+03  0.00000000000E+00 0. -1.
        -13    1    4    4    0    0  0.20451988349E+02 -0.11654122148E+02 -0.29224085613E+02  0.37525319058E+02  0.00000000000E+00 0.  1.
         13    1    4    4    0    0 -0.83948327569E+02  0.18000325930E+02 -0.13059966562E+03  0.15629333350E+03  0.00000000000E+00 0. -1.
         -2    1    1    2    0  502  0.21471308768E+02 -0.20867331994E+02  0.10855641925E+03  0.11260976337E+03  0.00000000000E+00 0.  1.
<scales pt_clust_5="13000.00000" pt_clust_6="13000.00000" pt_clust_7="13000.00000" pt_clust_8="13000.00000" pt_clust_9="29.94099"></scales>
<clustering>
<clus scale="   29.941">  1  9  2 -1</clus>
<clus scale="   89.163">  7  8 -1 -1</clus>
<clus scale="   94.245">  5  6 -1 -1</clus>
<clus scale="  102.270">  1  7  2 -1</clus>
<clus scale="   29.941">  1  5  2 -1</clus>
</clustering>
</event>
<event>
 9    1  0.1321469E-005  0.1050754E+03  0.7546771E-02  0.1270593E+00
         -3   -1    0    0    0  501 -0.00000000000E+00  0.00000000000E+00  0.27729753387E+03  0.27729753387E+03  0.00000000000E+00 0.  1.
         21   -1    0    0  501  502  0.00000000000E+00 -0.00000000000E+00 -0.70071002076E+02  0.70071002076E+02  0.00000000000E+00 0. -1.
         23    2    1    2    0    0 -0.42124317684E+02 -0.17553359789E+02  0.18485526717E+03  0.21187232205E+03  0.92929179869E+02 0.  0.
         23    2    1    2    0    0  0.60566410537E+02  0.83686177180E+01  0.29075149293E+02  0.11383028799E+03  0.91507629790E+02 0.  0.
        -11    1    4    4    0    0  0.20728322405E+02 -0.28336475626E+02  0.45272824178E+02  0.57290905122E+02  0.00000000000E+00 0.  1.
         11    1    4    4    0    0  0.39838088133E+02  0.36705093344E+02 -0.16197674886E+02  0.56539382869E+02  0.00000000000E+00 0. -1.
        -13    1    3    3    0    0 -0.65747858637E+02 -0.32953426937E+02  0.14982375015E+03  0.16690076504E+03  0.00000000000E+00 0.  1.
         13    1    3    3    0    0  0.23623540953E+02  0.15400067148E+02  0.35031517024E+02  0.44971557015E+02  0.00000000000E+00 0. -1.
         -3    1    1    2    0  502 -0.18442092854E+02  0.91847420706E+01 -0.67038846656E+01  0.21665925905E+02  0.00000000000E+00 0.  1.
<scales pt_clust_5="13000.00000" pt_clust_6="13000.00000" pt_clust_7="13000.00000" pt_clust_8="13000.00000" pt_clust_9="20.60268"></scales>
<clustering>
<clus scale="   20.603">  2  9  1 -1</clus>
<clus scale="   91.508">  5  6 -1 -1</clus>
<clus scale="   92.929">  7  8 -1 -1</clus>
<clus scale="  103.820">  2  5  1 -1</clus>
<clus scale="   20.603">  2  5  1 -1</clus>
</clustering>
</event>
<event>
 9    1  0.1321469E-005  0.9238049E+02  0.7546771E-02  0.1297416E+00
          1   -1    0    0  502    0 -0.00000000000E+00  0.00000000000E+00  0.12338305264E+03  0.12338305264E+03  0.00000000000E+00 0. -1.
         21   -1    0    0  501  502  0.00000000000E+00 -0.00000000000E+00 -0.13115213205E+03  0.13115213205E+03  0.00000000000E+00 0.  1.
         23    2    1    2    0    0 -0.80921777896E+01  0.23295471839E+02  0.50560049902E+02  0.10649466772E+03  0.90424738079E+02 0.  0.
         23    2    1    2    0    0  0.19929939238E+02  0.11950961038E+02 -0.22509023112E+02  0.96411807570E+02  0.90821542432E+02 0.  0.
        -11    1    3    3    0    0  0.35072634160E+02  0.31484539825E+02  0.38708591775E+02  0.60989515428E+02  0.00000000000E+00 0. -1.
         11    1    3    3    0    0 -0.43164811950E+02 -0.81890679863E+01  0.11851458128E+02  0.45505152290E+02  0.00000000000E+00 0.  1.
        -13    1    4    4    0    0 -0.36413275364E+02  0.60288504747E+01 -0.11846669669E+02  0.38763607198E+02  0.00000000000E+00 0.  1.
         13    1    4    4    0    0  0.56343214602E+02  0.59221105629E+01 -0.10662353443E+02  0.57648200372E+02  0.00000000000E+00 0. -1.
          1    1    1    2  501    0 -0.11837761449E+02 -0.35246432876E+02 -0.35820106193E+02  0.51628709400E+02  0.00000000000E+00 0. -1.
<scales pt_clust_5="13000.00000" pt_clust_6="13000.00000" pt_clust_7="13000.00000" pt_clust_8="13000.00000" pt_clust_9="37.18123"></scales>
<clustering>
<clus scale="   37.181">  2  9  1 -1</clus>
<clus scale="   90.425">  5  6 -1 -1</clus>
<clus scale="   90.822">  7  8 -1 -1</clus>
<clus scale="   91.990">  1  5  2 -1</clus>
<clus scale="   37.181">  2  5  1 -1</clus>
</clustering>
</event>
<event>
 9    1  0.1321469E-005  0.9277339E+02  0.7546771E-02  0.1296330E+00
         21   -1    0    0  501  502  0.00000000000E+00  0.00000000000E+00  0.38677396851E+03  0.38677396851E+03  0.00000000000E+00 0.  1.
         -2   -1    0    0    0  501 -0.00000000000E+00 -0.00000000000E+00 -0.28621804720E+03  0.28621804720E+03  0.00000000000E+00 0.  1.
         23    2    1    2    0    0 -0.56924699077E+01  0.16633902717E+02 -0.24274966634E+03  0.26008517418E+03  0.91694091331E+02 0.  0.
         23    2    1    2    0    0 -0.43237973304E+02  0.18027157076E+02  0.51888606658E+02  0.11538468413E+03  0.91797043000E+02 0.  0.
        -11    1    3    3    0    0  0.26344105471E+02  0.43252903681E+02 -0.11340915587E+03  0.12420330996E+03  0.00000000000E+00 0. -1.
         11    1    3    3    0    0 -0.32036575378E+02 -0.26619000964E+02 -0.12934051047E+03  0.13588186422E+03  0.00000000000E+00 0.  1.
        -13    1    4    4    0    0  0.77602033655E+01  0.35019477881E+02  0.50079297939E+02  0.61599680757E+02  0.00000000000E+00 0. -1.
         13    1    4    4    0    0 -0.50998176669E+02 -0.16992320805E+02  0.18093087195E+01  0.53785003374E+02  0.00000000000E+00 0.  1.
         -2    1    1    2    0  502  0.48930443212E+02 -0.34661059793E+02  0.29141698099E+03  0.29752215741E+03  0.00000000000E+00 0.  1.
<scales pt_clust_5="13000.00000" pt_clust_6="13000.00000" pt_clust_7="13000.00000" pt_clust_8="13000.00000" pt_clust_9="59.96313"></scales>
<clustering>
<clus scale="   59.963">  1  9  2 -1</clus>
<clus scale="   91.694">  5  6 -1 -1</clus>
<clus scale="   91.797">  7  8 -1 -1</clus>
<clus scale="   92.672">  2  5  1 -1</clus>
<clus scale="   59.963">  1  5  2 -1</clus>
</clustering>
</event>
<event>
 9    1  0.1321469E-005  0.9141200E+02  0.7546771E-02  0.1300383E+00
         -3   -1    0    0    0  501 -0.00000000000E+00  0.00000000000E+00  0.45195078634E+02  0.45195078634E+02  0.00000000000E+00 0.  1.
         21   -1    0    0  501  502  0.00000000000E+00 -0.00000000000E+00 -0.45507681580E+03  0.45507681580E+03  0.00000000000E+00 0.  1.
         23    2    1    2    0    0 -0.20250571503E+02  0.43433915161E+01 -0.36028930621E+02  0.97969606953E+02  0.88718709125E+02 0.  0.
         23    2    1    2    0    0 -0.27230289595E+01  0.25361147809E+02 -0.16242068384E+03  0.18756130750E+03  0.90267174680E+02 0.  0.
        -11    1    3    3    0    0 -0.31530620959E+02 -0.36746495164E+02 -0.17190253697E+02  0.51380830930E+02  0.00000000000E+00 0. -1.
         11    1    3    3    0    0  0.11280049456E+02  0.41089886680E+02 -0.18838676924E+02  0.46588776023E+02  0.00000000000E+00 0.  1.
        -13    1    4    4    0    0 -0.12101118745E+02  0.54234827026E+02 -0.64975446813E+02  0.85496562656E+02  0.00000000000E+00 0.  1.
         13    1    4    4    0    0  0.93780897854E+01 -0.28873679217E+02 -0.97445237029E+02  0.10206474484E+03  0.00000000000E+00 0. -1.
         -3    1    1    2    0  502  0.22973600462E+02 -0.29704539325E+02 -0.21143212270E+03  0.21474097999E+03  0.00000000000E+00 0.  1.
<scales pt_clust_5="13000.00000" pt_clust_6="13000.00000" pt_clust_7="13000.00000" pt_clust_8="13000.00000" pt_clust_9="37.55191"></scales>
<clustering>
<clus scale="   37.552">  2  9  1 -1</clus>
<clus scale="   88.719">  5  6 -1 -1</clus>
<clus scale="   89.883">  1  5  2 -1</clus>
<clus scale="   90.267">  7  8 -1 -1</clus>
<clus scale="   37.552">  2  5  1 -1</clus>
</clustering>
</event>
<event>
 9    1  0.1321469E-005  0.1042253E+03  0.7546771E-02  0.1273620E+00
          2   -1    0    0  502    0 -0.00000000000E+00  0.00000000000E+00  0.58646231586E+03  0.58646231586E+03  0.00000000000E+00 0. -1.
         21   -1    0    0  501  502  0.00000000000E+00 -0.00000000000E+00 -0.46820490462E+02  0.46820490462E+02  0.00000000000E+00 0.  1.
         23    2    1    2    0    0 -0.48493956284E+02 -0.39446162704E+01  0.26802968633E+03  0.28724990749E+03  0.91133818131E+02 0.  0.
         23    2    1    2    0    0  0.15631089610E+02 -0.54941358546E+02  0.65205700377E+02  0.12888975717E+03  0.95382924574E+02 0.  0.
        -13    1    4    4    0    0 -0.26269392092E+00 -0.68990675068E+02  0.99537460974E+01  0.69705518547E+02  0.00000000000E+00 0.  1.
         13    1    4    4    0    0  0.15893783531E+02  0.14049316522E+02  0.55251954280E+02  0.59184238623E+02  0.00000000000E+00 0. -1.
        -13    1    3    3    0    0  0.21914929395E+02 -0.56833461095E+01  0.22896925378E+02  0.32199902874E+02  0.00000000000E+00 0.  1.
         13    1    3    3    0    0 -0.70408885679E+02  0.17387298391E+01  0.24513276095E+03  0.25505000462E+03  0.00000000000E+00 0. -1.
          2    1    1    2  501    0  0.32862866674E+02  0.58885974817E+02  0.20640643869E+03  0.21714314166E+03  0.00000000000E+00 0. -1.
<scales pt_clust_5="13000.00000" pt_clust_6="13000.00000" pt_clust_7="13000.00000" pt_clust_8="13000.00000" pt_clust_9="67.43538"></scales>
<clustering>
<clus scale="   67.435">  2  9  1 -1</clus>
<clus scale="   91.134">  7  8 -1 -1</clus>
<clus scale="   95.383">  5  6 -1 -1</clus>
<clus scale="  100.351">  1  7  2 -1</clus>
<clus scale="   67.435">  2  5  1 -1</clus>
</clustering>
</event>
<event>
 9    1  0.1321469E-005  0.9673190E+02  0.7546771E-02  0.1287775E+00
         -1   -1    0    0    0  501 -0.00000000000E+00  0.00000000000E+00  0.61069972018E+03  0.61069972018E+03  0.00000000000E+00 0.  1.
         21   -1    0    0  501  502  0.00000000000E+00 -0.00000000000E+00 -0.19958478100E+02  0.19958478100E+02  0.00000000000E+00 0. -1.
         23    2    1    2    0    0  0.23266081305E+02  0.11904817053E+02  0.28995560803E+03  0.30465754289E+03  0.89771535592E+02 0.  0.
         23    2    1    2    0    0 -0.31312637320E+02 -0.33896138663E+02  0.23137925120E+03  0.25275032249E+03  0.90647328484E+02 0.  0.
        -13    1    4    4    0    0  0.34121416068E+01  0.20536368979E+02  0.11916801046E+02  0.23987398950E+02  0.00000000000E+00 0. -1.
         13    1    4    4    0    0 -0.34724778927E+02 -0.54432507642E+02  0.21946245015E+03  0.22876292354E+03  0.00000000000E+00 0.  1.
        -13    1    3    3    0    0  0.76906165098E+01 -0.39219040971E+02  0.13066187974E+03  0.13663749695E+03  0.00000000000E+00 0.  1.
         13    1    3    3    0    0  0.15575464795E+02  0.51123858024E+02  0.15929372829E+03  0.16802004593E+03  0.00000000000E+00 0. -1.
         -1    1    1    2    0  502  0.80465560149E+01  0.21991321610E+02  0.69406382858E+02  0.73250332909E+02  0.00000000000E+00 0.  1.
<scales pt_clust_5="13000.00000" pt_clust_6="13000.00000" pt_clust_7="13000.00000" pt_clust_8="13000.00000" pt_clust_9="23.41721"></scales>
<clustering>
<clus scale="   23.417">  2  9  1 -1</clus>
<clus scale="   89.772">  7  8 -1 -1</clus>
<clus scale="   90.647">  5  6 -1 -1</clus>
<clus scale="   95.912">  1  7  2 -1</clus>
<clus scale="   23.417">  2  5  1 -1</clus>
</clustering>
</event>
<event>
 9    1  0.1321469E-005  0.1325871E+03  0.7546771E-02  0.1238531E+00
          1   -1    0    0  502    0 -0.00000000000E+00  0.00000000000E+00  0.31624444184E+03  0.31624444184E+03  0.00000000000E+00 0. -1.
         21   -1    0    0  501  502  0.00000000000E+00 -0.00000000000E+00 -0.11580109549E+03  0.11580109549E+03  0.00000000000E+00 0. -1.
         23    2    1    2    0    0  0.23968976791E+02 -0.14389123313E+01  0.37360925474E+02  0.10450381121E+03  0.94597174836E+02 0.  0.
         23    2    1    2    0    0 -0.31397587405E+02 -0.99354651032E+02  0.18014468888E+03  0.22504466441E+03  0.85649500112E+02 0.  0.
        -13    1    3    3    0    0 -0.24629664057E+02  0.10782356974E+02 -0.16011662135E+02  0.31293016757E+02  0.00000000000E+00 0.  1.
         13    1    3    3    0    0  0.48598640848E+02 -0.12221269305E+02  0.53372587608E+02  0.73210794448E+02  0.00000000000E+00 0. -1.
        -13    1    4    4    0    0  0.92456246624E+01 -0.19467734943E+02 -0.23971858806E+01  0.21684574687E+02  0.00000000000E+00 0.  1.
         13    1    4    4    0    0 -0.40643212067E+02 -0.79886916089E+02  0.18254187476E+03  0.20336008972E+03  0.00000000000E+00 0. -1.
          1    1    1    2  501    0  0.74286106136E+01  0.10079356336E+03 -0.17062268001E+02  0.10249706172E+03  0.00000000000E+00 0. -1.
<scales pt_clust_5="13000.00000" pt_clust_6="13000.00000" pt_clust_7="13000.00000" pt_clust_8="13000.00000" pt_clust_9="101.21023"></scales>
<clustering>
<clus scale="   85.650">  7  8 -1 -1</clus>
<clus scale="   94.597">  5  6 -1 -1</clus>
<clus scale="   97.597">  1  5  2 -1</clus>
<clus scale="  101.210">  2  9  1 -1</clus>
<clus scale="  101.210">  2  5  1 -1</clus>
</clustering>
</event>
<event>
 9    1  0.1321469E-005  0.9313627E+02  0.7546771E-02  0.1296926E+00
         21   -1    0    0  501  502  0.00000000000E+00  0.00000000000E+00  0.18118388335E+03  0.18118388335E+03  0.00000000000E+00 0.  1.
          1   -1    0    0  502    0 -0.00000000000E+00 -0.00000000000E+00 -0.25947813252E+03  0.25947813252E+03  0.00000000000E+00 0. -1.
         23    2    1    2    0    0 -0.68074663226E+01  0.11508771508E+02 -0.22216872020E+03  0.24097058442E+03  0.92353066551E+02 0.  0.
         23    2    1    2    0    0  0.26366623192E+02  0.24711815459E+02  0.92690027469E+02  0.13400780487E+03  0.89781835202E+02 0.  0.
        -11    1    3    3    0    0  0.30016117247E+01 -0.40355787740E+02 -0.91983387208E+02  0.10049150611E+03  0.00000000000E+00 0.  1.
         11    1    3    3    0    0 -0.98090780473E+01  0.51864559248E+02 -0.13018533299E+03  0.14047907831E+03  0.00000000000E+00 0. -1.
        -13    1    4    4    0    0 -0.27178709773E+02 -0.66879407893E+01  0.54115572215E+02  0.60925413196E+02  0.00000000000E+00 0.  1.
         13    1    4    4    0    0  0.53545332965E+02  0.31399756248E+02  0.38574455254E+02  0.73082391675E+02  0.00000000000E+00 0. -1.
          1    1    1    2  501    0 -0.19559156870E+02 -0.36220586967E+02  0.51184443564E+02  0.65683626580E+02  0.00000000000E+00 0. -1.
<scales pt_clust_5="13000.00000" pt_clust_6="13000.00000" pt_clust_7="13000.00000" pt_clust_8="13000.00000" pt_clust_9="41.16420"></scales>
<clustering>
<clus scale="   41.164">  1  9  2 -1</clus>
<clus scale="   89.782">  7  8 -1 -1</clus>
<clus scale="   90.587">  1  7  2 -1</clus>
<clus scale="   92.353">  5  6 -1 -1</clus>
<clus scale="   41.164">  1  5  2 -1</clus>
</clustering>
</event>
<event>
 9    1  0.1321469E-005  0.1133501E+03  0.7546771E-02  0.1257352E+00
         21   -1    0    0  501  502  0.00000000000E+00  0.00000000000E+00  0.39180339900E+03  0.39180339900E+03  0.00000000000E+00 0. -1.
          1   -1    0    0  502    0 -0.00000000000E+00 -0.00000000000E+00 -0.52823040106E+03  0.52823040106E+03  0.00000000000E+00 0. -1.
         23    2    1    2    0    0 -0.56483010205E+02 -0.30680030858E+02 -0.47532274467E+03  0.48815608685E+03  0.90736204415E+02 0.  0.
         23    2    1    2    0    0 -0.16222089533E+02 -0.46472007777E+02  0.43440664932E+02  0.11797936737E+03  0.98026710952E+02 0.  0.
        -11    1    3    3    0    0  0.18537111477E+02 -0.31032526795E+02 -0.14946550513E+03  0.15377444341E+03  0.00000000000E+00 0.  1.
         11    1    3    3    0    0 -0.75020121682E+02  0.35249593779E+00 -0.32585723953E+03  0.33438164344E+03  0.00000000000E+00 0. -1.
        -11    1    4    4    0    0  0.40336799367E-01  0.30753538235E+02  0.13139608563E+02  0.33442952236E+02  0.00000000000E+00 0.  1.
         11    1    4    4    0    0 -0.16262426332E+02 -0.77225546012E+02  0.30301056368E+02  0.84536415136E+02  0.00000000000E+00 0. -1.
          1    1    1    2  501    0  0.72705099738E+02  0.77152038635E+02  0.29545507768E+03  0.31389834584E+03  0.00000000000E+00 0. -1.
<scales pt_clust_5="13000.00000" pt_clust_6="13000.00000" pt_clust_7="13000.00000" pt_clust_8="13000.00000" pt_clust_9="106.01164"></scales>
<clustering>
<clus scale="   90.736">  5  6 -1 -1</clus>
<clus scale="   98.027">  7  8 -1 -1</clus>
<clus scale="  106.012">  1  9  2 -1</clus>
<clus scale="  107.108">  2  5  1 -1</clus>
<clus scale="  106.012">  1  5  2 -1</clus>
</clustering>
</event>
<event>
 9    1  0.1321469E-005  0.1110628E+03  0.7546771E-02  0.1264970E+00
         21   -1    0    0  501  502  0.00000000000E+00  0.00000000000E+00  0.69081785321E+02  0.69081785321E+02  0.00000000000E+00 0.  1.
          2   -1    0    0  502    0 -0.00000000000E+00 -0.00000000000E+00 -0.29795072574E+03  0.29795072574E+03  0.00000000000E+00 0. -1.
         23    2    1    2    0    0 -0.12124039640E+02  0.33200315363E+02 -0.18470735518E+03  0.21463216183E+03  0.10344517658E+03 0.  0.
         23    2    1    2    0    0  0.39622868202E+02 -0.36819417186E+02 -0.60018367175E+02  0.12045162463E+03  0.89335034063E+02 0.  0.
        -11    1    3    3    0    0  0.31867096193E+02  0.68862050373E+01 -0.12432475328E+02  0.34892665165E+02  0.00000000000E+00 0.  1.
         11    1    3    3    0    0 -0.43991135832E+02  0.26314110325E+02 -0.17227487985E+03  0.17973949666E+03  0.00000000000E+00 0. -1.
        -11    1    4    4    0    0  0.66707937376E+02 -0.15534509769E+02 -0.30059120339E+02  0.74798533530E+02  0.00000000000E+00 0.  1.
         11    1    4    4    0    0 -0.27085069174E+02 -0.21284907416E+02 -0.29959246836E+02  0.45653091099E+02  0.00000000000E+00 0. -1.
          2    1    1    2  501    0 -0.27498828562E+02  0.36191018232E+01  0.15856781935E+02  0.31948724601E+02  0.00000000000E+00 0. -1.
<scales pt_clust_5="13000.00000" pt_clust_6="13000.00000" pt_clust_7="13000.00000" pt_clust_8="13000.00000" pt_clust_9="27.73596"></scales>
<clustering>
<clus scale="   27.736">  1  9  2 -1</clus>
<clus scale="   89.335">  7  8 -1 -1</clus>
<clus scale="   98.055">  1  7  2 -1</clus>
<clus scale="  103.445">  5  6 -1 -1</clus>
<clus scale="   27.736">  1  5  2 -1</clus>
</clustering>
</event>
<event>
 9    1  0.1321469E-005  0.1065177E+03  0.7546771E-02  0.1268310E+00
          1   -1    0    0  502    0 -0.00000000000E+00  0.00000000000E+00  0.44697886390E+03  0.44697886390E+03  0.00000000000E+00 0. -1.
         21   -1    0    0  501  502  0.00000000000E+00 -0.00000000000E+00 -0.16173116207E+03  0.16173116207E+03  0.00000000000E+00 0. -1.
         23    2    1    2    0    0  0.47811029461E+02  0.42929990736E+02  0.30193458872E+03  0.32142042942E+03  0.89541710625E+02 0.  0.
         23    2    1    2    0    0 -0.27130525192E+02 -0.18832999459E+02  0.11542282628E+03  0.15141713958E+03  0.92271198471E+02 0.  0.
        -11    1    3    3    0    0  0.66872291723E+02  0.71055800717E+01  0.21895986831E+03  0.22905417830E+03  0.00000000000E+00 0.  1.
         11    1    3    3    0    0 -0.19061262262E+02  0.35824410664E+02  0.82974720412E+02  0.92366251120E+02  0.00000000000E+00 0. -1.
        -13    1    4    4    0    0  0.18317731660E+02  0.12826380511E+02  0.85676305785E+02  0.88546511524E+02  0.00000000000E+00 0. -1.
         13    1    4    4    0    0 -0.45448256852E+02 -0.31659379970E+02  0.29746520496E+02  0.62870628059E+02  0.00000000000E+00 0.  1.
          1    1    1    2  501    0 -0.20680504270E+02 -0.24096991276E+02 -0.13210971317E+03  0.13587245696E+03  0.00000000000E+00 0. -1.
<scales pt_clust_5="13000.00000" pt_clust_6="13000.00000" pt_clust_7="13000.00000" pt_clust_8="13000.00000" pt_clust_9="31.75450"></scales>
<clustering>
<clus scale="   31.754">  2  9  1 -1</clus>
<clus scale="   89.542">  5  6 -1 -1</clus>
<clus scale="   92.271">  7  8 -1 -1</clus>
<clus scale="  104.162">  1  5  2 -1</clus>
<clus scale="   31.754">  2  5  1 -1</clus>
</clustering>
</event>
<event>
 9    1  0.1321469E-005  0.1092335E+03  0.7546771E-02  0.1262853E+00
         21   -1    0    0  501  502  0.00000000000E+00  0.00000000000E+00  0.15465144786E+03  0.15465144786E+03  0.00000000000E+00 0.  1.
         -2   -1    0    0    0  501 -0.00000000000E+00 -0.00000000000E+00 -0.19064762187E+03  0.19064762187E+03  0.00000000000E+00 0.  1.
         23    2    1    2    0    0  0.64478433109E+02  0.95754423555E+01 -0.12499952497E+03  0.16715128468E+03  0.89808202827E+02 0.  0.
         23    2    1    2    0    0 -0.40784185403E+02 -0.61249934885E+01  0.16941275658E+02  0.10221185370E+03  0.91974947085E+02 0.  0.
        -11    1    3    3    0    0 -0.44360609433E+01 -0.26564214861E+02 -0.59972610951E+02  0.65742301543E+02  0.00000000000E+00 0. -1.
         11    1    3    3    0    0  0.68914494052E+02  0.36139657216E+02 -0.65026914020E+02  0.10140898314E+03  0.00000000000E+00 0.  1.
        -11    1    4    4    0    0  0.27270087659E+02 -0.13928724827E+02 -0.32614373296E+01  0.30794545454E+02  0.00000000000E+00 0.  1.
         11    1    4    4    0    0 -0.68054273062E+02  0.78037313387E+01  0.20202712987E+02  0.71417308244E+02  0.00000000000E+00 0. -1.
         -2    1    1    2    0  502 -0.23694247706E+02 -0.34504488671E+01  0.72062075310E+02  0.75935931349E+02  0.00000000000E+00 0.  1.
<scales pt_clust_5="13000.00000" pt_clust_6="13000.00000" pt_clust_7="13000.00000" pt_clust_8="13000.00000" pt_clust_9="23.94416"></scales>
<clustering>
<clus scale="   23.944">  1  9  2 -1</clus>
<clus scale="   89.808">  5  6 -1 -1</clus>
<clus scale="   91.975">  7  8 -1 -1</clus>
<clus scale="  107.415">  2  5  1 -1</clus>
<clus scale="   23.944">  1  5  2 -1</clus>
</clustering>
</event>
<event>
 9    1  0.1321469E-005  0.1060070E+03  0.7546771E-02  0.1268206E+00
          1   -1    0    0  502    0 -0.00000000000E+00  0.00000000000E+00  0.48152462533E+03  0.48152462533E+03  0.00000000000E+00 0. -1.
         21   -1    0    0  501  502  0.00000000000E+00 -0.00000000000E+00 -0.52460477303E+02  0.52460477303E+02  0.00000000000E+00 0.  1.
         23    2    1    2    0    0 -0.59758800634E+02 -0.95738390185E+01  0.28447545605E+03  0.30455603354E+03  0.90362159266E+02 0.  0.
         23    2    1    2    0    0  0.39629319565E+02  0.35142715420E+02  0.16175283503E+03  0.19263815643E+03  0.90221872367E+02 0.  0.
        -11    1    4    4    0    0  0.35293437319E+01  0.36170880526E+02  0.15047804223E+03  0.15480448979E+03  0.00000000000E+00 0.  1.
         11    1    4    4    0    0  0.36099975833E+02 -0.10281651060E+01  0.11274792807E+02  0.37833666641E+02  0.00000000000E+00 0. -1.
        -13    1    3    3    0    0 -0.21435552633E+01 -0.32356423463E+02  0.35905726825E+02  0.48381341313E+02  0.00000000000E+00 0. -1.
         13    1    3    3    0    0 -0.57615245371E+02  0.22782584444E+02  0.24856972922E+03  0.25617469223E+03  0.00000000000E+00 0.  1.
          1    1    1    2  501    0  0.20129481069E+02 -0.25568876401E+02 -0.17164143048E+02  0.36790912671E+02  0.00000000000E+00 0. -1.
<scales pt_clust_5="13000.00000" pt_clust_6="13000.00000" pt_clust_7="13000.00000" pt_clust_8="13000.00000" pt_clust_9="32.54172"></scales>
<clustering>
<clus scale="   32.542">  2  9  1 -1</clus>
<clus scale="   90.222">  5  6 -1 -1</clus>
<clus scale="   90.362">  7  8 -1 -1</clus>
<clus scale="  105.887">  2  5  1 -1</clus>
<clus scale="   32.542">  2  5  1 -1</clus>
</clustering>
</event>
<event>
 9    1  0.1321469E-005  0.1021278E+03  0.7546771E-02  0.1275984E+00
          2   -1    0    0  502    0 -0.00000000000E+00  0.00000000000E+00  0.18670116748E+03  0.18670116748E+03  0.00000000000E+00 0. -1.
         21   -1    0    0  501  502  0.00000000000E+00 -0.00000000000E+00 -0.31022109593E+03  0.31022109593E+03  0.00000000000E+00 0.  1.
         23    2    1    2    0    0 -0.26833885415E+02  0.44432440102E+02  0.15225921764E+03  0.18394904005E+03  0.89219285123E+02 0.  0.
         23    2    1    2    0    0  0.35625100206E+02 -0.13352667147E+02 -0.12144420808E+03  0.15529471869E+03  0.88996137507E+02 0.  0.
        -13    1    4    4    0    0  0.50966106100E+01  0.32054821377E+02 -0.15311056719E+02  0.35887539217E+02  0.00000000000E+00 0. -1.
         13    1    4    4    0    0  0.30528489596E+02 -0.45407488524E+02 -0.10613315136E+03  0.11940717947E+03  0.00000000000E+00 0.  1.
        -13    1    3    3    0    0 -0.21728595396E+02  0.23086969208E+02  0.15809204507E+03  0.16123968097E+03  0.00000000000E+00 0. -1.
         13    1    3    3    0    0 -0.51052900191E+01  0.21345470895E+02 -0.58328274285E+01  0.22709359077E+02  0.00000000000E+00 0.  1.
          2    1    1    2  501    0 -0.87912147907E+01 -0.31079772955E+02 -0.15433493801E+03  0.15767850467E+03  0.00000000000E+00 0. -1.
<scales pt_clust_5="13000.00000" pt_clust_6="13000.00000" pt_clust_7="13000.00000" pt_clust_8="13000.00000" pt_clust_9="32.29919"></scales>
<clustering>
<clus scale="   32.299">  2  9  1 -1</clus>
<clus scale="   88.996">  5  6 -1 -1</clus>
<clus scale="   89.219">  7  8 -1 -1</clus>
<clus scale="  101.933">  2  5  1 -1</clus>
<clus scale="   32.299">  2  5  1 -1</clus>
</clustering>
</event>
<event>
 9    1  0.1321469E-005  0.2545655E+03  0.7546771E-02  0.1110768E+00
         -3   -1    0    0    0  501 -0.00000000000E+00  0.00000000000E+00  0.23750643204E+03  0.23750643204E+03  0.00000000000E+00 0.  1.
         21   -1    0    0  501  502  0.00000000000E+00 -0.00000000000E+00 -0.33506119791E+03  0.33506119791E+03  0.00000000000E+00 0. -1.
         23    2    1    2    0    0 -0.24079704189E+03  0.18299538111E+02  0.85093739962E+01  0.25560672261E+03  0.83332458964E+02 0.  0.
         23    2    1    2    0    0  0.23484514867E+03  0.27119411239E+02 -0.93597537129E+02  0.26948752346E+03  0.89304647261E+02 0.  0.
        -11    1    3    3    0    0 -0.44127456467E+02 -0.93772842643E+01  0.32436100868E+02  0.55563175881E+02  0.00000000000E+00 0. -1.
         11    1    3    3    0    0 -0.19666958543E+03  0.27676822375E+02 -0.23926726872E+02  0.20004354673E+03  0.00000000000E+00 0.  1.
        -13    1    4    4    0    0  0.16404169828E+02 -0.21738033778E+02 -0.99687318003E+00  0.27251287243E+02  0.00000000000E+00 0.  1.
         13    1    4    4    0    0  0.21844097884E+03  0.48857445017E+02 -0.92600663949E+02  0.24223623621E+03  0.00000000000E+00 0. -1.
         -3    1    1    2    0  502  0.59518932239E+01 -0.45418949350E+02 -0.12466602739E+02  0.47473383878E+02  0.00000000000E+00 0.  1.
<scales pt_clust_5="13000.00000" pt_clust_6="13000.00000" pt_clust_7="13000.00000" pt_clust_8="13000.00000" pt_clust_9="45.80727"></scales>
<clustering>
<clus scale="   45.807">  2  9  1 -1</clus>
<clus scale="   83.332">  5  6 -1 -1</clus>
<clus scale="   89.305">  7  8 -1 -1</clus>
<clus scale="  252.532">  1  5  2 -1</clus>
<clus scale="   45.807">  2  5  1 -1</clus>
</clustering>
</event>
<event>
 9    1  0.1321469E-005  0.1135246E+03  0.7546771E-02  0.1254253E+00
          1   -1    0    0  502    0 -0.00000000000E+00  0.00000000000E+00  0.24369919568E+03  0.24369919568E+03  0.00000000000E+00 0. -1.
         21   -1    0    0  501  502  0.00000000000E+00 -0.00000000000E+00 -0.79702317691E+02  0.79702317691E+02  0.00000000000E+00 0. -1.
         23    2    1    2    0    0 -0.32373060341E+02 -0.65409371987E+02  0.14228855778E+03  0.18413926870E+03  0.91295320922E+02 0.  0.
         23    2    1    2    0    0  0.47130231238E+01  0.57776669271E+02  0.22169530595E+02  0.11056470951E+03  0.91502518014E+02 0.  0.
        -13    1    4    4    0    0  0.45810005449E+02  0.22149326108E+02  0.23746258669E+02  0.56151883736E+02  0.00000000000E+00 0.  1.
         13    1    4    4    0    0 -0.41096982326E+02  0.35627343163E+02 -0.15767280739E+01  0.54412825772E+02  0.00000000000E+00 0. -1.
        -13    1    3    3    0    0 -0.11769431832E+02 -0.80428801769E+02  0.69270194473E+02  0.10679733855E+03  0.00000000000E+00 0. -1.
         13    1    3    3    0    0 -0.20603628508E+02  0.15019429782E+02  0.73018363306E+02  0.77341930146E+02  0.00000000000E+00 0.  1.
          1    1    1    2  501    0  0.27660037217E+02  0.76327027163E+01 -0.46121038399E+00  0.28697535166E+02  0.00000000000E+00 0. -1.
<scales pt_clust_5="13000.00000" pt_clust_6="13000.00000" pt_clust_7="13000.00000" pt_clust_8="13000.00000" pt_clust_9="28.69383"></scales>
<clustering>
<clus scale="   28.694">  2  9  1 -1</clus>
<clus scale="   91.295">  7  8 -1 -1</clus>
<clus scale="   91.503">  5  6 -1 -1</clus>
<clus scale="  113.358">  1  7  2 -1</clus>
<clus scale="   28.694">  2  5  1 -1</clus>
</clustering>
</event>
<event>
 9    1  0.1321469E-005  0.1447223E+03  0.7546771E-02  0.1208492E+00
         21   -1    0    0  501  502  0.00000000000E+00  0.00000000000E+00  0.11820733705E+03  0.11820733705E+03  0.00000000000E+00 0.  1.
          2   -1    0    0  502    0 -0.00000000000E+00 -0.00000000000E+00 -0.35751238095E+03  0.35751238095E+03  0.00000000000E+00 0. -1.
         23    2    1    2    0    0  0.30304841004E+01 -0.98499415964E+02 -0.22349174019E+03  0.26310484303E+03  0.97797145745E+02 0.  0.
         23    2    1    2    0    0  0.13607177278E+02  0.13253900048E+03 -0.41499578350E+02  0.16684053942E+03  0.91442925745E+02 0.  0.
        -11    1    3    3    0    0 -0.21574048600E+02 -0.94647491127E+02 -0.21645376060E+03  0.23722524661E+03  0.00000000000E+00 0. -1.
         11    1    3    3    0    0  0.24604532700E+02 -0.38519248368E+01 -0.70379795830E+01  0.25879596422E+02  0.00000000000E+00 0.  1.
        -13    1    4    4    0    0 -0.10515976885E+02  0.96884664328E+02 -0.65627867355E+02  0.11749145044E+03  0.00000000000E+00 0. -1.
         13    1    4    4    0    0  0.24123154163E+02  0.35654336154E+02  0.24128289006E+02  0.49349088986E+02  0.00000000000E+00 0.  1.
          2    1    1    2  501    0 -0.16637661379E+02 -0.34039584518E+02  0.25686274630E+02  0.45774335546E+02  0.00000000000E+00 0. -1.
<scales pt_clust_5="13000.00000" pt_clust_6="13000.00000" pt_clust_7="13000.00000" pt_clust_8="13000.00000" pt_clust_9="37.88806"></scales>
<clustering>
<clus scale="   37.888">  1  9  2 -1</clus>
<clus scale="   91.443">  7  8 -1 -1</clus>
<clus scale="   97.797">  5  6 -1 -1</clus>
<clus scale="  140.506">  1  7  2 -1</clus>
<clus scale="   37.888">  1  5  2 -1</clus>
</clustering>
</event>
<event>
 9    1  0.1321469E-005  0.4115726E+03  0.7546771E-02  0.1039932E+00
         21   -1    0    0  501  502  0.00000000000E+00  0.00000000000E+00  0.78075027024E+03  0.78075027024E+03  0.00000000000E+00 0.  1.
          1   -1    0    0  502    0 -0.00000000000E+00 -0.00000000000E+00 -0.29842406385E+03  0.29842406385E+03  0.00000000000E+00 0. -1.
         23    2    1    2    0    0  0.37017209940E+03 -0.11064466509E+03  0.60752792573E+02  0.40245750618E+03  0.94929012371E+02 0.  0.
         23    2    1    2    0    0 -0.40710117581E+03  0.11570501137E+03  0.24713908696E+03  0.49834446970E+03  0.90279926706E+02 0.  0.
        -13    1    3    3    0    0  0.29179756993E+03 -0.51990817864E+02  0.22117496318E+02  0.29721717750E+03  0.00000000000E+00 0.  1.
         13    1    3    3    0    0  0.78374529475E+02 -0.58653847225E+02  0.38635296255E+02  0.10524032868E+03  0.00000000000E+00 0. -1.
        -13    1    4    4    0    0 -0.41141207845E+02  0.36473143987E+02  0.12248411665E+02  0.56328614429E+02  0.00000000000E+00 0.  1.
         13    1    4    4    0    0 -0.36595996797E+03  0.79231867386E+02  0.23489067530E+03  0.44201585527E+03  0.00000000000E+00 0. -1.
          1    1    1    2  501    0  0.36929076410E+02 -0.50603462839E+01  0.17443432686E+03  0.17837235822E+03  0.00000000000E+00 0. -1.
<scales pt_clust_5="13000.00000" pt_clust_6="13000.00000" pt_clust_7="13000.00000" pt_clust_8="13000.00000" pt_clust_9="37.27417"></scales>
<clustering>
<clus scale="   37.274">  1  9  2 -1</clus>
<clus scale="   90.280">  7  8 -1 -1</clus>
<clus scale="   94.929">  5  6 -1 -1</clus>
<clus scale="  410.525">  1  7  2 -1</clus>
<clus scale="   37.274">  1  5  2 -1</clus>
</clustering>
</event>
<event>
 9    1  0.1321469E-005  0.1730403E+03  0.7546771E-02  0.1174720E+00
         21   -1    0    0  501  502  0.00000000000E+00  0.00000000000E+00  0.10102807228E+03  0.10102807228E+03  0.00000000000E+00 0.  1.
         -3   -1    0    0    0  501 -0.00000000000E+00 -0.00000000000E+00 -0.58007774918E+03  0.58007774918E+03  0.00000000000E+00 0.  1.
         23    2    1    2    0    0 -0.10857197289E+03 -0.94856544579E+02 -0.42913593977E+03  0.46189737011E+03  0.91683631949E+02 0.  0.
         23    2    1    2    0    0  0.10533027755E+03  0.11748921529E+03 -0.62730217453E+02  0.19299760358E+03  0.91732282909E+02 0.  0.
        -11    1    4    4    0    0  0.52000145296E+02  0.51857101296E+02 -0.77923679345E+02  0.10707601911E+03  0.00000000000E+00 0.  1.
         11    1    4    4    0    0  0.53330132254E+02  0.65632113998E+02  0.15193461892E+02  0.85921584473E+02  0.00000000000E+00 0. -1.
        -11    1    3    3    0    0 -0.78663560173E+02 -0.15713440112E+02 -0.27005538373E+03  0.28171755036E+03  0.00000000000E+00 0.  1.
         11    1    3    3    0    0 -0.29908412719E+02 -0.79143104467E+02 -0.15908055604E+03  0.18017981975E+03  0.00000000000E+00 0. -1.
         -3    1    1    2    0  502  0.32416953415E+01 -0.22632670715E+02  0.12816480326E+02  0.26210847761E+02  0.00000000000E+00 0.  1.
<scales pt_clust_5="13000.00000" pt_clust_6="13000.00000" pt_clust_7="13000.00000" pt_clust_8="13000.00000" pt_clust_9="22.86365"></scales>
<clustering>
<clus scale="   22.864">  1  9  2 -1</clus>
<clus scale="   91.684">  7  8 -1 -1</clus>
<clus scale="   91.732">  5  6 -1 -1</clus>
<clus scale="  173.015">  2  7  1 -1</clus>
<clus scale="   22.864">  1  5  2 -1</clus>
</clustering>
</event>
<event>
 9    1  0.1321469E-005  0.1040839E+03  0.7546771E-02  0.1272705E+00
          1   -1    0    0  502    0 -0.00000000000E+00  0.00000000000E+00  0.20324760080E+03  0.20324760080E+03  0.00000000000E+00 0. -1.
         21   -1    0    0  501  502  0.00000000000E+00 -0.00000000000E+00 -0.13195137604E+03  0.13195137604E+03  0.00000000000E+00 0.  1.
         23    2    1    2    0    0  0.33786815668E+02 -0.41250436343E+02  0.15122863896E+03  0.18487149534E+03  0.92001201816E+02 0.  0.
         23    2    1    2    0    0 -0.18620626566E+02  0.22516380077E+02 -0.38490338286E+02  0.10238560198E+03  0.90264003052E+02 0.  0.
        -11    1    4    4    0    0  0.18703184267E+02  0.46759240837E+02 -0.19762387434E+02  0.54099793552E+02  0.00000000000E+00 0.  1.
         11    1    4    4    0    0 -0.37323810833E+02 -0.24242860759E+02 -0.18727950852E+02  0.48285808433E+02  0.00000000000E+00 0. -1.
        -13    1    3    3    0    0  0.30065447572E+02 -0.63322497274E+02  0.14589517542E+03  0.16186127397E+03  0.00000000000E+00 0. -1.
         13    1    3    3    0    0  0.37213680960E+01  0.22072060931E+02  0.53334635376E+01  0.23010221372E+02  0.00000000000E+00 0.  1.
          1    1    1    2  501    0 -0.15166189101E+02  0.18734056265E+02 -0.41442075913E+02  0.47941879520E+02  0.00000000000E+00 0. -1.
<scales pt_clust_5="13000.00000" pt_clust_6="13000.00000" pt_clust_7="13000.00000" pt_clust_8="13000.00000" pt_clust_9="24.10349"></scales>
<clustering>
<clus scale="   24.103">  2  9  1 -1</clus>
<clus scale="   90.264">  5  6 -1 -1</clus>
<clus scale="   92.001">  7  8 -1 -1</clus>
<clus scale="  102.552">  2  5  1 -1</clus>
<clus scale="   24.103">  2  5  1 -1</clus>
</clustering>
</event>
<event>
 9    1  0.1321469E-005  0.9772963E+02  0.7546771E-02  0.1285265E+00
         21   -1    0    0  501  502  0.00000000000E+00  0.00000000000E+00  0.62530137892E+02  0.62530137892E+02  0.00000000000E+00 0. -1.
          1   -1    0    0  502    0 -0.00000000000E+00 -0.00000000000E+00 -0.73912236784E+03  0.73912236784E+03  0.00000000000E+00 0. -1.
         23    2    1    2    0    0  0.27196471768E+02 -0.19859759453E+01 -0.38494407347E+03  0.39700047829E+03  0.93187165903E+02 0.  0.
         23    2    1    2    0    0  0.14269306873E+02  0.69065938372E+02 -0.30314344278E+03  0.32495714828E+03  0.93421005953E+02 0.  0.
        -11    1    4    4    0    0 -0.28419850376E+02  0.46054418859E+02 -0.79869848160E+02  0.96477406873E+02  0.00000000000E+00 0.  1.
         11    1    4    4    0    0  0.42689157249E+02  0.23011519513E+02 -0.22327359462E+03  0.22847974140E+03  0.00000000000E+00 0. -1.
        -13    1    3    3    0    0 -0.23927291250E+02  0.27978919001E+02 -0.12050480495E+03  0.12600294914E+03  0.00000000000E+00 0. -1.
         13    1    3    3    0    0  0.51123763018E+02 -0.29964894946E+02 -0.26443926852E+03  0.27099752916E+03  0.00000000000E+00 0.  1.
          1    1    1    2  501    0 -0.41465778641E+02 -0.67079962427E+02  0.11495286302E+02  0.79694879162E+02  0.00000000000E+00 0. -1.
<scales pt_clust_5="13000.00000" pt_clust_6="13000.00000" pt_clust_7="13000.00000" pt_clust_8="13000.00000" pt_clust_9="78.86147"></scales>
<clustering>
<clus scale="   78.861">  1  9  2 -1</clus>
<clus scale="   93.187">  7  8 -1 -1</clus>
<clus scale="   93.421">  5  6 -1 -1</clus>
<clus scale="   97.506">  2  7  1 -1</clus>
<clus scale="   78.861">  1  5  2 -1</clus>
</clustering>
</event>
<event>
 9    1  0.1321469E-005  0.1037317E+03  0.7546771E-02  0.1272647E+00
          1   -1    0    0  502    0 -0.00000000000E+00  0.00000000000E+00  0.34577775915E+03  0.34577775915E+03  0.00000000000E+00 0. -1.
         21   -1    0    0  501  502  0.00000000000E+00 -0.00000000000E+00 -0.56320387547E+02  0.56320387547E+02  0.00000000000E+00 0. -1.
         23    2    1    2    0    0 -0.14596841784E+02  0.23431189025E+02  0.12273524566E+03  0.15581364113E+03  0.91934007997E+02 0.  0.
         23    2    1    2    0    0  0.67138958875E+02 -0.41042168020E+02  0.13905482757E+03  0.18434663307E+03  0.91952904797E+02 0.  0.
        -13    1    4    4    0    0  0.83337613756E+01 -0.34939406808E+02  0.30514652607E+01  0.36048927405E+02  0.00000000000E+00 0.  1.
         13    1    4    4    0    0  0.58805197500E+02 -0.61027612117E+01  0.13600336231E+03  0.14829770567E+03  0.00000000000E+00 0. -1.
        -13    1    3    3    0    0  0.29363642352E+02  0.25948000911E+02  0.97459759197E+02  0.10504250048E+03  0.00000000000E+00 0.  1.
         13    1    3    3    0    0 -0.43960484137E+02 -0.25168118868E+01  0.25275486464E+02  0.50771140657E+02  0.00000000000E+00 0. -1.
          1    1    1    2  501    0 -0.52542117091E+02  0.17610978995E+02  0.27667298375E+02  0.61937872493E+02  0.00000000000E+00 0. -1.
<scales pt_clust_5="13000.00000" pt_clust_6="13000.00000" pt_clust_7="13000.00000" pt_clust_8="13000.00000" pt_clust_9="55.41499"></scales>
<clustering>
<clus scale="   55.415">  2  9  1 -1</clus>
<clus scale="   91.934">  7  8 -1 -1</clus>
<clus scale="   91.953">  5  6 -1 -1</clus>
<clus scale="  103.715">  1  7  2 -1</clus>
<clus scale="   55.415">  2  5  1 -1</clus>
</clustering>
</event>
<event>
 9    1  0.1321469E-005  0.1016944E+03  0.7546771E-02  0.1277682E+00
         -1   -1    0    0    0  501 -0.00000000000E+00  0.00000000000E+00  0.10591120931E+03  0.10591120931E+03  0.00000000000E+00 0.  1.
         21   -1    0    0  501  502  0.00000000000E+00 -0.00000000000E+00 -0.22536338833E+03  0.22536338833E+03  0.00000000000E+00 0.  1.
         23    2    1    2    0    0 -0.37788255914E+02  0.35500462557E+02  0.33642838940E+02  0.11049881338E+03  0.91596462922E+02 0.  0.
         23    2    1    2    0    0 -0.17559614512E+01 -0.38659807805E+02 -0.48736183714E+02  0.10913129101E+03  0.89647972283E+02 0.  0.
        -11    1    4    4    0    0  0.34988017738E+02  0.38430372152E+01 -0.38243957735E+02  0.51976250572E+02  0.00000000000E+00 0.  1.
         11    1    4    4    0    0 -0.36743979190E+02 -0.42502845020E+02 -0.10492225979E+02  0.57155040438E+02  0.00000000000E+00 0. -1.
        -11    1    3    3    0    0 -0.10345818123E+02  0.37232052603E+02 -0.24796017655E+02  0.45914095714E+02  0.00000000000E+00 0. -1.
         11    1    3    3    0    0 -0.27442437792E+02 -0.17315900457E+01  0.58438856595E+02  0.64584717667E+02  0.00000000000E+00 0.  1.
         -1    1    1    2    0  502  0.39544217366E+02  0.31593452474E+01 -0.10435883424E+03  0.11164449325E+03  0.00000000000E+00 0.  1.
<scales pt_clust_5="13000.00000" pt_clust_6="13000.00000" pt_clust_7="13000.00000" pt_clust_8="13000.00000" pt_clust_9="39.67022"></scales>
<clustering>
<clus scale="   39.670">  2  9  1 -1</clus>
<clus scale="   89.648">  5  6 -1 -1</clus>
<clus scale="   91.596">  7  8 -1 -1</clus>
<clus scale="   99.943">  2  5  1 -1</clus>
<clus scale="   39.670">  2  5  1 -1</clus>
</clustering>
</event>
<event>
 9    1  0.1321469E-005  0.1119530E+03  0.7546771E-02  0.1257246E+00
          1   -1    0    0  502    0 -0.00000000000E+00  0.00000000000E+00  0.34927919068E+03  0.34927919068E+03  0.00000000000E+00 0. -1.
         21   -1    0    0  501  502  0.00000000000E+00 -0.00000000000E+00 -0.15281653683E+03  0.15281653683E+03  0.00000000000E+00 0.  1.
         23    2    1    2    0    0  0.22715212467E+02 -0.59232011516E+02  0.30035373284E+03  0.32005132110E+03  0.90532155852E+02 0.  0.
         23    2    1    2    0    0 -0.43551773334E+02  0.69799222290E+02 -0.71571591073E+02  0.14216486891E+03  0.91212219081E+02 0.  0.
        -11    1    3    3    0    0 -0.31163428835E+01 -0.71177391860E+02  0.26632595547E+03  0.27569085451E+03  0.00000000000E+00 0. -1.
         11    1    3    3    0    0  0.25831555350E+02  0.11945380344E+02  0.34027777370E+02  0.44360466591E+02  0.00000000000E+00 0.  1.
        -11    1    4    4    0    0 -0.71767680994E+02  0.42122525304E+02 -0.51114044478E+02  0.97660394819E+02  0.00000000000E+00 0.  1.
         11    1    4    4    0    0  0.28215907660E+02  0.27676696986E+02 -0.20457546595E+02  0.44504474088E+02  0.00000000000E+00 0. -1.
          1    1    1    2  501    0  0.20836560867E+02 -0.10567210774E+02 -0.32319487912E+02  0.39879537500E+02  0.00000000000E+00 0. -1.
<scales pt_clust_5="13000.00000" pt_clust_6="13000.00000" pt_clust_7="13000.00000" pt_clust_8="13000.00000" pt_clust_9="23.36297"></scales>
<clustering>
<clus scale="   23.363">  2  9  1 -1</clus>
<clus scale="   90.532">  5  6 -1 -1</clus>
<clus scale="   91.212">  7  8 -1 -1</clus>
<clus scale="  111.400">  1  5  2 -1</clus>
<clus scale="   23.363">  2  5  1 -1</clus>
</clustering>
</event>
<event>
 9    1  0.1321469E-005  0.9363243E+02  0.7546771E-02  0.1295672E+00
         21   -1    0    0  501  502  0.00000000000E+00  0.00000000000E+00  0.77168303926E+02  0.77168303926E+02  0.00000000000E+00 0.  1.
          3   -1    0    0  502    0 -0.00000000000E+00 -0.00000000000E+00 -0.15334353112E+03  0.15334353112E+03  0.00000000000E+00 0. -1.
         23    2    1    2    0    0 -0.74219506331E+01  0.31376458421E+02 -0.41781664016E+02  0.10344060308E+03  0.88964506535E+02 0.  0.
         23    2    1    2    0    0  0.82220620709E+01 -0.29476468599E+01 -0.16009540512E+02  0.93206651733E+02  0.91405052449E+02 0.  0.
        -13    1    4    4    0    0  0.70941890180E+00  0.35432574395E+02 -0.34931324759E+02  0.49761109844E+02  0.00000000000E+00 0.  1.
         13    1    4    4    0    0  0.75126431691E+01 -0.38380221255E+02  0.18921784247E+02  0.43445541890E+02  0.00000000000E+00 0. -1.
        -13    1    3    3    0    0  0.37263953444E+02  0.21044249015E+01 -0.31934565075E+02  0.49120741820E+02  0.00000000000E+00 0. -1.
         13    1    3    3    0    0 -0.44685904077E+02  0.29272033519E+02 -0.98470989410E+01  0.54319861258E+02  0.00000000000E+00 0.  1.
          3    1    1    2  501    0 -0.80011143780E+00 -0.28428811561E+02 -0.18384022670E+02  0.33864580237E+02  0.00000000000E+00 0. -1.
<scales pt_clust_5="13000.00000" pt_clust_6="13000.00000" pt_clust_7="13000.00000" pt_clust_8="13000.00000" pt_clust_9="28.44008"></scales>
<clustering>
<clus scale="   28.440">  1  9  2 -1</clus>
<clus scale="   88.965">  7  8 -1 -1</clus>
<clus scale="   91.251">  2  7  1 -1</clus>
<clus scale="   91.405">  5  6 -1 -1</clus>
<clus scale="   28.440">  1  5  2 -1</clus>
</clustering>
</event>
<event>
 9    1  0.1321469E-005  0.1343482E+03  0.7546771E-02  0.1221251E+00
         21   -1    0    0  501  502  0.00000000000E+00  0.00000000000E+00  0.15200966192E+03  0.15200966192E+03  0.00000000000E+00 0. -1.
          2   -1    0    0  502    0 -0.00000000000E+00 -0.00000000000E+00 -0.60638227847E+03  0.60638227847E+03  0.00000000000E+00 0. -1.
         23    2    1    2    0    0  0.94067668486E+02  0.13239683981E+02 -0.45040033095E+03  0.46948291170E+03  0.92356541557E+02 0.  0.
         23    2    1    2    0    0 -0.10048280549E+03 -0.47842527663E+02 -0.10723566670E+03  0.17981348960E+03  0.91911376768E+02 0.  0.
        -11    1    4    4    0    0 -0.64644752037E+02  0.49580805979E+01 -0.13192488883E+02  0.66163194391E+02  0.00000000000E+00 0.  1.
         11    1    4    4    0    0 -0.35838053448E+02 -0.52800608261E+02 -0.94043177819E+02  0.11365029521E+03  0.00000000000E+00 0. -1.
        -11    1    3    3    0    0  0.78379589125E+02  0.32122941156E+02 -0.42782847514E+03  0.43613352024E+03  0.00000000000E+00 0.  1.
         11    1    3    3    0    0  0.15688079361E+02 -0.18883257175E+02 -0.22571855814E+02  0.33349391455E+02  0.00000000000E+00 0. -1.
          2    1    1    2  501    0  0.64151369991E+01  0.34602843682E+02  0.10326338110E+03  0.10909553909E+03  0.00000000000E+00 0. -1.
<scales pt_clust_5="13000.00000" pt_clust_6="13000.00000" pt_clust_7="13000.00000" pt_clust_8="13000.00000" pt_clust_9="35.19248"></scales>
<clustering>
<clus scale="   35.192">  1  9  2 -1</clus>
<clus scale="   91.911">  5  6 -1 -1</clus>
<clus scale="   92.357">  7  8 -1 -1</clus>
<clus scale="  134.043">  1  5  2 -1</clus>
<clus scale="   35.192">  1  5  2 -1</clus>
</clustering>
</event>
<event>
 9    1  0.1321469E-005  0.2158098E+03  0.7546771E-02  0.1138925E+00
          1   -1    0    0  502    0 -0.00000000000E+00  0.00000000000E+00  0.17687760570E+03  0.17687760570E+03  0.00000000000E+00 0. -1.
         21   -1    0    0  501  502  0.00000000000E+00 -0.00000000000E+00 -0.46932825407E+03  0.46932825407E+03  0.00000000000E+00 0.  1.
         23    2    1    2    0    0 -0.73772266708E+02 -0.17506027546E+03  0.55677276540E+02  0.20968569856E+03  0.69135270869E+02 0.  0.
         23    2    1    2    0    0  0.92475901292E+02  0.19129207792E+03 -0.27883708487E+03  0.36293675363E+03  0.93960182193E+02 0.  0.
        -11    1    3    3    0    0 -0.39291451025E+01 -0.32831159064E+02  0.37810593203E+02  0.50229116507E+02  0.00000000000E+00 0.  1.
         11    1    3    3    0    0 -0.69843121605E+02 -0.14222911640E+03  0.17866683337E+02  0.15945658205E+03  0.00000000000E+00 0. -1.
        -13    1    4    4    0    0 -0.32777128127E+01  0.45499916763E+02 -0.17758647366E+02  0.48952583007E+02  0.00000000000E+00 0.  1.
         13    1    4    4    0    0  0.95753614104E+02  0.14579216116E+03 -0.26107843751E+03  0.31398417062E+03  0.00000000000E+00 0. -1.
          1    1    1    2  501    0 -0.18703634584E+02 -0.16231802464E+02 -0.69290840040E+02  0.73583407581E+02  0.00000000000E+00 0. -1.
<scales pt_clust_5="13000.00000" pt_clust_6="13000.00000" pt_clust_7="13000.00000" pt_clust_8="13000.00000" pt_clust_9="24.76484"></scales>
<clustering>
<clus scale="   24.765">  2  9  1 -1</clus>
<clus scale="   69.135">  5  6 -1 -1</clus>
<clus scale="   93.960">  7  8 -1 -1</clus>
<clus scale="  206.216">  1  5  2 -1</clus>
<clus scale="   24.765">  2  5  1 -1</clus>
</clustering>
</event>
<event>
 9    1  0.1321469E-005  0.2597494E+03  0.7546771E-02  0.1107588E+00
         21   -1    0    0  501  502  0.00000000000E+00  0.00000000000E+00  0.95354189931E+02  0.95354189931E+02  0.00000000000E+00 0. -1.
          1   -1    0    0  502    0 -0.00000000000E+00 -0.00000000000E+00 -0.12735757164E+04  0.12735757164E+04  0.00000000000E+00 0. -1.
         23    2    1    2    0    0 -0.16912078426E+03  0.23143840593E+03 -0.87570972900E+03  0.92624277244E+03  0.94300416881E+02 0.  0.
         23    2    1    2    0    0  0.11941213428E+03 -0.10840546560E+03 -0.16062086720E+03  0.24841647119E+03  0.99502147675E+02 0.  0.
        -11    1    4    4    0    0  0.70735725537E+02 -0.19562176682E+02 -0.21795395299E+02  0.76558871988E+02  0.00000000000E+00 0.  1.
         11    1    4    4    0    0  0.48676408739E+02 -0.88843288915E+02 -0.13882547191E+03  0.17185759920E+03  0.00000000000E+00 0. -1.
        -13    1    3    3    0    0 -0.54808874160E+02  0.85514375833E+02 -0.18452345535E+03  0.21063149512E+03  0.00000000000E+00 0.  1.
         13    1    3    3    0    0 -0.11431191010E+03  0.14592403010E+03 -0.69118627365E+03  0.71561127732E+03  0.00000000000E+00 0. -1.
          1    1    1    2  501    0  0.49708649987E+02 -0.12303294033E+03 -0.14189093022E+03  0.19427066266E+03  0.00000000000E+00 0. -1.
<scales pt_clust_5="13000.00000" pt_clust_6="13000.00000" pt_clust_7="13000.00000" pt_clust_8="13000.00000" pt_clust_9="132.69534"></scales>
<clustering>
<clus scale="   94.300">  7  8 -1 -1</clus>
<clus scale="   99.502">  5  6 -1 -1</clus>
<clus scale="  132.695">  1  9  2 -1</clus>
<clus scale="  257.802">  2  7  1 -1</clus>
<clus scale="  132.695">  1  5  2 -1</clus>
</clustering>
</event>
<event>
 9    1  0.1321469E-005  0.1940737E+03  0.7546771E-02  0.1175419E+00
          1   -1    0    0  502    0 -0.00000000000E+00  0.00000000000E+00  0.12070699845E+04  0.12070699845E+04  0.00000000000E+00 0. -1.
         21   -1    0    0  501  502  0.00000000000E+00 -0.00000000000E+00 -0.51208432529E+02  0.51208432529E+02  0.00000000000E+00 0.  1.
         23    2    1    2    0    0  0.45045518685E+02  0.67555517272E+02  0.33313530887E+03  0.35433110132E+03  0.89322722080E+02 0.  0.
         23    2    1    2    0    0 -0.13245700857E+03 -0.16421751721E+03  0.39971478837E+03  0.46131541262E+03  0.92345794713E+02 0.  0.
        -11    1    4    4    0    0 -0.13710131412E+03 -0.11832054536E+03  0.28497957096E+03  0.33765348754E+03  0.00000000000E+00 0.  1.
         11    1    4    4    0    0  0.46443055471E+01 -0.45896971856E+02  0.11473521741E+03  0.12366192508E+03  0.00000000000E+00 0. -1.
        -13    1    3    3    0    0  0.59813594816E+02  0.19720855826E+02  0.12147750435E+03  0.13683333784E+03  0.00000000000E+00 0.  1.
         13    1    3    3    0    0 -0.14768076131E+02  0.47834661445E+02  0.21165780452E+03  0.21749776349E+03  0.00000000000E+00 0. -1.
          1    1    1    2  501    0  0.87411489885E+02  0.96661999943E+02  0.42301145476E+03  0.44263190311E+03  0.00000000000E+00 0. -1.
<scales pt_clust_5="13000.00000" pt_clust_6="13000.00000" pt_clust_7="13000.00000" pt_clust_8="13000.00000" pt_clust_9="170.69530"></scales>
<clustering>
<clus scale="   89.323">  7  8 -1 -1</clus>
<clus scale="   92.346">  5  6 -1 -1</clus>
<clus scale="  120.712">  1  7  2 -1</clus>
<clus scale="  170.695">  2  9  1 -1</clus>
<clus scale="  170.695">  2  5  1 -1</clus>
</clustering>
</event>
<event>
 9    1  0.1321469E-005  0.9927429E+02  0.7546771E-02  0.1282544E+00
         21   -1    0    0  501  502  0.00000000000E+00  0.00000000000E+00  0.11151975438E+03  0.11151975438E+03  0.00000000000E+00 0. -1.
          2   -1    0    0  502    0 -0.00000000000E+00 -0.00000000000E+00 -0.15291690028E+03  0.15291690028E+03  0.00000000000E+00 0. -1.
         23    2    1    2    0    0 -0.15534853994E+02  0.43833689704E+02 -0.60453375297E+02  0.11964675422E+03  0.92184657985E+02 0.  0.
         23    2    1    2    0    0  0.93123895104E+01 -0.23059513119E+02 -0.23540188622E+02  0.96990943296E+02  0.90744921937E+02 0.  0.
        -11    1    4    4    0    0 -0.34672959664E+02 -0.29484661357E+02 -0.26096956143E+02  0.52465326713E+02  0.00000000000E+00 0.  1.
         11    1    4    4    0    0  0.43985349175E+02  0.64251482377E+01  0.25567675211E+01  0.44525616582E+02  0.00000000000E+00 0. -1.
        -13    1    3    3    0    0 -0.26109998542E+02  0.65389322816E+02 -0.64274388770E+02  0.95334634913E+02  0.00000000000E+00 0. -1.
         13    1    3    3    0    0  0.10575144548E+02 -0.21555633111E+02  0.38210134734E+01  0.24312119303E+02  0.00000000000E+00 0.  1.
          2    1    1    2  501    0  0.62224644837E+01 -0.20774176585E+02  0.42596418015E+02  0.47798957151E+02  0.00000000000E+00 0. -1.
<scales pt_clust_5="13000.00000" pt_clust_6="13000.00000" pt_clust_7="13000.00000" pt_clust_8="13000.00000" pt_clust_9="21.68607"></scales>
<clustering>
<clus scale="   21.686">  1  9  2 -1</clus>
<clus scale="   90.745">  5  6 -1 -1</clus>
<clus scale="   92.185">  7  8 -1 -1</clus>
<clus scale="   97.939">  1  5  2 -1</clus>
<clus scale="   21.686">  1  5  2 -1</clus>
</clustering>
</event>
<event>
 9    1  0.1321469E-005  0.1075338E+03  0.7546771E-02  0.1265491E+00
          2   -1    0    0  502    0 -0.00000000000E+00  0.00000000000E+00  0.26006942795E+03  0.26006942795E+03  0.00000000000E+00 0. -1.
         21   -1    0    0  501  502  0.00000000000E+00 -0.00000000000E+00 -0.12838447355E+03  0.12838447355E+03  0.00000000000E+00 0. -1.
         23    2    1    2    0    0 -0.42582782589E+02  0.27974819171E+02  0.15875814484E+03  0.19001822002E+03  0.91142149991E+02 0.  0.
         23    2    1    2    0    0  0.54281810034E+02 -0.49685131191E+02  0.42905596643E+02  0.12423840704E+03  0.90438732839E+02 0.  0.
        -11    1    4    4    0    0  0.26773473492E+02 -0.70000109408E+02  0.48945459340E+02  0.89512525325E+02  0.00000000000E+00 0.  1.
         11    1    4    4    0    0  0.27508336542E+02  0.20314978216E+02 -0.60398626978E+01  0.34725881711E+02  0.00000000000E+00 0. -1.
        -13    1    3    3    0    0 -0.11507828716E+02  0.40389373340E+02  0.14951625973E+03  0.15530242601E+03  0.00000000000E+00 0. -1.
         13    1    3    3    0    0 -0.31074953873E+02 -0.12414554168E+02  0.92418851129E+01  0.34715794011E+02  0.00000000000E+00 0.  1.
          2    1    1    2  501    0 -0.11699027446E+02  0.21710312020E+02 -0.69978787094E+02  0.74197274440E+02  0.00000000000E+00 0. -1.
<scales pt_clust_5="13000.00000" pt_clust_6="13000.00000" pt_clust_7="13000.00000" pt_clust_8="13000.00000" pt_clust_9="24.66181"></scales>
<clustering>
<clus scale="   24.662">  2  9  1 -1</clus>
<clus scale="   90.439">  5  6 -1 -1</clus>
<clus scale="   91.142">  7  8 -1 -1</clus>
<clus scale="  106.938">  2  5  1 -1</clus>
<clus scale="   24.662">  2  5  1 -1</clus>
</clustering>
</event>
<event>
 9    1  0.1321469E-005  0.1135510E+03  0.7546771E-02  0.1255896E+00
         21   -1    0    0  501  502  0.00000000000E+00  0.00000000000E+00  0.13423942806E+03  0.13423942806E+03  0.00000000000E+00 0. -1.
         -1   -1    0    0    0  501 -0.00000000000E+00 -0.00000000000E+00 -0.20705339061E+03  0.20705339061E+03  0.00000000000E+00 0.  1.
         23    2    1    2    0    0 -0.62531390492E+01  0.54462279304E+02 -0.11623116176E+03  0.15964692322E+03  0.94721779512E+02 0.  0.
         23    2    1    2    0    0  0.46343855452E-01 -0.83928324108E+02 -0.66219580893E+01  0.12324478786E+03  0.90008120028E+02 0.  0.
        -11    1    3    3    0    0 -0.42043680257E+02 -0.21259199241E+01 -0.51498044162E+02  0.66514954240E+02  0.00000000000E+00 0. -1.
         11    1    3    3    0    0  0.35790541207E+02  0.56588199228E+02 -0.64733117601E+02  0.93131968980E+02  0.00000000000E+00 0.  1.
        -13    1    4    4    0    0 -0.23628335352E+02 -0.50108943770E+02  0.34265805572E+02  0.65141000213E+02  0.00000000000E+00 0. -1.
         13    1    4    4    0    0  0.23674679207E+02 -0.33819380338E+02 -0.40887763661E+02  0.58103787650E+02  0.00000000000E+00 0.  1.
         -1    1    1    2    0  502  0.62067951938E+01  0.29466044804E+02  0.50039157308E+02  0.58401107584E+02  0.00000000000E+00 0.  1.
<scales pt_clust_5="13000.00000" pt_clust_6="13000.00000" pt_clust_7="13000.00000" pt_clust_8="13000.00000" pt_clust_9="30.11266"></scales>
<clustering>
<clus scale="   30.113">  1  9  2 -1</clus>
<clus scale="   90.008">  7  8 -1 -1</clus>
<clus scale="   94.722">  5  6 -1 -1</clus>
<clus scale="  109.650">  1  7  2 -1</clus>
<clus scale="   30.113">  1  5  2 -1</clus>
</clustering>
</event>
<event>
 9    1  0.1321469E-005  0.1090285E+03  0.7546771E-02  0.1263059E+00
         -3   -1    0    0    0  501 -0.00000000000E+00  0.00000000000E+00  0.47701408124E+02  0.47701408124E+02  0.00000000000E+00 0.  1.
         21   -1    0    0  501  502  0.00000000000E+00 -0.00000000000E+00 -0.38373254001E+03  0.38373254001E+03  0.00000000000E+00 0. -1.
         23    2    1    2    0    0 -0.45837021863E+02  0.19480703670E+02 -0.73558421218E+02  0.12775598610E+03  0.91816230937E+02 0.  0.
         23    2    1    2    0    0  0.77661824260E+02 -0.13653446290E+02 -0.19453284941E+03  0.22842771470E+03  0.90102251914E+02 0.  0.
        -11    1    3    3    0    0 -0.25402130659E+02  0.45753174961E+02 -0.78256591704E+02  0.94141995974E+02  0.00000000000E+00 0. -1.
         11    1    3    3    0    0 -0.20434891203E+02 -0.26272471291E+02  0.46981704858E+01  0.33613990125E+02  0.00000000000E+00 0.  1.
        -13    1    4    4    0    0  0.73231259127E+01 -0.39059187765E+02 -0.10189330146E+03  0.10936861160E+03  0.00000000000E+00 0.  1.
         13    1    4    4    0    0  0.70338698347E+02  0.25405741476E+02 -0.92639547950E+02  0.11905910309E+03  0.00000000000E+00 0. -1.
         -3    1    1    2    0  502 -0.31824802397E+02 -0.58272573802E+01 -0.67939861260E+02  0.75250247337E+02  0.00000000000E+00 0.  1.
<scales pt_clust_5="13000.00000" pt_clust_6="13000.00000" pt_clust_7="13000.00000" pt_clust_8="13000.00000" pt_clust_9="32.35390"></scales>
<clustering>
<clus scale="   32.354">  2  9  1 -1</clus>
<clus scale="   90.102">  7  8 -1 -1</clus>
<clus scale="   91.816">  5  6 -1 -1</clus>
<clus scale="  107.589">  2  7  1 -1</clus>
<clus scale="   32.354">  2  5  1 -1</clus>
</clustering>
</event>
<event>
 9    1  0.1321469E-005  0.1377380E+03  0.7546771E-02  0.1225304E+00
         21   -1    0    0  501  502  0.00000000000E+00  0.00000000000E+00  0.59699920773E+02  0.59699920773E+02  0.00000000000E+00 0. -1.
          2   -1    0    0  502    0 -0.00000000000E+00 -0.00000000000E+00 -0.89231309651E+03  0.89231309651E+03  0.00000000000E+00 0. -1.
         23    2    1    2    0    0 -0.67364171768E+02 -0.34388807627E+01 -0.59814384814E+03  0.60896555199E+03  0.92267127969E+02 0.  0.
         23    2    1    2    0    0 -0.36799237507E+02  0.73769227201E+02 -0.13671905795E+03  0.18382595708E+03  0.91125182724E+02 0.  0.
        -11    1    4    4    0    0  0.21756973220E+02  0.37840781858E+02 -0.19170166180E+02  0.47673744626E+02  0.00000000000E+00 0.  1.
         11    1    4    4    0    0 -0.58556210727E+02  0.35928445343E+02 -0.11754889177E+03  0.13615221245E+03  0.00000000000E+00 0. -1.
        -13    1    3    3    0    0  0.99475104437E+01 -0.30721049712E+02 -0.17389328297E+03  0.17686607849E+03  0.00000000000E+00 0.  1.
         13    1    3    3    0    0 -0.77311682211E+02  0.27282168950E+02 -0.42425056517E+03  0.43209947350E+03  0.00000000000E+00 0. -1.
          2    1    1    2  501    0  0.10416340927E+03 -0.70330346438E+02 -0.97750269644E+02  0.15922150821E+03  0.00000000000E+00 0. -1.
<scales pt_clust_5="13000.00000" pt_clust_6="13000.00000" pt_clust_7="13000.00000" pt_clust_8="13000.00000" pt_clust_9="103.28582"></scales>
<clustering>
<clus scale="   91.125">  5  6 -1 -1</clus>
<clus scale="   92.267">  7  8 -1 -1</clus>
<clus scale="  114.293">  2  7  1 -1</clus>
<clus scale="  103.286">  1  9  2 -1</clus>
<clus scale="  103.286">  1  5  2 -1</clus>
</clustering>
</event>
<event>
 9    1  0.1321469E-005  0.1419232E+03  0.7546771E-02  0.1210886E+00
          1   -1    0    0  502    0 -0.00000000000E+00  0.00000000000E+00  0.19126467772E+03  0.19126467772E+03  0.00000000000E+00 0. -1.
         21   -1    0    0  501  502  0.00000000000E+00 -0.00000000000E+00 -0.35683809271E+03  0.35683809271E+03  0.00000000000E+00 0. -1.
         23    2    1    2    0    0 -0.13648945966E+02 -0.11916261899E+03  0.51668871367E+02  0.15890841024E+03  0.90532795644E+02 0.  0.
         23    2    1    2    0    0  0.49348078392E+02  0.89842480328E+02  0.28350657177E+02  0.13929439521E+03  0.89957015630E+02 0.  0.
        -11    1    3    3    0    0 -0.37990389871E+02 -0.94992240965E+02  0.69432550248E+01  0.10254269529E+03  0.00000000000E+00 0. -1.
         11    1    3    3    0    0  0.24341443905E+02 -0.24170378020E+02  0.44725616343E+02  0.56365714954E+02  0.00000000000E+00 0.  1.
        -13    1    4    4    0    0  0.72492267624E+02  0.59694377457E+02  0.36742354592E+01  0.93978974092E+02  0.00000000000E+00 0.  1.
         13    1    4    4    0    0 -0.23144189232E+02  0.30148102871E+02  0.24676421718E+02  0.45315421114E+02  0.00000000000E+00 0. -1.
          1    1    1    2  501    0 -0.35699132426E+02  0.29320138658E+02 -0.24559294353E+03  0.24989996498E+03  0.00000000000E+00 0. -1.
<scales pt_clust_5="13000.00000" pt_clust_6="13000.00000" pt_clust_7="13000.00000" pt_clust_8="13000.00000" pt_clust_9="46.19630"></scales>
<clustering>
<clus scale="   46.196">  2  9  1 -1</clus>
<clus scale="   89.957">  7  8 -1 -1</clus>
<clus scale="   90.533">  5  6 -1 -1</clus>
<clus scale="  141.557">  2  7  1 -1</clus>
<clus scale="   46.196">  2  5  1 -1</clus>
</clustering>
</event>
<event>
 9    1  0.1321469E-005  0.9952156E+02  0.7546771E-02  0.1285737E+00
         -2   -1    0    0    0  501 -0.00000000000E+00  0.00000000000E+00  0.21939187705E+03  0.21939187705E+03  0.00000000000E+00 0.  1.
         21   -1    0    0  501  502  0.00000000000E+00 -0.00000000000E+00 -0.74213210331E+02  0.74213210331E+02  0.00000000000E+00 0. -1.
         23    2    1    2    0    0 -0.49336251739E+01  0.12474576770E+02  0.12972904739E+03  0.16390499117E+03  0.99273685689E+02 0.  0.
         23    2    1    2    0    0 -0.22141694879E+02  0.82565549147E+01  0.15947499136E+02  0.95595834582E+02  0.91245906809E+02 0.  0.
        -13    1    3    3    0    0  0.35097454575E+02 -0.25871079965E+02  0.69534591948E+02  0.82074378301E+02  0.00000000000E+00 0.  1.
         13    1    3    3    0    0 -0.40031079749E+02  0.38345656735E+02  0.60194455445E+02  0.81830612870E+02  0.00000000000E+00 0. -1.
        -13    1    4    4    0    0  0.24197498236E+02  0.95606512347E+01  0.36551446174E+02  0.44865724003E+02  0.00000000000E+00 0.  1.
         13    1    4    4    0    0 -0.46339193115E+02 -0.13040963199E+01 -0.20603947038E+02  0.50730110579E+02  0.00000000000E+00 0. -1.
         -2    1    1    2    0  502  0.27075320053E+02 -0.20731131685E+02 -0.49787981037E+00  0.34104261628E+02  0.00000000000E+00 0.  1.
<scales pt_clust_5="13000.00000" pt_clust_6="13000.00000" pt_clust_7="13000.00000" pt_clust_8="13000.00000" pt_clust_9="34.10063"></scales>
<clustering>
<clus scale="   34.101">  2  9  1 -1</clus>
<clus scale="   91.246">  7  8 -1 -1</clus>
<clus scale="   91.516">  2  7  1 -1</clus>
<clus scale="   99.274">  5  6 -1 -1</clus>
<clus scale="   34.101">  2  5  1 -1</clus>
</clustering>
</event>
<event>
 9    1  0.1321469E-005  0.9906380E+02  0.7546771E-02  0.1283742E+00
         21   -1    0    0  501  502  0.00000000000E+00  0.00000000000E+00  0.40603621139E+03  0.40603621139E+03  0.00000000000E+00 0. -1.
         -3   -1    0    0    0  501 -0.00000000000E+00 -0.00000000000E+00 -0.91763792553E+02  0.91763792553E+02  0.00000000000E+00 0.  1.
         23    2    1    2    0    0 -0.13806563392E+02 -0.25921704762E+02 -0.40172691195E+02  0.10517606821E+03  0.92658535691E+02 0.  0.
         23    2    1    2    0    0  0.20833706464E+02  0.73057088971E+02  0.21212659602E+03  0.24253834477E+03  0.89753965754E+02 0.  0.
        -13    1    4    4    0    0  0.47638074509E+02  0.96718622090E+01  0.81645393114E+02  0.95020530825E+02  0.00000000000E+00 0.  1.
         13    1    4    4    0    0 -0.26804368045E+02  0.63385226762E+02  0.13048120291E+03  0.14751781394E+03  0.00000000000E+00 0. -1.
        -13    1    3    3    0    0 -0.51477912819E+02 -0.29492573457E+02 -0.23175964301E+02  0.63693898598E+02  0.00000000000E+00 0. -1.
         13    1    3    3    0    0  0.37671349427E+02  0.35708686948E+01 -0.16996726894E+02  0.41482169615E+02  0.00000000000E+00 0.  1.
         -3    1    1    2    0  502 -0.70271430726E+01 -0.47135384209E+02  0.14231851401E+03  0.15008559097E+03  0.00000000000E+00 0.  1.
<scales pt_clust_5="13000.00000" pt_clust_6="13000.00000" pt_clust_7="13000.00000" pt_clust_8="13000.00000" pt_clust_9="47.65632"></scales>
<clustering>
<clus scale="   47.656">  1  9  2 -1</clus>
<clus scale="   89.754">  5  6 -1 -1</clus>
<clus scale="   92.659">  7  8 -1 -1</clus>
<clus scale="   96.353">  1  5  2 -1</clus>
<clus scale="   47.656">  1  5  2 -1</clus>
</clustering>
</event>
<event>
 9    1  0.1464668E-005  0.9134241E+02  0.7546771E-02  0.1302493E+00
         -4   -1    0    0    0  501 -0.00000000000E+00  0.00000000000E+00  0.41246297701E+03  0.41246297701E+03  0.00000000000E+00 0.  1.
         21   -1    0    0  501  502  0.00000000000E+00 -0.00000000000E+00 -0.48406713847E+02  0.48406713847E+02  0.00000000000E+00 0. -1.
         23    2    1    2    0    0  0.31112966795E+00 -0.14020877563E+01  0.30151920210E+03  0.31364026653E+03  0.86338432353E+02 0.  0.
         23    2    1    2    0    0 -0.98585939490E+01  0.33429636437E+02  0.58185256216E+02  0.11352695922E+03  0.91039079311E+02 0.  0.
        -13    1    3    3    0    0  0.32051230487E+02 -0.29007182656E+02  0.17722315230E+03  0.18241914299E+03  0.00000000000E+00 0.  1.
         13    1    3    3    0    0 -0.31740100819E+02  0.27605094900E+02  0.12429604981E+03  0.13122112353E+03  0.00000000000E+00 0. -1.
        -13    1    4    4    0    0 -0.86786266766E+01 -0.22678450506E+02  0.51591682155E+02  0.57020455504E+02  0.00000000000E+00 0.  1.
         13    1    4    4    0    0 -0.11799672724E+01  0.56108086943E+02  0.65935740609E+01  0.56506503715E+02  0.00000000000E+00 0. -1.
         -4    1    1    2    0  502  0.95474642811E+01 -0.32027548681E+02  0.43518048429E+01  0.33702465104E+02  0.00000000000E+00 0.  1.
<scales pt_clust_5="13000.00000" pt_clust_6="13000.00000" pt_clust_7="13000.00000" pt_clust_8="13000.00000" pt_clust_9="33.42032"></scales>
<clustering>
<clus scale="   33.420">  2  9  1 -1</clus>
<clus scale="   86.338">  5  6 -1 -1</clus>
<clus scale="   86.658">  1  5  2 -1</clus>
<clus scale="   91.039">  7  8 -1 -1</clus>
<clus scale="   33.420">  2  5  1 -1</clus>
</clustering>
</event>
<event>
 9    1  0.1321469E-005  0.1301959E+03  0.7546771E-02  0.1233523E+00
          2   -1    0    0  502    0 -0.00000000000E+00  0.00000000000E+00  0.10763432976E+03  0.10763432976E+03  0.00000000000E+00 0. -1.
         21   -1    0    0  501  502  0.00000000000E+00 -0.00000000000E+00 -0.41267593883E+03  0.41267593883E+03  0.00000000000E+00 0. -1.
         23    2    1    2    0    0  0.82832271134E+02 -0.43830125678E+02  0.53797264121E+02  0.12592070866E+03  0.64649935681E+02 0.  0.
         23    2    1    2    0    0 -0.76202940611E+02  0.63088278235E+02 -0.24853712869E+03  0.28222316878E+03  0.89956620945E+02 0.  0.
        -11    1    4    4    0    0 -0.45311265123E+02  0.83261592323E+02 -0.15520536987E+03  0.18186343871E+03  0.00000000000E+00 0. -1.
         11    1    4    4    0    0 -0.30891675488E+02 -0.20173314088E+02 -0.93331758814E+02  0.10035973007E+03  0.00000000000E+00 0.  1.
        -13    1    3    3    0    0  0.26439549522E+01 -0.32735243788E+02  0.17329975195E+02  0.37133741044E+02  0.00000000000E+00 0.  1.
         13    1    3    3    0    0  0.80188316182E+02 -0.11094881890E+02  0.36467288926E+02  0.88786967612E+02  0.00000000000E+00 0. -1.
          2    1    1    2  501    0 -0.66293305231E+01 -0.19258152557E+02 -0.11030174451E+03  0.11216639116E+03  0.00000000000E+00 0. -1.
<scales pt_clust_5="13000.00000" pt_clust_6="13000.00000" pt_clust_7="13000.00000" pt_clust_8="13000.00000" pt_clust_9="20.36724"></scales>
<clustering>
<clus scale="   20.367">  2  9  1 -1</clus>
<clus scale="   64.650">  7  8 -1 -1</clus>
<clus scale="   89.957">  5  6 -1 -1</clus>
<clus scale="  114.186">  1  7  2 -1</clus>
<clus scale="   20.367">  2  5  1 -1</clus>
</clustering>
</event>
<event>
 9    1  0.1321469E-005  0.9541699E+02  0.7546771E-02  0.1293957E+00
          2   -1    0    0  502    0 -0.00000000000E+00  0.00000000000E+00  0.35782652625E+03  0.35782652625E+03  0.00000000000E+00 0. -1.
         21   -1    0    0  501  502  0.00000000000E+00 -0.00000000000E+00 -0.47891613152E+02  0.47891613152E+02  0.00000000000E+00 0.  1.
         23    2    1    2    0    0  0.23743174783E+02  0.20081673406E+02  0.14316602592E+03  0.16574066847E+03  0.77501266124E+02 0.  0.
         23    2    1    2    0    0 -0.41262863105E+02 -0.42757852442E+02  0.18059327609E+03  0.20816140104E+03  0.84772517353E+02 0.  0.
        -11    1    4    4    0    0 -0.71132571468E+01 -0.63166203345E+02  0.11690119128E+03  0.13306560861E+03  0.00000000000E+00 0.  1.
         11    1    4    4    0    0 -0.34149605958E+02  0.20408350903E+02  0.63692084808E+02  0.75095792431E+02  0.00000000000E+00 0. -1.
        -13    1    3    3    0    0 -0.87426025343E+01  0.40392547421E+02  0.98956974565E+02  0.10724026203E+03  0.00000000000E+00 0. -1.
         13    1    3    3    0    0  0.32485777317E+02 -0.20310874014E+02  0.44209051355E+02  0.58500406433E+02  0.00000000000E+00 0.  1.
          2    1    1    2  501    0  0.17519688322E+02  0.22676179036E+02 -0.13824388911E+02  0.31816069891E+02  0.00000000000E+00 0. -1.
<scales pt_clust_5="13000.00000" pt_clust_6="13000.00000" pt_clust_7="13000.00000" pt_clust_8="13000.00000" pt_clust_9="28.65569"></scales>
<clustering>
<clus scale="   28.656">  2  9  1 -1</clus>
<clus scale="   77.501">  7  8 -1 -1</clus>
<clus scale="   84.773">  5  6 -1 -1</clus>
<clus scale="   89.019">  1  7  2 -1</clus>
<clus scale="   28.656">  2  5  1 -1</clus>
</clustering>
</event>
<event>
 9    1  0.1321469E-005  0.1120399E+03  0.7546771E-02  0.1257660E+00
         21   -1    0    0  501  502  0.00000000000E+00  0.00000000000E+00  0.18705386798E+03  0.18705386798E+03  0.00000000000E+00 0. -1.
         -1   -1    0    0    0  501 -0.00000000000E+00 -0.00000000000E+00 -0.11893203835E+03  0.11893203835E+03  0.00000000000E+00 0.  1.
         23    2    1    2    0    0  0.44251306518E+02  0.38504371395E+02 -0.29410440378E+02  0.11151867151E+03  0.90170257550E+02 0.  0.
         23    2    1    2    0    0 -0.31505904537E+02 -0.70816997927E+02  0.39589539128E+02  0.12691050927E+03  0.92364909669E+02 0.  0.
        -11    1    4    4    0    0 -0.64399734390E+02 -0.44953543348E+02  0.29253685493E+02  0.83808859699E+02  0.00000000000E+00 0. -1.
         11    1    4    4    0    0  0.32893829854E+02 -0.25863454579E+02  0.10335853635E+02  0.43101649569E+02  0.00000000000E+00 0.  1.
        -13    1    3    3    0    0  0.47953005710E+02  0.18297203130E+02 -0.57270284016E+02  0.76903600893E+02  0.00000000000E+00 0.  1.
         13    1    3    3    0    0 -0.37016991913E+01  0.20207168265E+02  0.27859843638E+02  0.34615070616E+02  0.00000000000E+00 0. -1.
         -1    1    1    2    0  502 -0.12745401982E+02  0.32312626532E+02  0.57942730884E+02  0.67556725552E+02  0.00000000000E+00 0.  1.
<scales pt_clust_5="13000.00000" pt_clust_6="13000.00000" pt_clust_7="13000.00000" pt_clust_8="13000.00000" pt_clust_9="34.73544"></scales>
<clustering>
<clus scale="   34.735">  1  9  2 -1</clus>
<clus scale="   90.170">  7  8 -1 -1</clus>
<clus scale="   92.365">  5  6 -1 -1</clus>
<clus scale="  110.238">  2  7  1 -1</clus>
<clus scale="   34.735">  1  5  2 -1</clus>
</clustering>
</event>
<event>
 9    1  0.1321469E-005  0.1674860E+03  0.7546771E-02  0.1198825E+00
         -4   -1    0    0    0  501 -0.00000000000E+00  0.00000000000E+00  0.13562711000E+03  0.13562711000E+03  0.00000000000E+00 0.  1.
         21   -1    0    0  501  502  0.00000000000E+00 -0.00000000000E+00 -0.54006525275E+03  0.54006525275E+03  0.00000000000E+00 0. -1.
         23    2    1    2    0    0  0.48076597063E+02 -0.44298237657E+02  0.58711864253E+01  0.11183713298E+03  0.90550430361E+02 0.  0.
         23    2    1    2    0    0 -0.16888879362E+03  0.10311322026E+03 -0.12298370479E+03  0.24666316895E+03  0.81005965628E+02 0.  0.
        -13    1    4    4    0    0 -0.11210336652E+03  0.10859872464E+03 -0.98639770808E+02  0.18463654071E+03  0.00000000000E+00 0. -1.
         13    1    4    4    0    0 -0.56785427103E+02 -0.54855043763E+01 -0.24343933980E+02  0.62026628243E+02  0.00000000000E+00 0.  1.
        -13    1    3    3    0    0  0.39152412225E+02 -0.15851533438E+00 -0.33874839266E+02  0.51772977946E+02  0.00000000000E+00 0. -1.
         13    1    3    3    0    0  0.89241848386E+01 -0.44139722323E+02  0.39746025691E+02  0.60064155035E+02  0.00000000000E+00 0.  1.
         -4    1    1    2    0  502  0.12081219656E+03 -0.58814982606E+02 -0.28732562438E+03  0.31719206082E+03  0.00000000000E+00 0.  1.
<scales pt_clust_5="13000.00000" pt_clust_6="13000.00000" pt_clust_7="13000.00000" pt_clust_8="13000.00000" pt_clust_9="146.59325"></scales>
<clustering>
<clus scale="   81.006">  5  6 -1 -1</clus>
<clus scale="   90.550">  7  8 -1 -1</clus>
<clus scale="  111.683">  1  7  2 -1</clus>
<clus scale="  146.593">  2  9  1 -1</clus>
<clus scale="  146.593">  2  5  1 -1</clus>
</clustering>
</event>
<event>
 9    1  0.1321469E-005  0.1491711E+03  0.7546771E-02  0.1202319E+00
         21   -1    0    0  501  502  0.00000000000E+00  0.00000000000E+00  0.24631722326E+02  0.24631722326E+02  0.00000000000E+00 0.  1.
          4   -1    0    0  502    0 -0.00000000000E+00 -0.00000000000E+00 -0.11286453354E+04  0.11286453354E+04  0.00000000000E+00 0. -1.
         23    2    1    2    0    0  0.35704631860E+02 -0.10647080843E+03 -0.54124831091E+03  0.56003528914E+03  0.89882908451E+02 0.  0.
         23    2    1    2    0    0 -0.67367727906E+02  0.11118381864E+03 -0.45834810593E+03  0.48402768989E+03  0.85437498107E+02 0.  0.
        -11    1    3    3    0    0  0.62366515661E+02 -0.67077941096E+02 -0.28330731076E+03  0.29774496601E+03  0.00000000000E+00 0. -1.
         11    1    3    3    0    0 -0.26661883801E+02 -0.39392867329E+02 -0.25794100015E+03  0.26229032312E+03  0.00000000000E+00 0.  1.
        -11    1    4    4    0    0 -0.21683768434E+02  0.37841819980E+00 -0.19694914549E+02  0.29295369480E+02  0.00000000000E+00 0.  1.
         11    1    4    4    0    0 -0.45683959472E+02  0.11080540044E+03 -0.43865319138E+03  0.45473232041E+03  0.00000000000E+00 0. -1.
          4    1    1    2  501    0  0.31663096046E+02 -0.47130102157E+01 -0.10441719624E+03  0.10921407870E+03  0.00000000000E+00 0. -1.
<scales pt_clust_5="13000.00000" pt_clust_6="13000.00000" pt_clust_7="13000.00000" pt_clust_8="13000.00000" pt_clust_9="32.01194"></scales>
<clustering>
<clus scale="   32.012">  1  9  2 -1</clus>
<clus scale="   85.437">  7  8 -1 -1</clus>
<clus scale="   89.883">  5  6 -1 -1</clus>
<clus scale="  146.535">  1  7  2 -1</clus>
<clus scale="   32.012">  1  5  2 -1</clus>
</clustering>
</event>
<event>
 9    1  0.1321469E-005  0.1380273E+03  0.7546771E-02  0.1219246E+00
         21   -1    0    0  501  502  0.00000000000E+00  0.00000000000E+00  0.77037078159E+02  0.77037078159E+02  0.00000000000E+00 0. -1.
          2   -1    0    0  502    0 -0.00000000000E+00 -0.00000000000E+00 -0.57409872304E+03  0.57409872304E+03  0.00000000000E+00 0. -1.
         23    2    1    2    0    0  0.32032453968E+01 -0.64536652113E+02 -0.21995705688E+03  0.24714766285E+03  0.92334284710E+02 0.  0.
         23    2    1    2    0    0 -0.20855914340E+02  0.13194225626E+03 -0.28718883289E+03  0.33358342127E+03  0.10467447184E+03 0.  0.
        -11    1    3    3    0    0 -0.17458573623E+02 -0.75608386656E+02 -0.10935827077E+03  0.13409198825E+03  0.00000000000E+00 0.  1.
         11    1    3    3    0    0  0.20661819020E+02  0.11071734543E+02 -0.11059878611E+03  0.11305567460E+03  0.00000000000E+00 0. -1.
        -13    1    4    4    0    0 -0.38786082261E+02  0.17733808194E+02 -0.31645926159E+02  0.53106617033E+02  0.00000000000E+00 0.  1.
         13    1    4    4    0    0  0.17930167921E+02  0.11420844807E+03 -0.25554290673E+03  0.28047680423E+03  0.00000000000E+00 0. -1.
          2    1    1    2  501    0  0.17652668944E+02 -0.67405604148E+02  0.10084244899E+02  0.70404717076E+02  0.00000000000E+00 0. -1.
<scales pt_clust_5="13000.00000" pt_clust_6="13000.00000" pt_clust_7="13000.00000" pt_clust_8="13000.00000" pt_clust_9="69.67878"></scales>
<clustering>
<clus scale="   69.679">  1  9  2 -1</clus>
<clus scale="   92.334">  5  6 -1 -1</clus>
<clus scale="  104.674">  7  8 -1 -1</clus>
<clus scale="  128.920">  2  5  1 -1</clus>
<clus scale="   69.679">  1  5  2 -1</clus>
</clustering>
</event>
<event>
 9    1  0.1321469E-005  0.1901008E+03  0.7546771E-02  0.1158436E+00
         21   -1    0    0  501  502  0.00000000000E+00  0.00000000000E+00  0.77640298086E+03  0.77640298086E+03  0.00000000000E+00 0. -1.
         -1   -1    0    0    0  501 -0.00000000000E+00 -0.00000000000E+00 -0.56239472633E+02  0.56239472633E+02  0.00000000000E+00 0.  1.
         23    2    1    2    0    0 -0.12438713728E+02 -0.17144934054E+03  0.27913086118E+03  0.34041014014E+03  0.91735641247E+02 0.  0.
         23    2    1    2    0    0  0.41551768393E+02  0.15593807782E+03  0.36520171651E+03  0.40953709433E+03  0.91132345078E+02 0.  0.
        -11    1    3    3    0    0  0.27895137162E+02 -0.72165392070E+02  0.65356008210E+02  0.10127877517E+03  0.00000000000E+00 0.  1.
         11    1    3    3    0    0 -0.40333850890E+02 -0.99283948472E+02  0.21377485297E+03  0.23913136497E+03  0.00000000000E+00 0. -1.
        -11    1    4    4    0    0  0.20536030435E+02  0.11677607063E+03  0.33612910634E+03  0.35642833129E+03  0.00000000000E+00 0. -1.
         11    1    4    4    0    0  0.21015737957E+02  0.39162007198E+02  0.29072610168E+02  0.53108763040E+02  0.00000000000E+00 0.  1.
         -1    1    1    2    0  502 -0.29113054665E+02  0.15511262717E+02  0.75830930545E+02  0.82695219030E+02  0.00000000000E+00 0.  1.
<scales pt_clust_5="13000.00000" pt_clust_6="13000.00000" pt_clust_7="13000.00000" pt_clust_8="13000.00000" pt_clust_9="32.98741"></scales>
<clustering>
<clus scale="   32.987">  1  9  2 -1</clus>
<clus scale="   91.132">  7  8 -1 -1</clus>
<clus scale="   91.736">  5  6 -1 -1</clus>
<clus scale="  189.810">  1  7  2 -1</clus>
<clus scale="   32.987">  1  5  2 -1</clus>
</clustering>
</event>
<event>
 9    1  0.1321469E-005  0.1047981E+03  0.7546771E-02  0.1270604E+00
          4   -1    0    0  502    0 -0.00000000000E+00  0.00000000000E+00  0.17562407525E+03  0.17562407525E+03  0.00000000000E+00 0. -1.
         21   -1    0    0  501  502  0.00000000000E+00 -0.00000000000E+00 -0.11567904295E+03  0.11567904295E+03  0.00000000000E+00 0.  1.
         23    2    1    2    0    0 -0.41390800903E+02 -0.46849297423E+01  0.54217064048E+02  0.11394005187E+03  0.91146576564E+02 0.  0.
         23    2    1    2    0    0  0.63311803020E+02 -0.27227676140E+02  0.44585376005E+02  0.12251014586E+03  0.90945859365E+02 0.  0.
        -11    1    4    4    0    0  0.91238149122E+01 -0.39285538444E+02 -0.13145200776E+02  0.42419262521E+02  0.00000000000E+00 0. -1.
         11    1    4    4    0    0  0.54187988108E+02  0.12057862304E+02  0.57730576781E+02  0.80090883339E+02  0.00000000000E+00 0.  1.
        -13    1    3    3    0    0 -0.32981341181E+02 -0.45641926204E+02  0.19492809173E+02  0.59589629158E+02  0.00000000000E+00 0.  1.
         13    1    3    3    0    0 -0.84094597217E+01  0.40956996462E+02  0.34724254875E+02  0.54350422709E+02  0.00000000000E+00 0. -1.
          4    1    1    2  501    0 -0.21921002117E+02  0.31912605882E+02 -0.38857407748E+02  0.54852920477E+02  0.00000000000E+00 0. -1.
<scales pt_clust_5="13000.00000" pt_clust_6="13000.00000" pt_clust_7="13000.00000" pt_clust_8="13000.00000" pt_clust_9="38.71621"></scales>
<clustering>
<clus scale="   38.716">  2  9  1 -1</clus>
<clus scale="   90.946">  5  6 -1 -1</clus>
<clus scale="   91.147">  7  8 -1 -1</clus>
<clus scale="  104.624">  2  5  1 -1</clus>
<clus scale="   38.716">  2  5  1 -1</clus>
</clustering>
</event>
<event>
 9    1  0.1321469E-005  0.1663787E+03  0.7546771E-02  0.1181845E+00
         21   -1    0    0  501  502  0.00000000000E+00  0.00000000000E+00  0.25310679312E+03  0.25310679312E+03  0.00000000000E+00 0.  1.
          1   -1    0    0  502    0 -0.00000000000E+00 -0.00000000000E+00 -0.35214147348E+03  0.35214147348E+03  0.00000000000E+00 0. -1.
         23    2    1    2    0    0 -0.95348506418E+02  0.95856679897E+02 -0.21388802283E+03  0.26884014598E+03  0.90813528868E+02 0.  0.
         23    2    1    2    0    0  0.13119831009E+03 -0.80067192361E+02 -0.35142172772E+02  0.18138176501E+03  0.89669507111E+02 0.  0.
        -11    1    3    3    0    0 -0.12311333779E+02  0.46651652837E+02 -0.19949590876E+02  0.52210457075E+02  0.00000000000E+00 0.  1.
         11    1    3    3    0    0 -0.83037172639E+02  0.49205027060E+02 -0.19393843196E+03  0.21662968891E+03  0.00000000000E+00 0. -1.
        -13    1    4    4    0    0  0.70648723340E+02 -0.72408430449E+01 -0.48121739852E+02  0.85786792480E+02  0.00000000000E+00 0.  1.
         13    1    4    4    0    0  0.60549586753E+02 -0.72826349317E+02  0.12979567080E+02  0.95594972527E+02  0.00000000000E+00 0. -1.
          1    1    1    2  501    0 -0.35849803676E+02 -0.15789487536E+02  0.14999551525E+03  0.15502635561E+03  0.00000000000E+00 0. -1.
<scales pt_clust_5="13000.00000" pt_clust_6="13000.00000" pt_clust_7="13000.00000" pt_clust_8="13000.00000" pt_clust_9="39.17290"></scales>
<clustering>
<clus scale="   39.173">  1  9  2 -1</clus>
<clus scale="   89.670">  7  8 -1 -1</clus>
<clus scale="   90.814">  5  6 -1 -1</clus>
<clus scale="  165.757">  1  7  2 -1</clus>
<clus scale="   39.173">  1  5  2 -1</clus>
</clustering>
</event>
<event>
 9    1  0.1321469E-005  0.1726819E+03  0.7546771E-02  0.1175468E+00
         21   -1    0    0  501  502  0.00000000000E+00  0.00000000000E+00  0.63503667701E+02  0.63503667701E+02  0.00000000000E+00 0.  1.
          2   -1    0    0  502    0 -0.00000000000E+00 -0.00000000000E+00 -0.82640844072E+03  0.82640844072E+03  0.00000000000E+00 0. -1.
         23    2    1    2    0    0  0.92022841055E+02  0.76277034618E+02 -0.30872405433E+03  0.34353586098E+03  0.91760322452E+02 0.  0.
         23    2    1    2    0    0 -0.10780082033E+03 -0.14408650517E+03 -0.42455996766E+03  0.47071610060E+03  0.94554446693E+02 0.  0.
        -13    1    3    3    0    0  0.13965042756E+02 -0.15798699848E+02 -0.14718755419E+02  0.25715036402E+02  0.00000000000E+00 0. -1.
         13    1    3    3    0    0  0.78057798299E+02  0.92075734466E+02 -0.29400529891E+03  0.31782082458E+03  0.00000000000E+00 0.  1.
        -13    1    4    4    0    0 -0.79064635270E+02 -0.46965696382E+02 -0.13007059142E+03  0.15929642789E+03  0.00000000000E+00 0.  1.
         13    1    4    4    0    0 -0.28736185059E+02 -0.97120808792E+02 -0.29448937624E+03  0.31141967271E+03  0.00000000000E+00 0. -1.
          2    1    1    2  501    0  0.15777979274E+02  0.67809470555E+02 -0.29620751028E+02  0.75660146831E+02  0.00000000000E+00 0. -1.
<scales pt_clust_5="13000.00000" pt_clust_6="13000.00000" pt_clust_7="13000.00000" pt_clust_8="13000.00000" pt_clust_9="69.62089"></scales>
<clustering>
<clus scale="   69.621">  1  9  2 -1</clus>
<clus scale="   91.760">  5  6 -1 -1</clus>
<clus scale="   94.554">  7  8 -1 -1</clus>
<clus scale="  171.168">  2  5  1 -1</clus>
<clus scale="   69.621">  1  5  2 -1</clus>
</clustering>
</event>
<event>
 9    1  0.1321469E-005  0.1467665E+03  0.7546771E-02  0.1205731E+00
         21   -1    0    0  501  502  0.00000000000E+00  0.00000000000E+00  0.19212303910E+03  0.19212303910E+03  0.00000000000E+00 0. -1.
          1   -1    0    0  502    0 -0.00000000000E+00 -0.00000000000E+00 -0.49146133087E+03  0.49146133087E+03  0.00000000000E+00 0. -1.
         23    2    1    2    0    0 -0.10190550608E+03  0.12772759946E+02 -0.37989271384E+03  0.40549640264E+03  0.97780278985E+02 0.  0.
         23    2    1    2    0    0  0.16668952349E+03 -0.76168817431E+01  0.24153877668E+02  0.19203813642E+03  0.91933790883E+02 0.  0.
        -11    1    4    4    0    0  0.46701501347E+02 -0.12243891608E+02  0.49682794964E+02  0.69277147929E+02  0.00000000000E+00 0.  1.
         11    1    4    4    0    0  0.11998802214E+03  0.46270098645E+01 -0.25528917296E+02  0.12276098849E+03  0.00000000000E+00 0. -1.
        -13    1    3    3    0    0  0.13456875052E+00  0.34969192252E+02 -0.66041705101E+02  0.74728637938E+02  0.00000000000E+00 0.  1.
         13    1    3    3    0    0 -0.10204007483E+03 -0.22196432305E+02 -0.31385100874E+03  0.33076776470E+03  0.00000000000E+00 0. -1.
          1    1    1    2  501    0 -0.64784017410E+02 -0.51558782034E+01  0.56400544399E+02  0.86049830914E+02  0.00000000000E+00 0. -1.
<scales pt_clust_5="13000.00000" pt_clust_6="13000.00000" pt_clust_7="13000.00000" pt_clust_8="13000.00000" pt_clust_9="64.98886"></scales>
<clustering>
<clus scale="   64.989">  1  9  2 -1</clus>
<clus scale="   91.934">  5  6 -1 -1</clus>
<clus scale="   97.780">  7  8 -1 -1</clus>
<clus scale="  142.938">  1  5  2 -1</clus>
<clus scale="   64.989">  1  5  2 -1</clus>
</clustering>
</event>
<event>
 9    1  0.1321469E-005  0.2792236E+03  0.7546771E-02  0.1136488E+00
          2   -1    0    0  502    0 -0.00000000000E+00  0.00000000000E+00  0.86459277802E+03  0.86459277802E+03  0.00000000000E+00 0. -1.
         21   -1    0    0  501  502  0.00000000000E+00 -0.00000000000E+00 -0.12629997767E+03  0.12629997767E+03  0.00000000000E+00 0.  1.
         23    2    1    2    0    0 -0.36748868509E+02  0.15829170094E+02  0.12728836595E+03  0.16248880803E+03  0.92732101594E+02 0.  0.
         23    2    1    2    0    0  0.23078403324E+03 -0.17254529898E+03  0.40181129582E+03  0.50287152311E+03  0.91620418591E+02 0.  0.
        -11    1    3    3    0    0 -0.55964674506E+02  0.33583152185E+02  0.11777508287E+03  0.13465081897E+03  0.00000000000E+00 0.  1.
         11    1    3    3    0    0  0.19215805997E+02 -0.17753982091E+02  0.95132830834E+01  0.27837989066E+02  0.00000000000E+00 0. -1.
        -13    1    4    4    0    0  0.12820468460E+03 -0.14130452509E+03  0.21482946658E+03  0.28732404995E+03  0.00000000000E+00 0.  1.
         13    1    4    4    0    0  0.10257934863E+03 -0.31240773889E+02  0.18698182924E+03  0.21554747316E+03  0.00000000000E+00 0. -1.
          2    1    1    2  501    0 -0.19403516473E+03  0.15671612889E+03  0.20919313857E+03  0.32553242454E+03  0.00000000000E+00 0. -1.
<scales pt_clust_5="13000.00000" pt_clust_6="13000.00000" pt_clust_7="13000.00000" pt_clust_8="13000.00000" pt_clust_9="263.76412"></scales>
<clustering>
<clus scale="   91.620">  7  8 -1 -1</clus>
<clus scale="   92.732">  5  6 -1 -1</clus>
<clus scale="  100.996">  1  5  2 -1</clus>
<clus scale="  263.764">  2  9  1 -1</clus>
<clus scale="  263.764">  2  5  1 -1</clus>
</clustering>
</event>
<event>
 9    1  0.1321469E-005  0.2037441E+03  0.7546771E-02  0.1160067E+00
         21   -1    0    0  501  502  0.00000000000E+00  0.00000000000E+00  0.11563414466E+04  0.11563414466E+04  0.00000000000E+00 0.  1.
         -2   -1    0    0    0  501 -0.00000000000E+00 -0.00000000000E+00 -0.66621866189E+02  0.66621866189E+02  0.00000000000E+00 0.  1.
         23    2    1    2    0    0 -0.68560260667E+02  0.94571678111E+02  0.28100716497E+03  0.31779741736E+03  0.91574341785E+02 0.  0.
         23    2    1    2    0    0 -0.75356497279E+02  0.10169523571E+03  0.21420927739E+03  0.26277449151E+03  0.84523938740E+02 0.  0.
        -11    1    3    3    0    0 -0.72830411668E+02  0.28554577672E+02  0.18833119068E+03  0.20393202336E+03  0.00000000000E+00 0.  1.
         11    1    3    3    0    0  0.42701510005E+01  0.66017100438E+02  0.92675974289E+02  0.11386539400E+03  0.00000000000E+00 0. -1.
        -13    1    4    4    0    0 -0.24189244287E+02  0.27960924820E+02  0.79245732023E+01  0.37811793351E+02  0.00000000000E+00 0. -1.
         13    1    4    4    0    0 -0.51167252991E+02  0.73734310888E+02  0.20628470419E+03  0.22496269816E+03  0.00000000000E+00 0.  1.
         -2    1    1    2    0  502  0.14391675795E+03 -0.19626691382E+03  0.59450313805E+03  0.64239140392E+03  0.00000000000E+00 0.  1.
<scales pt_clust_5="13000.00000" pt_clust_6="13000.00000" pt_clust_7="13000.00000" pt_clust_8="13000.00000" pt_clust_9="185.38445"></scales>
<clustering>
<clus scale="   84.524">  7  8 -1 -1</clus>
<clus scale="   91.574">  5  6 -1 -1</clus>
<clus scale="  148.426">  2  5  1 -1</clus>
<clus scale="  185.384">  1  9  2 -1</clus>
<clus scale="  185.384">  1  5  2 -1</clus>
</clustering>
</event>
<event>
 9    1  0.1321469E-005  0.1027753E+03  0.7546771E-02  0.1275296E+00
          1   -1    0    0  502    0 -0.00000000000E+00  0.00000000000E+00  0.15128633456E+03  0.15128633456E+03  0.00000000000E+00 0. -1.
         21   -1    0    0  501  502  0.00000000000E+00 -0.00000000000E+00 -0.22579016205E+03  0.22579016205E+03  0.00000000000E+00 0.  1.
         23    2    1    2    0    0 -0.26947869123E+02 -0.30903587973E+02  0.10426886709E+03  0.14567048329E+03  0.93094971169E+02 0.  0.
         23    2    1    2    0    0  0.24664010940E+02  0.55729361051E+02 -0.99437371411E+02  0.14824575527E+03  0.91514687358E+02 0.  0.
        -11    1    4    4    0    0 -0.27493259166E+02 -0.46311464897E+00 -0.74323625087E+01  0.28483921556E+02  0.00000000000E+00 0.  1.
         11    1    4    4    0    0  0.52157270106E+02  0.56192475700E+02 -0.92005008902E+02  0.11976183371E+03  0.00000000000E+00 0. -1.
        -11    1    3    3    0    0 -0.41961659461E+02 -0.47308106569E+02  0.33648144075E+02  0.71631246056E+02  0.00000000000E+00 0. -1.
         11    1    3    3    0    0  0.15013790338E+02  0.16404518596E+02  0.70620723014E+02  0.74039237231E+02  0.00000000000E+00 0.  1.
          1    1    1    2  501    0  0.22838581839E+01 -0.24825773078E+02 -0.79335323171E+02  0.83160258055E+02  0.00000000000E+00 0. -1.
<scales pt_clust_5="13000.00000" pt_clust_6="13000.00000" pt_clust_7="13000.00000" pt_clust_8="13000.00000" pt_clust_9="24.93060"></scales>
<clustering>
<clus scale="   24.931">  2  9  1 -1</clus>
<clus scale="   91.515">  5  6 -1 -1</clus>
<clus scale="   93.095">  7  8 -1 -1</clus>
<clus scale="  101.346">  2  5  1 -1</clus>
<clus scale="   24.931">  2  5  1 -1</clus>
</clustering>
</event>
<event>
 9    1  0.1321469E-005  0.1688817E+03  0.7546771E-02  0.1179257E+00
         21   -1    0    0  501  502  0.00000000000E+00  0.00000000000E+00  0.10222505860E+04  0.10222505860E+04  0.00000000000E+00 0. -1.
          1   -1    0    0  502    0 -0.00000000000E+00 -0.00000000000E+00 -0.21234931434E+03  0.21234931434E+03  0.00000000000E+00 0. -1.
         23    2    1    2    0    0 -0.13324847251E+03  0.66362059292E+02 -0.16086058749E+03  0.23724990387E+03  0.90842225537E+02 0.  0.
         23    2    1    2    0    0  0.44746430649E+02 -0.64625318420E+02  0.35322046720E+03  0.37349664955E+03  0.92500669941E+02 0.  0.
        -11    1    3    3    0    0 -0.12288385546E+02  0.18647306825E+02  0.83553255879E+01  0.23844033569E+02  0.00000000000E+00 0.  1.
         11    1    3    3    0    0 -0.12096008696E+03  0.47714752466E+02 -0.16921591308E+03  0.21340587031E+03  0.00000000000E+00 0. -1.
        -11    1    4    4    0    0  0.15889777620E+02 -0.61372682775E+02  0.33077099866E+03  0.33679154500E+03  0.00000000000E+00 0.  1.
         11    1    4    4    0    0  0.28856653029E+02 -0.32526356451E+01  0.22449468532E+02  0.36705104550E+02  0.00000000000E+00 0. -1.
          1    1    1    2  501    0  0.88502041856E+02 -0.17367408716E+01  0.61754139194E+03  0.62385334690E+03  0.00000000000E+00 0. -1.
<scales pt_clust_5="13000.00000" pt_clust_6="13000.00000" pt_clust_7="13000.00000" pt_clust_8="13000.00000" pt_clust_9="88.51908"></scales>
<clustering>
<clus scale="   88.519">  1  9  2 -1</clus>
<clus scale="   90.842">  5  6 -1 -1</clus>
<clus scale="   92.501">  7  8 -1 -1</clus>
<clus scale="  167.979">  2  5  1 -1</clus>
<clus scale="   88.519">  1  5  2 -1</clus>
</clustering>
</event>
<event>
 9    1  0.1321469E-005  0.1264965E+03  0.7546771E-02  0.1233284E+00
          1   -1    0    0  502    0 -0.00000000000E+00  0.00000000000E+00  0.14525600925E+03  0.14525600925E+03  0.00000000000E+00 0. -1.
         21   -1    0    0  501  502  0.00000000000E+00 -0.00000000000E+00 -0.14375061684E+03  0.14375061684E+03  0.00000000000E+00 0.  1.
         23    2    1    2    0    0 -0.29114075089E+02  0.66626956100E+02  0.88969669028E+01  0.11955000815E+03  0.94478927713E+02 0.  0.
         23    2    1    2    0    0  0.53626815513E+02 -0.81355560701E+02  0.11899977937E+02  0.13496067279E+03  0.92618632715E+02 0.  0.
        -11    1    3    3    0    0 -0.29522933055E+02  0.88571030828E+02  0.19181631535E+02  0.95311940839E+02  0.00000000000E+00 0. -1.
         11    1    3    3    0    0  0.40885796585E+00 -0.21944074728E+02 -0.10284664633E+02  0.24238067314E+02  0.00000000000E+00 0.  1.
        -13    1    4    4    0    0  0.28197345812E+02 -0.99308332453E+02  0.11016335320E+02  0.10382001180E+03  0.00000000000E+00 0.  1.
         13    1    4    4    0    0  0.25429469701E+02  0.17952771752E+02  0.88364261696E+00  0.31140660994E+02  0.00000000000E+00 0. -1.
          1    1    1    2  501    0 -0.24512740424E+02  0.14728604602E+02 -0.19291552430E+02  0.34495945149E+02  0.00000000000E+00 0. -1.
<scales pt_clust_5="13000.00000" pt_clust_6="13000.00000" pt_clust_7="13000.00000" pt_clust_8="13000.00000" pt_clust_9="28.59731"></scales>
<clustering>
<clus scale="   28.597">  2  9  1 -1</clus>
<clus scale="   92.619">  7  8 -1 -1</clus>
<clus scale="   94.479">  5  6 -1 -1</clus>
<clus scale="  125.113">  2  7  1 -1</clus>
<clus scale="   28.597">  2  5  1 -1</clus>
</clustering>
</event>
<event>
 9    1  0.1321469E-005  0.9298608E+02  0.7546771E-02  0.1296041E+00
         21   -1    0    0  501  502  0.00000000000E+00  0.00000000000E+00  0.13554089821E+03  0.13554089821E+03  0.00000000000E+00 0.  1.
          1   -1    0    0  502    0 -0.00000000000E+00 -0.00000000000E+00 -0.12323854094E+03  0.12323854094E+03  0.00000000000E+00 0. -1.
         23    2    1    2    0    0  0.16924589568E+02 -0.12431944902E+02 -0.56461232102E+02  0.10927884904E+03  0.91175660845E+02 0.  0.
         23    2    1    2    0    0  0.90355332188E+01  0.14456167747E+02  0.21680325695E+02  0.95696694601E+02  0.91636232947E+02 0.  0.
        -11    1    4    4    0    0 -0.36413682607E+02  0.15330312848E+02 -0.94221329587E+01  0.40617131392E+02  0.00000000000E+00 0.  1.
         11    1    4    4    0    0  0.45449215826E+02 -0.87414510086E+00  0.31102458654E+02  0.55079563208E+02  0.00000000000E+00 0. -1.
        -13    1    3    3    0    0 -0.16762573757E+02  0.30254365061E+02 -0.60187432587E+01  0.35107488583E+02  0.00000000000E+00 0.  1.
         13    1    3    3    0    0  0.33687163325E+02 -0.42686309962E+02 -0.50442488843E+02  0.74171360455E+02  0.00000000000E+00 0. -1.
          1    1    1    2  501    0 -0.25960122787E+02 -0.20242228454E+01  0.47083263682E+02  0.53803895511E+02  0.00000000000E+00 0. -1.
<scales pt_clust_5="13000.00000" pt_clust_6="13000.00000" pt_clust_7="13000.00000" pt_clust_8="13000.00000" pt_clust_9="26.03892"></scales>
<clustering>
<clus scale="   26.039">  1  9  2 -1</clus>
<clus scale="   91.176">  7  8 -1 -1</clus>
<clus scale="   91.636">  5  6 -1 -1</clus>
<clus scale="   92.532">  2  7  1 -1</clus>
<clus scale="   26.039">  1  5  2 -1</clus>
</clustering>
</event>
<event>
 9    1  0.1321469E-005  0.1006049E+03  0.7546771E-02  0.1281677E+00
         -3   -1    0    0    0  501 -0.00000000000E+00  0.00000000000E+00  0.29191888533E+02  0.29191888533E+02  0.00000000000E+00 0.  1.
         21   -1    0    0  501  502  0.00000000000E+00 -0.00000000000E+00 -0.50448768640E+03  0.50448768640E+03  0.00000000000E+00 0. -1.
         23    2    1    2    0    0 -0.19092276717E+01  0.15500531829E+02 -0.13931717590E+03  0.16784342940E+03  0.92294255790E+02 0.  0.
         23    2    1    2    0    0 -0.60684953984E+01 -0.37247510426E+02 -0.17975069913E+03  0.20790027559E+03  0.97406401653E+02 0.  0.
        -13    1    3    3    0    0 -0.33590117580E+02  0.40951758265E+02 -0.78180925339E+02  0.94433042897E+02  0.00000000000E+00 0.  1.
         13    1    3    3    0    0  0.31680889909E+02 -0.25451226436E+02 -0.61136250566E+02  0.73410386498E+02  0.00000000000E+00 0. -1.
        -13    1    4    4    0    0 -0.43423839672E+02 -0.14607854055E+02 -0.14505130404E+03  0.15211475949E+03  0.00000000000E+00 0.  1.
         13    1    4    4    0    0  0.37355344274E+02 -0.22639656371E+02 -0.34699395087E+02  0.55785516094E+02  0.00000000000E+00 0. -1.
         -3    1    1    2    0  502  0.79777230702E+01  0.21746978598E+02 -0.15622792284E+03  0.15793586995E+03  0.00000000000E+00 0.  1.
<scales pt_clust_5="13000.00000" pt_clust_6="13000.00000" pt_clust_7="13000.00000" pt_clust_8="13000.00000" pt_clust_9="23.16409"></scales>
<clustering>
<clus scale="   23.164">  2  9  1 -1</clus>
<clus scale="   92.294">  5  6 -1 -1</clus>
<clus scale="   95.664">  1  5  2 -1</clus>
<clus scale="   97.406">  7  8 -1 -1</clus>
<clus scale="   23.164">  2  5  1 -1</clus>
</clustering>
</event>
<event>
 9    1  0.2462581E-005  0.1083259E+03  0.7546771E-02  0.1264259E+00
         21   -1    0    0  501  502  0.00000000000E+00  0.00000000000E+00  0.76827773905E+02  0.76827773905E+02  0.00000000000E+00 0.  1.
          3   -1    0    0  502    0 -0.00000000000E+00 -0.00000000000E+00 -0.62400062239E+03  0.62400062239E+03  0.00000000000E+00 0. -1.
         23    2    1    2    0    0  0.40261453111E+01 -0.55936032529E+02 -0.54631605012E+03  0.55677812629E+03  0.91627537970E+02 0.  0.
         23    2    1    2    0    0 -0.35538940838E+02  0.46451899119E+02  0.74429021567E+01  0.11011076357E+03  0.92995635453E+02 0.  0.
        -11    1    3    3    0    0  0.34044449762E+02  0.92988426678E+01 -0.20095845479E+03  0.20403380501E+03  0.00000000000E+00 0.  1.
         11    1    3    3    0    0 -0.30018304451E+02 -0.65234875197E+02 -0.34535759533E+03  0.35274432128E+03  0.00000000000E+00 0. -1.
        -13    1    4    4    0    0 -0.31511297699E+02  0.66455989381E+02  0.30233500489E+02  0.79519965788E+02  0.00000000000E+00 0.  1.
         13    1    4    4    0    0 -0.40276431397E+01 -0.20004090261E+02 -0.22790598332E+02  0.30590797779E+02  0.00000000000E+00 0. -1.
          3    1    1    2  501    0  0.31512795527E+02  0.94841334097E+01 -0.82997005209E+01  0.33939506437E+02  0.00000000000E+00 0. -1.
<scales pt_clust_5="13000.00000" pt_clust_6="13000.00000" pt_clust_7="13000.00000" pt_clust_8="13000.00000" pt_clust_9="32.90904"></scales>
<clustering>
<clus scale="   32.909">  1  9  2 -1</clus>
<clus scale="   91.628">  5  6 -1 -1</clus>
<clus scale="   92.996">  7  8 -1 -1</clus>
<clus scale="  107.154">  2  5  1 -1</clus>
<clus scale="   32.909">  1  5  2 -1</clus>
</clustering>
</event>
<event>
 9    1  0.1321469E-005  0.9616891E+02  0.7546771E-02  0.1288792E+00
          1   -1    0    0  502    0 -0.00000000000E+00  0.00000000000E+00  0.14106663064E+03  0.14106663064E+03  0.00000000000E+00 0. -1.
         21   -1    0    0  501  502  0.00000000000E+00 -0.00000000000E+00 -0.99599432713E+02  0.99599432713E+02  0.00000000000E+00 0.  1.
         23    2    1    2    0    0 -0.24147934508E+02 -0.16718932129E+02  0.45182894046E+02  0.10604197375E+03  0.91327766043E+02 0.  0.
         23    2    1    2    0    0  0.11326336436E+02  0.32697974027E+02  0.23981488834E+02  0.10017329553E+03  0.90896281158E+02 0.  0.
        -11    1    3    3    0    0  0.81648987508E+01 -0.43999362829E+02  0.82794100556E+00  0.44758183468E+02  0.00000000000E+00 0.  1.
         11    1    3    3    0    0 -0.32312833259E+02  0.27280430701E+02  0.44354953040E+02  0.61283790285E+02  0.00000000000E+00 0. -1.
        -13    1    4    4    0    0 -0.74863662446E+01 -0.30303711373E+02  0.11390556504E+02  0.33228081196E+02  0.00000000000E+00 0.  1.
         13    1    4    4    0    0  0.18812702680E+02  0.63001685400E+02  0.12590932330E+02  0.66945214334E+02  0.00000000000E+00 0. -1.
          1    1    1    2  501    0  0.12821598073E+02 -0.15979041898E+02 -0.27697184958E+02  0.34450794065E+02  0.00000000000E+00 0. -1.
<scales pt_clust_5="13000.00000" pt_clust_6="13000.00000" pt_clust_7="13000.00000" pt_clust_8="13000.00000" pt_clust_9="20.48715"></scales>
<clustering>
<clus scale="   20.487">  2  9  1 -1</clus>
<clus scale="   90.896">  7  8 -1 -1</clus>
<clus scale="   91.328">  5  6 -1 -1</clus>
<clus scale="   95.759">  2  7  1 -1</clus>
<clus scale="   20.487">  2  5  1 -1</clus>
</clustering>
</event>
<event>
 9    1  0.1321469E-005  0.1152675E+03  0.7546771E-02  0.1252390E+00
         -1   -1    0    0    0  501 -0.00000000000E+00  0.00000000000E+00  0.48340292635E+03  0.48340292635E+03  0.00000000000E+00 0.  1.
         21   -1    0    0  501  502  0.00000000000E+00 -0.00000000000E+00 -0.11684580937E+03  0.11684580937E+03  0.00000000000E+00 0.  1.
         23    2    1    2    0    0 -0.21560643672E+02  0.43781529875E+02  0.22124953522E+03  0.24440781115E+03  0.91663174739E+02 0.  0.
         23    2    1    2    0    0  0.59429457816E+02 -0.88238692557E+02  0.22079033025E+03  0.26040439216E+03  0.88000853436E+02 0.  0.
        -13    1    3    3    0    0  0.11853375584E+02 -0.21571220189E+02  0.25928090363E+02  0.35750327594E+02  0.00000000000E+00 0.  1.
         13    1    3    3    0    0 -0.33414019256E+02  0.65352750064E+02  0.19532144485E+03  0.20865748356E+03  0.00000000000E+00 0. -1.
        -13    1    4    4    0    0  0.15986101073E+02 -0.92711134939E+02  0.15876845324E+03  0.18454899543E+03  0.00000000000E+00 0.  1.
         13    1    4    4    0    0  0.43443356743E+02  0.44724423821E+01  0.62021877004E+02  0.75855396730E+02  0.00000000000E+00 0. -1.
         -1    1    1    2    0  502 -0.37868814145E+02  0.44457162682E+02 -0.75482748487E+02  0.95436532406E+02  0.00000000000E+00 0.  1.
<scales pt_clust_5="13000.00000" pt_clust_6="13000.00000" pt_clust_7="13000.00000" pt_clust_8="13000.00000" pt_clust_9="58.39937"></scales>
<clustering>
<clus scale="   58.399">  2  9  1 -1</clus>
<clus scale="   88.001">  7  8 -1 -1</clus>
<clus scale="   91.663">  5  6 -1 -1</clus>
<clus scale="  112.377">  2  7  1 -1</clus>
<clus scale="   58.399">  2  5  1 -1</clus>
</clustering>
</event>
<event>
 9    1  0.1321469E-005  0.1105474E+03  0.7546771E-02  0.1261279E+00
         -1   -1    0    0    0  501 -0.00000000000E+00  0.00000000000E+00  0.33013988269E+03  0.33013988269E+03  0.00000000000E+00 0.  1.
         21   -1    0    0  501  502  0.00000000000E+00 -0.00000000000E+00 -0.73019884880E+02  0.73019884880E+02  0.00000000000E+00 0. -1.
         23    2    1    2    0    0  0.63901949104E+02  0.81483982984E+00  0.19745975133E+03  0.22491812666E+03  0.86681527693E+02 0.  0.
         23    2    1    2    0    0 -0.58506605634E+02  0.23548737195E+02  0.87225362500E+02  0.14105926285E+03  0.91169544518E+02 0.  0.
        -11    1    3    3    0    0  0.29400187611E+02  0.36241436366E+02  0.14715498046E+03  0.15437746278E+03  0.00000000000E+00 0. -1.
         11    1    3    3    0    0  0.34501761493E+02 -0.35426596536E+02  0.50304770872E+02  0.70540663881E+02  0.00000000000E+00 0.  1.
        -13    1    4    4    0    0  0.15165438136E+02  0.30566345774E+02  0.42824143557E+02  0.54755815026E+02  0.00000000000E+00 0. -1.
         13    1    4    4    0    0 -0.73672043770E+02 -0.70176085796E+01  0.44401218943E+02  0.86303447828E+02  0.00000000000E+00 0.  1.
         -1    1    1    2    0  502 -0.53953434696E+01 -0.24363577024E+02 -0.27565116018E+02  0.37182378053E+02  0.00000000000E+00 0.  1.
<scales pt_clust_5="13000.00000" pt_clust_6="13000.00000" pt_clust_7="13000.00000" pt_clust_8="13000.00000" pt_clust_9="24.95383"></scales>
<clustering>
<clus scale="   24.954">  2  9  1 -1</clus>
<clus scale="   86.682">  5  6 -1 -1</clus>
<clus scale="   91.170">  7  8 -1 -1</clus>
<clus scale="  106.876">  1  5  2 -1</clus>
<clus scale="   24.954">  2  5  1 -1</clus>
</clustering>
</event>
<event>
 9    1  0.1321469E-005  0.1462818E+03  0.7546771E-02  0.1205666E+00
         -1   -1    0    0    0  501 -0.00000000000E+00  0.00000000000E+00  0.51585813730E+03  0.51585813730E+03  0.00000000000E+00 0.  1.
         21   -1    0    0  501  502  0.00000000000E+00 -0.00000000000E+00 -0.19020073797E+03  0.19020073797E+03  0.00000000000E+00 0.  1.
         23    2    1    2    0    0 -0.45598423011E+02 -0.11161086208E+03  0.43020549051E+03  0.45584230198E+03  0.90439147987E+02 0.  0.
         23    2    1    2    0    0  0.50846355501E+02  0.63676484276E+02  0.11744922081E+02  0.12432252934E+03  0.93156328766E+02 0.  0.
        -11    1    3    3    0    0  0.23098262399E+02 -0.29600964987E+02  0.17745152220E+03  0.18138023482E+03  0.00000000000E+00 0.  1.
         11    1    3    3    0    0 -0.68696685410E+02 -0.82009897092E+02  0.25275396832E+03  0.27446206716E+03  0.00000000000E+00 0. -1.
        -13    1    4    4    0    0  0.74733154510E+02  0.57578533947E+02  0.23178742134E+02  0.97147238980E+02  0.00000000000E+00 0.  1.
         13    1    4    4    0    0 -0.23886799009E+02  0.60979503282E+01 -0.11433820053E+02  0.27175290359E+02  0.00000000000E+00 0. -1.
         -1    1    1    2    0  502 -0.52479324902E+01  0.47934377803E+02 -0.11629301327E+03  0.12589404396E+03  0.00000000000E+00 0.  1.
<scales pt_clust_5="13000.00000" pt_clust_6="13000.00000" pt_clust_7="13000.00000" pt_clust_8="13000.00000" pt_clust_9="48.22080"></scales>
<clustering>
<clus scale="   48.221">  2  9  1 -1</clus>
<clus scale="   90.439">  5  6 -1 -1</clus>
<clus scale="   93.156">  7  8 -1 -1</clus>
<clus scale="  144.567">  1  5  2 -1</clus>
<clus scale="   48.221">  2  5  1 -1</clus>
</clustering>
</event>
<event>
 9    1  0.1321469E-005  0.9344766E+02  0.7546771E-02  0.1295345E+00
         21   -1    0    0  501  502  0.00000000000E+00  0.00000000000E+00  0.26340333819E+03  0.26340333819E+03  0.00000000000E+00 0. -1.
          1   -1    0    0  502    0 -0.00000000000E+00 -0.00000000000E+00 -0.21724942565E+03  0.21724942565E+03  0.00000000000E+00 0. -1.
         23    2    1    2    0    0  0.18251334973E+02 -0.81952479423E+01 -0.13684780709E+03  0.16576863747E+03  0.91387337996E+02 0.  0.
         23    2    1    2    0    0  0.84064169402E+01 -0.51344712943E+02 -0.14296238652E+02  0.10708102960E+03  0.92493335262E+02 0.  0.
        -11    1    3    3    0    0 -0.26954608265E+02  0.25015435507E+02 -0.44608883648E+02  0.57812415800E+02  0.00000000000E+00 0.  1.
         11    1    3    3    0    0  0.45205943239E+02 -0.33210683450E+02 -0.92238923445E+02  0.10795622167E+03  0.00000000000E+00 0. -1.
        -13    1    4    4    0    0 -0.10625984260E+01  0.21171172653E+02 -0.25430528617E+02  0.33106788619E+02  0.00000000000E+00 0.  1.
         13    1    4    4    0    0  0.94690153662E+01 -0.72515885597E+02  0.11134289965E+02  0.73974240982E+02  0.00000000000E+00 0. -1.
          1    1    1    2  501    0 -0.26657751913E+02  0.59539960886E+02  0.19729795829E+03  0.20780309676E+03  0.00000000000E+00 0. -1.
<scales pt_clust_5="13000.00000" pt_clust_6="13000.00000" pt_clust_7="13000.00000" pt_clust_8="13000.00000" pt_clust_9="65.23529"></scales>
<clustering>
<clus scale="   65.235">  1  9  2 -1</clus>
<clus scale="   91.387">  5  6 -1 -1</clus>
<clus scale="   92.353">  2  5  1 -1</clus>
<clus scale="   92.493">  7  8 -1 -1</clus>
<clus scale="   65.235">  1  5  2 -1</clus>
</clustering>
</event>
<event>
 9    1  0.1321469E-005  0.1349140E+03  0.7546771E-02  0.1222350E+00
         -1   -1    0    0    0  501 -0.00000000000E+00  0.00000000000E+00  0.96016928867E+02  0.96016928867E+02  0.00000000000E+00 0.  1.
         21   -1    0    0  501  502  0.00000000000E+00 -0.00000000000E+00 -0.28172725046E+03  0.28172725046E+03  0.00000000000E+00 0. -1.
         23    2    1    2    0    0  0.37970515820E+02  0.78815827239E+02 -0.48441600686E+02  0.14215290441E+03  0.10103051450E+03 0.  0.
         23    2    1    2    0    0 -0.36264205890E+01 -0.95259641294E+02 -0.53982559574E+02  0.14401343607E+03  0.93478354954E+02 0.  0.
        -11    1    3    3    0    0  0.18261669345E+02  0.27728987767E+02 -0.74461355503E+02  0.81528392558E+02  0.00000000000E+00 0. -1.
         11    1    3    3    0    0  0.19708846474E+02  0.51086839472E+02  0.26019754817E+02  0.60624511852E+02  0.00000000000E+00 0.  1.
        -13    1    4    4    0    0  0.34167793945E+02 -0.32636083002E+02 -0.52806429381E+02  0.70859516233E+02  0.00000000000E+00 0. -1.
         13    1    4    4    0    0 -0.37794214534E+02 -0.62623558291E+02 -0.11761301929E+01  0.73153919837E+02  0.00000000000E+00 0.  1.
         -1    1    1    2    0  502 -0.34344095231E+02  0.16443814055E+02 -0.83286161329E+02  0.91577838841E+02  0.00000000000E+00 0.  1.
<scales pt_clust_5="13000.00000" pt_clust_6="13000.00000" pt_clust_7="13000.00000" pt_clust_8="13000.00000" pt_clust_9="38.07776"></scales>
<clustering>
<clus scale="   38.078">  2  9  1 -1</clus>
<clus scale="   93.478">  7  8 -1 -1</clus>
<clus scale="  101.031">  5  6 -1 -1</clus>
<clus scale="  129.355">  2  7  1 -1</clus>
<clus scale="   38.078">  2  5  1 -1</clus>
</clustering>
</event>
<event>
 9    1  0.1321469E-005  0.1609479E+03  0.7546771E-02  0.1207935E+00
          2   -1    0    0  502    0 -0.00000000000E+00  0.00000000000E+00  0.38052088769E+03  0.38052088769E+03  0.00000000000E+00 0. -1.
         21   -1    0    0  501  502  0.00000000000E+00 -0.00000000000E+00 -0.10957382325E+03  0.10957382325E+03  0.00000000000E+00 0.  1.
         23    2    1    2    0    0  0.46354454374E+02  0.18841699082E+02  0.72111250006E+02  0.12604288937E+03  0.90460115625E+02 0.  0.
         23    2    1    2    0    0  0.92768084010E+02 -0.66292458630E+02  0.15170934272E+03  0.20969004001E+03  0.89182849974E+02 0.  0.
        -11    1    3    3    0    0 -0.11622240731E+02  0.36698882908E+02  0.46041088329E+02  0.60013884234E+02  0.00000000000E+00 0. -1.
         11    1    3    3    0    0  0.57976695106E+02 -0.17857183825E+02  0.26070161677E+02  0.66029005137E+02  0.00000000000E+00 0.  1.
        -13    1    4    4    0    0  0.53295795642E+02 -0.18822373796E+02  0.13404687600E+03  0.14547607553E+03  0.00000000000E+00 0.  1.
         13    1    4    4    0    0  0.39472288368E+02 -0.47470084834E+02  0.17662466724E+02  0.64213964478E+02  0.00000000000E+00 0. -1.
          2    1    1    2  501    0 -0.13912253838E+03  0.47450759548E+02  0.47126471722E+02  0.15436178156E+03  0.00000000000E+00 0. -1.
<scales pt_clust_5="13000.00000" pt_clust_6="13000.00000" pt_clust_7="13000.00000" pt_clust_8="13000.00000" pt_clust_9="133.98008"></scales>
<clustering>
<clus scale="   89.183">  7  8 -1 -1</clus>
<clus scale="   90.460">  5  6 -1 -1</clus>
<clus scale="  103.377">  1  5  2 -1</clus>
<clus scale="  133.980">  2  9  1 -1</clus>
<clus scale="  133.980">  2  5  1 -1</clus>
</clustering>
</event>
<event>
 9    1  0.1321469E-005  0.1505117E+03  0.7546771E-02  0.1220444E+00
         21   -1    0    0  501  502  0.00000000000E+00  0.00000000000E+00  0.30782101667E+03  0.30782101667E+03  0.00000000000E+00 0.  1.
         -1   -1    0    0    0  501 -0.00000000000E+00 -0.00000000000E+00 -0.22250019801E+03  0.22250019801E+03  0.00000000000E+00 0.  1.
         23    2    1    2    0    0  0.65811804250E+01  0.35039743777E+02 -0.10537480618E+02  0.97528168235E+02  0.90164347288E+02 0.  0.
         23    2    1    2    0    0  0.27729623417E+02  0.85102269009E+02 -0.12593649727E+03  0.17822622561E+03  0.88844009055E+02 0.  0.
        -11    1    4    4    0    0  0.57935220887E+02  0.73797204877E+02 -0.95653844732E+02  0.13398572789E+03  0.00000000000E+00 0.  1.
         11    1    4    4    0    0 -0.30205597470E+02  0.11305064133E+02 -0.30282652539E+02  0.44240497718E+02  0.00000000000E+00 0. -1.
        -13    1    3    3    0    0  0.19944602807E+02 -0.19028857426E+02  0.19956077773E+02  0.34031303768E+02  0.00000000000E+00 0. -1.
         13    1    3    3    0    0 -0.13363422382E+02  0.54068601203E+02 -0.30493558391E+02  0.63496864467E+02  0.00000000000E+00 0.  1.
         -1    1    1    2    0  502 -0.34310803842E+02 -0.12014201279E+03  0.22179479654E+03  0.25456682084E+03  0.00000000000E+00 0.  1.
<scales pt_clust_5="13000.00000" pt_clust_6="13000.00000" pt_clust_7="13000.00000" pt_clust_8="13000.00000" pt_clust_9="121.49284"></scales>
<clustering>
<clus scale="   88.844">  5  6 -1 -1</clus>
<clus scale="   90.164">  7  8 -1 -1</clus>
<clus scale="   96.957">  2  7  1 -1</clus>
<clus scale="  121.493">  1  9  2 -1</clus>
<clus scale="  121.493">  1  5  2 -1</clus>
</clustering>
</event>
<event>
 9    1  0.1321469E-005  0.9343347E+02  0.7546771E-02  0.1296848E+00
         21   -1    0    0  501  502  0.00000000000E+00  0.00000000000E+00  0.69759824224E+02  0.69759824224E+02  0.00000000000E+00 0. -1.
         -1   -1    0    0    0  501 -0.00000000000E+00 -0.00000000000E+00 -0.40052835616E+03  0.40052835616E+03  0.00000000000E+00 0.  1.
         23    2    1    2    0    0  0.67182980442E+01 -0.13086076869E+02 -0.31961014445E+03  0.33293101878E+03  0.92065400097E+02 0.  0.
         23    2    1    2    0    0 -0.41087902039E+02 -0.20214271329E+01 -0.18044748716E+02  0.99187431091E+02  0.88432073755E+02 0.  0.
        -11    1    3    3    0    0  0.48339022947E+02 -0.70172668420E+01 -0.13428617789E+03  0.14289394929E+03  0.00000000000E+00 0.  1.
         11    1    3    3    0    0 -0.41620724903E+02 -0.60688100274E+01 -0.18532396656E+03  0.19003706949E+03  0.00000000000E+00 0. -1.
        -13    1    4    4    0    0 -0.57089200020E+02  0.16435178953E+02 -0.35461626388E+02  0.69186839878E+02  0.00000000000E+00 0.  1.
         13    1    4    4    0    0  0.16001297981E+02 -0.18456606086E+02  0.17416877672E+02  0.30000591213E+02  0.00000000000E+00 0. -1.
         -1    1    1    2    0  502  0.34369603995E+02  0.15107504002E+02  0.68863612344E+01  0.38169730507E+02  0.00000000000E+00 0.  1.
<scales pt_clust_5="13000.00000" pt_clust_6="13000.00000" pt_clust_7="13000.00000" pt_clust_8="13000.00000" pt_clust_9="37.54339"></scales>
<clustering>
<clus scale="   37.543">  1  9  2 -1</clus>
<clus scale="   88.432">  7  8 -1 -1</clus>
<clus scale="   89.855">  1  7  2 -1</clus>
<clus scale="   92.065">  5  6 -1 -1</clus>
<clus scale="   37.543">  1  5  2 -1</clus>
</clustering>
</event>
<event>
 9    1  0.1321469E-005  0.1494314E+03  0.7546771E-02  0.1201623E+00
         21   -1    0    0  501  502  0.00000000000E+00  0.00000000000E+00  0.18746420167E+03  0.18746420167E+03  0.00000000000E+00 0.  1.
          1   -1    0    0  502    0 -0.00000000000E+00 -0.00000000000E+00 -0.22387276155E+03  0.22387276155E+03  0.00000000000E+00 0. -1.
         23    2    1    2    0    0  0.11327910376E+03 -0.16009496827E+02 -0.13885028739E+03  0.20190701348E+03  0.91643769262E+02 0.  0.
         23    2    1    2    0    0 -0.13189473733E+03  0.25696676797E+02  0.94697379699E+02  0.18706126198E+03  0.89262428143E+02 0.  0.
        -11    1    3    3    0    0  0.42595023322E+01 -0.26493088998E+02 -0.63587406003E+02  0.69017282813E+02  0.00000000000E+00 0.  1.
         11    1    3    3    0    0  0.10901960143E+03  0.10483592170E+02 -0.75262881387E+02  0.13288973066E+03  0.00000000000E+00 0. -1.
        -13    1    4    4    0    0 -0.76396925077E+02  0.59047464574E+02  0.57997302532E+02  0.11263560865E+03  0.00000000000E+00 0.  1.
         13    1    4    4    0    0 -0.55497812256E+02 -0.33350787778E+02  0.36700077167E+02  0.74425653337E+02  0.00000000000E+00 0. -1.
          1    1    1    2  501    0  0.18615633570E+02 -0.96871799698E+01  0.77443478112E+01  0.22368687757E+02  0.00000000000E+00 0. -1.
<scales pt_clust_5="13000.00000" pt_clust_6="13000.00000" pt_clust_7="13000.00000" pt_clust_8="13000.00000" pt_clust_9="20.98531"></scales>
<clustering>
<clus scale="   20.985">  1  9  2 -1</clus>
<clus scale="   89.262">  7  8 -1 -1</clus>
<clus scale="   91.644">  5  6 -1 -1</clus>
<clus scale="  147.983">  1  7  2 -1</clus>
<clus scale="   20.985">  1  5  2 -1</clus>
</clustering>
</event>
<event>
 9    1  0.1321469E-005  0.1202634E+03  0.7546771E-02  0.1244511E+00
         21   -1    0    0  501  502  0.00000000000E+00  0.00000000000E+00  0.81732297525E+02  0.81732297525E+02  0.00000000000E+00 0.  1.
         -1   -1    0    0    0  501 -0.00000000000E+00 -0.00000000000E+00 -0.55305695915E+03  0.55305695915E+03  0.00000000000E+00 0.  1.
         23    2    1    2    0    0 -0.82812028729E+02  0.56793255001E+02 -0.34253293541E+03  0.36926439867E+03  0.94573137667E+02 0.  0.
         23    2    1    2    0    0  0.42960605083E+02 -0.20595131400E+02 -0.17003824693E+03  0.19770365491E+03  0.88904199669E+02 0.  0.
        -11    1    3    3    0    0 -0.21896966905E+02 -0.26056657085E+02 -0.10640802793E+03  0.11171882091E+03  0.00000000000E+00 0. -1.
         11    1    3    3    0    0 -0.60915061824E+02  0.82849912086E+02 -0.23612490747E+03  0.25754557775E+03  0.00000000000E+00 0.  1.
        -13    1    4    4    0    0  0.30314311076E+02 -0.50903603150E+02 -0.66413457514E+02  0.88999334877E+02  0.00000000000E+00 0.  1.
         13    1    4    4    0    0  0.12646294008E+02  0.30308471750E+02 -0.10362478942E+03  0.10870432004E+03  0.00000000000E+00 0. -1.
         -1    1    1    2    0  502  0.39851423646E+02 -0.36198123601E+02  0.41246520714E+02  0.67821203099E+02  0.00000000000E+00 0.  1.
<scales pt_clust_5="13000.00000" pt_clust_6="13000.00000" pt_clust_7="13000.00000" pt_clust_8="13000.00000" pt_clust_9="53.83716"></scales>
<clustering>
<clus scale="   53.837">  1  9  2 -1</clus>
<clus scale="   88.904">  7  8 -1 -1</clus>
<clus scale="   94.573">  5  6 -1 -1</clus>
<clus scale="  115.858">  1  7  2 -1</clus>
<clus scale="   53.837">  1  5  2 -1</clus>
</clustering>
</event>
<event>
 9    1  0.1321469E-005  0.1758049E+03  0.7546771E-02  0.1173951E+00
         21   -1    0    0  501  502  0.00000000000E+00  0.00000000000E+00  0.73002774222E+02  0.73002774222E+02  0.00000000000E+00 0.  1.
          1   -1    0    0  502    0 -0.00000000000E+00 -0.00000000000E+00 -0.70799278623E+03  0.70799278623E+03  0.00000000000E+00 0. -1.
         23    2    1    2    0    0  0.96013200774E+02 -0.12841920637E+03 -0.46294628853E+03  0.50123517445E+03  0.10586504033E+03 0.  0.
         23    2    1    2    0    0 -0.74876503767E+02  0.85191872448E+02 -0.17908209035E+03  0.23113013855E+03  0.92122743747E+02 0.  0.
        -11    1    4    4    0    0  0.15260010965E+02  0.40608383796E+02 -0.36730109371E+02  0.56841971320E+02  0.00000000000E+00 0. -1.
         11    1    4    4    0    0 -0.90136514733E+02  0.44583488652E+02 -0.14235198098E+03  0.17428816723E+03  0.00000000000E+00 0.  1.
        -13    1    3    3    0    0 -0.21029659855E+02 -0.61190160266E+01 -0.38789884996E+02  0.44545977694E+02  0.00000000000E+00 0.  1.
         13    1    3    3    0    0  0.11704286063E+03 -0.12230019034E+03 -0.42415640353E+03  0.45668919676E+03  0.00000000000E+00 0. -1.
          1    1    1    2  501    0 -0.21136697007E+02  0.43227333920E+02  0.70383668701E+01  0.48630247443E+02  0.00000000000E+00 0. -1.
<scales pt_clust_5="13000.00000" pt_clust_6="13000.00000" pt_clust_7="13000.00000" pt_clust_8="13000.00000" pt_clust_9="48.11821"></scales>
<clustering>
<clus scale="   48.118">  1  9  2 -1</clus>
<clus scale="   92.123">  5  6 -1 -1</clus>
<clus scale="  105.865">  7  8 -1 -1</clus>
<clus scale="  167.888">  1  5  2 -1</clus>
<clus scale="   48.118">  1  5  2 -1</clus>
</clustering>
</event>
<event>
 9    1  0.1321469E-005  0.1245129E+03  0.7546771E-02  0.1237157E+00
         -1   -1    0    0    0  501 -0.00000000000E+00  0.00000000000E+00  0.12615208545E+03  0.12615208545E+03  0.00000000000E+00 0.  1.
         21   -1    0    0  501  502  0.00000000000E+00 -0.00000000000E+00 -0.18525151141E+03  0.18525151141E+03  0.00000000000E+00 0. -1.
         23    2    1    2    0    0 -0.19856050561E+02 -0.89928461174E+02  0.35935880828E+02  0.13304288641E+03  0.89037246251E+02 0.  0.
         23    2    1    2    0    0 -0.11351511212E+02  0.79651458581E+02 -0.63075407783E+02  0.13252443837E+03  0.84326793118E+02 0.  0.
        -13    1    3    3    0    0  0.12833423957E+02 -0.42439947099E+02  0.56511728137E+02  0.71829111767E+02  0.00000000000E+00 0.  1.
         13    1    3    3    0    0 -0.32689474518E+02 -0.47488514075E+02 -0.20575847309E+02  0.61213774641E+02  0.00000000000E+00 0. -1.
        -13    1    4    4    0    0 -0.34818132480E+02  0.35628471854E+02 -0.65837990433E+02  0.82561076424E+02  0.00000000000E+00 0.  1.
         13    1    4    4    0    0  0.23466621268E+02  0.44022986727E+02  0.27625826498E+01  0.49963361946E+02  0.00000000000E+00 0. -1.
         -1    1    1    2    0  502  0.31207561773E+02  0.10277002593E+02 -0.31959899000E+02  0.45836272080E+02  0.00000000000E+00 0.  1.
<scales pt_clust_5="13000.00000" pt_clust_6="13000.00000" pt_clust_7="13000.00000" pt_clust_8="13000.00000" pt_clust_9="32.85618"></scales>
<clustering>
<clus scale="   32.856">  2  9  1 -1</clus>
<clus scale="   84.327">  7  8 -1 -1</clus>
<clus scale="   89.037">  5  6 -1 -1</clus>
<clus scale="  121.189">  2  7  1 -1</clus>
<clus scale="   32.856">  2  5  1 -1</clus>
</clustering>
</event>
<event>
 9    1  0.1321469E-005  0.9815307E+02  0.7546771E-02  0.1284882E+00
         -1   -1    0    0    0  501 -0.00000000000E+00  0.00000000000E+00  0.31229587673E+03  0.31229587673E+03  0.00000000000E+00 0.  1.
         21   -1    0    0  501  502  0.00000000000E+00 -0.00000000000E+00 -0.16633055264E+03  0.16633055264E+03  0.00000000000E+00 0. -1.
         23    2    1    2    0    0 -0.18694393290E+02 -0.32964872675E+02  0.27183595104E+03  0.28889445236E+03  0.90161284142E+02 0.  0.
         23    2    1    2    0    0  0.64245271427E+01  0.50974652231E+02 -0.56794641413E+02  0.11729998441E+03  0.88847990019E+02 0.  0.
        -11    1    3    3    0    0 -0.47499965328E+02 -0.41604964171E+02  0.22085353399E+03  0.22970307622E+03  0.00000000000E+00 0.  1.
         11    1    3    3    0    0  0.28805572037E+02  0.86400914954E+01  0.50982417051E+02  0.59191376143E+02  0.00000000000E+00 0. -1.
        -13    1    4    4    0    0 -0.19852080922E+02 -0.11834925992E+02 -0.41525801468E+02  0.47524338794E+02  0.00000000000E+00 0.  1.
         13    1    4    4    0    0  0.26276608065E+02  0.62809578223E+02 -0.15268839944E+02  0.69775645617E+02  0.00000000000E+00 0. -1.
         -1    1    1    2    0  502  0.12269866148E+02 -0.18009779555E+02 -0.69075985537E+02  0.72431992605E+02  0.00000000000E+00 0.  1.
<scales pt_clust_5="13000.00000" pt_clust_6="13000.00000" pt_clust_7="13000.00000" pt_clust_8="13000.00000" pt_clust_9="21.79224"></scales>
<clustering>
<clus scale="   21.792">  2  9  1 -1</clus>
<clus scale="   88.848">  7  8 -1 -1</clus>
<clus scale="   90.161">  5  6 -1 -1</clus>
<clus scale="   96.948">  2  7  1 -1</clus>
<clus scale="   21.792">  2  5  1 -1</clus>
</clustering>
</event>
<event>
 9    1  0.1321469E-005  0.1024280E+03  0.7546771E-02  0.1284788E+00
         21   -1    0    0  501  502  0.00000000000E+00  0.00000000000E+00  0.93200440659E+02  0.93200440659E+02  0.00000000000E+00 0. -1.
         -1   -1    0    0    0  501 -0.00000000000E+00 -0.00000000000E+00 -0.14051915157E+03  0.14051915157E+03  0.00000000000E+00 0.  1.
         23    2    1    2    0    0 -0.29059618829E+02  0.41812978746E+02 -0.26633253513E+02  0.90662725433E+02  0.70125693952E+02 0.  0.
         23    2    1    2    0    0  0.51534398023E+02 -0.13851533980E+02 -0.78357323101E+01  0.10495078424E+03  0.90031157040E+02 0.  0.
        -11    1    4    4    0    0 -0.43944619356E+01  0.23074142269E+02 -0.26470349231E+02  0.35389358932E+02  0.00000000000E+00 0.  1.
         11    1    4    4    0    0  0.55928859958E+02 -0.36925676250E+02  0.18634616921E+02  0.69561425305E+02  0.00000000000E+00 0. -1.
        -13    1    3    3    0    0 -0.24618987667E+02 -0.14912221947E+02 -0.26127607005E+01  0.28901478087E+02  0.00000000000E+00 0. -1.
         13    1    3    3    0    0 -0.44406311617E+01  0.56725200693E+02 -0.24020492812E+02  0.61761247346E+02  0.00000000000E+00 0.  1.
         -1    1    1    2    0  502 -0.22474779194E+02 -0.27961444765E+02 -0.12849725089E+02  0.38106082560E+02  0.00000000000E+00 0.  1.
<scales pt_clust_5="13000.00000" pt_clust_6="13000.00000" pt_clust_7="13000.00000" pt_clust_8="13000.00000" pt_clust_9="35.87422"></scales>
<clustering>
<clus scale="   35.874">  1  9  2 -1</clus>
<clus scale="   70.126">  7  8 -1 -1</clus>
<clus scale="   85.460">  2  7  1 -1</clus>
<clus scale="   90.031">  5  6 -1 -1</clus>
<clus scale="   35.874">  1  5  2 -1</clus>
</clustering>
</event>
<event>
 9    1  0.1321469E-005  0.2553339E+03  0.7546771E-02  0.1141650E+00
         -4   -1    0    0    0  501 -0.00000000000E+00  0.00000000000E+00  0.33940270726E+03  0.33940270726E+03  0.00000000000E+00 0.  1.
         21   -1    0    0  501  502  0.00000000000E+00 -0.00000000000E+00 -0.73744190153E+03  0.73744190153E+03  0.00000000000E+00 0.  1.
         23    2    1    2    0    0 -0.17632171673E+02  0.69065256032E+02 -0.49908694899E+02  0.12682695220E+03  0.92267518169E+02 0.  0.
         23    2    1    2    0    0 -0.16737956805E+03 -0.19383462053E+03  0.20761980414E+03  0.35113942357E+03  0.12085169340E+03 0.  0.
        -13    1    4    4    0    0 -0.10008809266E+03 -0.15700658155E+03  0.80902606594E+02  0.20301212943E+03  0.00000000000E+00 0.  1.
         13    1    4    4    0    0 -0.67291475389E+02 -0.36828038981E+02  0.12671719754E+03  0.14812729414E+03  0.00000000000E+00 0. -1.
        -13    1    3    3    0    0  0.27459740845E+02  0.32369014058E+02  0.97213605144E+01  0.43546472746E+02  0.00000000000E+00 0. -1.
         13    1    3    3    0    0 -0.45091912517E+02  0.36696241974E+02 -0.59630055413E+02  0.83280479454E+02  0.00000000000E+00 0.  1.
         -4    1    1    2    0  502  0.18501173972E+03  0.12476936449E+03 -0.55575030351E+03  0.59887823303E+03  0.00000000000E+00 0.  1.
<scales pt_clust_5="13000.00000" pt_clust_6="13000.00000" pt_clust_7="13000.00000" pt_clust_8="13000.00000" pt_clust_9="224.92278"></scales>
<clustering>
<clus scale="   92.268">  7  8 -1 -1</clus>
<clus scale="  116.594">  1  7  2 -1</clus>
<clus scale="  120.852">  5  6 -1 -1</clus>
<clus scale="  224.923">  2  9  1 -1</clus>
<clus scale="  224.923">  2  5  1 -1</clus>
</clustering>
</event>
<event>
 9    1  0.1321469E-005  0.1562347E+03  0.7546771E-02  0.1193353E+00
         -4   -1    0    0    0  501 -0.00000000000E+00  0.00000000000E+00  0.11894351996E+04  0.11894351996E+04  0.00000000000E+00 0.  1.
         21   -1    0    0  501  502  0.00000000000E+00 -0.00000000000E+00 -0.28286453232E+02  0.28286453232E+02  0.00000000000E+00 0. -1.
         23    2    1    2    0    0 -0.20048352002E+02 -0.12530260745E+03  0.51585874176E+03  0.53905282918E+03  0.91460545258E+02 0.  0.
         23    2    1    2    0    0  0.57940834359E+02  0.11607352661E+03  0.39362404858E+03  0.42399890086E+03  0.89470511611E+02 0.  0.
        -13    1    3    3    0    0 -0.36407376370E+02 -0.75612660876E+01  0.10785319852E+03  0.11408322501E+03  0.00000000000E+00 0.  1.
         13    1    3    3    0    0  0.16359024368E+02 -0.11774134136E+03  0.40800554325E+03  0.42496960417E+03  0.00000000000E+00 0. -1.
        -13    1    4    4    0    0  0.64326783910E+02  0.43796397186E+02  0.13971708989E+03  0.15992787356E+03  0.00000000000E+00 0. -1.
         13    1    4    4    0    0 -0.63859495512E+01  0.72277129421E+02  0.25390695869E+03  0.26407102730E+03  0.00000000000E+00 0.  1.
         -4    1    1    2    0  502 -0.37892482357E+02  0.92290808430E+01  0.25166595605E+03  0.25466992282E+03  0.00000000000E+00 0.  1.
<scales pt_clust_5="13000.00000" pt_clust_6="13000.00000" pt_clust_7="13000.00000" pt_clust_8="13000.00000" pt_clust_9="39.00023"></scales>
<clustering>
<clus scale="   39.000">  2  9  1 -1</clus>
<clus scale="   89.471">  7  8 -1 -1</clus>
<clus scale="   91.461">  5  6 -1 -1</clus>
<clus scale="  155.078">  2  7  1 -1</clus>
<clus scale="   39.000">  2  5  1 -1</clus>
</clustering>
</event>
<event>
 9    1  0.1321469E-005  0.9917173E+02  0.7546771E-02  0.1282436E+00
         21   -1    0    0  501  502  0.00000000000E+00  0.00000000000E+00  0.18975664590E+03  0.18975664590E+03  0.00000000000E+00 0. -1.
         -4   -1    0    0    0  501 -0.00000000000E+00 -0.00000000000E+00 -0.12510686465E+03  0.12510686465E+03  0.00000000000E+00 0.  1.
         23    2    1    2    0    0 -0.16572307082E+02 -0.41907491827E+02 -0.66921965494E+02  0.12198809196E+03  0.91496808043E+02 0.  0.
         23    2    1    2    0    0  0.43636576004E+01  0.19444226099E+02  0.46139027114E+02  0.10369919410E+03  0.90706083579E+02 0.  0.
        -13    1    4    4    0    0 -0.79162228197E+01  0.40520814563E+02  0.62082730521E+02  0.74557819345E+02  0.00000000000E+00 0. -1.
         13    1    4    4    0    0  0.12279880420E+02 -0.21076588464E+02 -0.15943703407E+02  0.29141374757E+02  0.00000000000E+00 0.  1.
        -13    1    3    3    0    0 -0.13142901690E+02 -0.65267607731E+02 -0.71758750514E+02  0.97887255345E+02  0.00000000000E+00 0.  1.
         13    1    3    3    0    0 -0.34294053914E+01  0.23360115904E+02  0.48367850195E+01  0.24100836618E+02  0.00000000000E+00 0. -1.
         -4    1    1    2    0  502  0.12208649482E+02  0.22463265728E+02  0.85432719632E+02  0.89176224483E+02  0.00000000000E+00 0.  1.
<scales pt_clust_5="13000.00000" pt_clust_6="13000.00000" pt_clust_7="13000.00000" pt_clust_8="13000.00000" pt_clust_9="25.56657"></scales>
<clustering>
<clus scale="   25.567">  1  9  2 -1</clus>
<clus scale="   90.706">  5  6 -1 -1</clus>
<clus scale="   91.497">  7  8 -1 -1</clus>
<clus scale="   98.443">  1  5  2 -1</clus>
<clus scale="   25.567">  1  5  2 -1</clus>
</clustering>
</event>
<event>
 9    1  0.1321469E-005  0.1004367E+03  0.7546771E-02  0.1280340E+00
         21   -1    0    0  501  502  0.00000000000E+00  0.00000000000E+00  0.22571227381E+02  0.22571227381E+02  0.00000000000E+00 0.  1.
          2   -1    0    0  502    0 -0.00000000000E+00 -0.00000000000E+00 -0.65704269389E+03  0.65704269389E+03  0.00000000000E+00 0. -1.
         23    2    1    2    0    0  0.42278620376E+02 -0.21037364555E+02 -0.42431841883E+03  0.43636863283E+03  0.90229766207E+02 0.  0.
         23    2    1    2    0    0 -0.21730793624E+02  0.62969202977E+01 -0.14463070476E+03  0.17301230971E+03  0.92213556230E+02 0.  0.
        -11    1    3    3    0    0  0.63572098844E+02  0.97457726592E+01 -0.27722462412E+03  0.28458721695E+03  0.00000000000E+00 0.  1.
         11    1    3    3    0    0 -0.21293478468E+02 -0.30783137215E+02 -0.14709379472E+03  0.15178141588E+03  0.00000000000E+00 0. -1.
        -11    1    4    4    0    0  0.32334819406E+02  0.70730389919E+01 -0.24207865523E+02  0.41007184490E+02  0.00000000000E+00 0.  1.
         11    1    4    4    0    0 -0.54065613030E+02 -0.77611869424E+00 -0.12042283924E+03  0.13200512522E+03  0.00000000000E+00 0. -1.
          2    1    1    2  501    0 -0.20547826752E+02  0.14740444258E+02 -0.65522342916E+02  0.70232978738E+02  0.00000000000E+00 0. -1.
<scales pt_clust_5="13000.00000" pt_clust_6="13000.00000" pt_clust_7="13000.00000" pt_clust_8="13000.00000" pt_clust_9="25.28822"></scales>
<clustering>
<clus scale="   25.288">  1  9  2 -1</clus>
<clus scale="   90.230">  5  6 -1 -1</clus>
<clus scale="   92.214">  7  8 -1 -1</clus>
<clus scale="   98.618">  2  5  1 -1</clus>
<clus scale="   25.288">  1  5  2 -1</clus>
</clustering>
</event>
<event>
 9    1  0.1321469E-005  0.1593481E+03  0.7546771E-02  0.1200569E+00
          2   -1    0    0  502    0 -0.00000000000E+00  0.00000000000E+00  0.85452435197E+03  0.85452435197E+03  0.00000000000E+00 0. -1.
         21   -1    0    0  501  502  0.00000000000E+00 -0.00000000000E+00 -0.57148976111E+02  0.57148976111E+02  0.00000000000E+00 0. -1.
         23    2    1    2    0    0 -0.86296766547E+02 -0.14067317451E+02  0.31001219313E+03  0.33421192044E+03  0.89134878335E+02 0.  0.
         23    2    1    2    0    0  0.14641195306E+02  0.14038459567E+03  0.28568962523E+03  0.32894018227E+03  0.81614228213E+02 0.  0.
        -11    1    3    3    0    0 -0.32246714859E+02  0.17668873617E+02  0.30544463932E+02  0.47801715357E+02  0.00000000000E+00 0.  1.
         11    1    3    3    0    0 -0.54050051688E+02 -0.31736191068E+02  0.27946772920E+03  0.28641020508E+03  0.00000000000E+00 0. -1.
        -13    1    4    4    0    0  0.90646318170E+01  0.97202770551E+02  0.10623462663E+03  0.14427869575E+03  0.00000000000E+00 0. -1.
         13    1    4    4    0    0  0.55765634890E+01  0.43181825121E+02  0.17945499860E+03  0.18466148652E+03  0.00000000000E+00 0.  1.
          2    1    1    2  501    0  0.71655571241E+02 -0.12631727822E+03  0.20167355750E+03  0.24852122538E+03  0.00000000000E+00 0. -1.
<scales pt_clust_5="13000.00000" pt_clust_6="13000.00000" pt_clust_7="13000.00000" pt_clust_8="13000.00000" pt_clust_9="136.86096"></scales>
<clustering>
<clus scale="   81.614">  7  8 -1 -1</clus>
<clus scale="   89.135">  5  6 -1 -1</clus>
<clus scale="  124.860">  1  5  2 -1</clus>
<clus scale="  136.861">  2  9  1 -1</clus>
<clus scale="  136.861">  2  5  1 -1</clus>
</clustering>
</event>
<event>
 9    1  0.1321469E-005  0.1279812E+03  0.7546771E-02  0.1230583E+00
         21   -1    0    0  501  502  0.00000000000E+00  0.00000000000E+00  0.71628148532E+02  0.71628148532E+02  0.00000000000E+00 0. -1.
          1   -1    0    0  502    0 -0.00000000000E+00 -0.00000000000E+00 -0.47779107872E+03  0.47779107872E+03  0.00000000000E+00 0. -1.
         23    2    1    2    0    0 -0.99288729495E+02  0.55384927581E+02 -0.30741018812E+03  0.34033722834E+03  0.91666041818E+02 0.  0.
         23    2    1    2    0    0  0.49184172208E+02  0.71377235708E+01 -0.50647342946E+02  0.11562784977E+03  0.91294120300E+02 0.  0.
        -11    1    4    4    0    0  0.27544539643E+02 -0.94231471707E+01 -0.74139235683E+02  0.79650007121E+02  0.00000000000E+00 0.  1.
         11    1    4    4    0    0  0.21639632566E+02  0.16560870741E+02  0.23491892737E+02  0.35977842649E+02  0.00000000000E+00 0. -1.
        -13    1    3    3    0    0 -0.64983040467E+02  0.18361626875E+02 -0.68630906423E+02  0.96281598482E+02  0.00000000000E+00 0.  1.
         13    1    3    3    0    0 -0.34305689028E+02  0.37023300706E+02 -0.23877928170E+03  0.24405562985E+03  0.00000000000E+00 0. -1.
          1    1    1    2  501    0  0.50104557287E+02 -0.62522651152E+02 -0.48105399117E+02  0.93454149144E+02  0.00000000000E+00 0. -1.
<scales pt_clust_5="13000.00000" pt_clust_6="13000.00000" pt_clust_7="13000.00000" pt_clust_8="13000.00000" pt_clust_9="80.12209"></scales>
<clustering>
<clus scale="   80.122">  1  9  2 -1</clus>
<clus scale="   91.294">  5  6 -1 -1</clus>
<clus scale="   91.666">  7  8 -1 -1</clus>
<clus scale="  127.715">  1  5  2 -1</clus>
<clus scale="   80.122">  1  5  2 -1</clus>
</clustering>
</event>
<event>
 9    1  0.1321469E-005  0.9495687E+02  0.7546771E-02  0.1293014E+00
         21   -1    0    0  501  502  0.00000000000E+00  0.00000000000E+00  0.36774570992E+02  0.36774570992E+02  0.00000000000E+00 0.  1.
          4   -1    0    0  502    0 -0.00000000000E+00 -0.00000000000E+00 -0.37844094226E+03  0.37844094226E+03  0.00000000000E+00 0. -1.
         23    2    1    2    0    0 -0.24236230141E+02 -0.11338118210E+02 -0.23068926284E+03  0.24862899107E+03  0.88785648792E+02 0.  0.
         23    2    1    2    0    0  0.62354154111E+01  0.23291704748E+02 -0.10941085844E+03  0.14492155735E+03  0.91924631765E+02 0.  0.
        -11    1    3    3    0    0  0.21920084429E+02 -0.29241866254E+02 -0.14624798611E+03  0.15074498428E+03  0.00000000000E+00 0.  1.
         11    1    3    3    0    0 -0.46156314570E+02  0.17903748044E+02 -0.84441276728E+02  0.97884006785E+02  0.00000000000E+00 0. -1.
        -11    1    4    4    0    0 -0.92110958293E+00 -0.25239824231E+02 -0.87720201129E+02  0.91283792955E+02  0.00000000000E+00 0. -1.
         11    1    4    4    0    0  0.71565249940E+01  0.48531528978E+02 -0.21690657314E+02  0.53637764398E+02  0.00000000000E+00 0.  1.
          4    1    1    2  501    0  0.18000814730E+02 -0.11953586538E+02 -0.15662499784E+01  0.21664964829E+02  0.00000000000E+00 0. -1.
<scales pt_clust_5="13000.00000" pt_clust_6="13000.00000" pt_clust_7="13000.00000" pt_clust_8="13000.00000" pt_clust_9="21.60828"></scales>
<clustering>
<clus scale="   21.608">  1  9  2 -1</clus>
<clus scale="   88.786">  5  6 -1 -1</clus>
<clus scale="   91.921">  2  5  1 -1</clus>
<clus scale="   91.925">  7  8 -1 -1</clus>
<clus scale="   21.608">  1  5  2 -1</clus>
</clustering>
</event>
<event>
 9    1  0.1321469E-005  0.1264604E+03  0.7546771E-02  0.1235673E+00
         21   -1    0    0  501  502  0.00000000000E+00  0.00000000000E+00  0.18739474336E+03  0.18739474336E+03  0.00000000000E+00 0.  1.
          1   -1    0    0  502    0 -0.00000000000E+00 -0.00000000000E+00 -0.25139735211E+03  0.25139735211E+03  0.00000000000E+00 0. -1.
         23    2    1    2    0    0  0.45264267687E+02  0.63229048877E+02 -0.12641529015E+03  0.17518279289E+03  0.93066743744E+02 0.  0.
         23    2    1    2    0    0 -0.38114316243E+02 -0.93808163992E+02 -0.55050154076E+02  0.14202097335E+03  0.82986533090E+02 0.  0.
        -13    1    3    3    0    0 -0.17905797946E+02  0.54163470824E+02 -0.66907292836E+02  0.87925451415E+02  0.00000000000E+00 0. -1.
         13    1    3    3    0    0  0.63170065633E+02  0.90655780523E+01 -0.59507997311E+02  0.87257341476E+02  0.00000000000E+00 0.  1.
        -13    1    4    4    0    0 -0.42910610288E+02 -0.28917877140E+02  0.68705692627E+01  0.52199318152E+02  0.00000000000E+00 0.  1.
         13    1    4    4    0    0  0.47962940448E+01 -0.64890286852E+02 -0.61920723339E+02  0.89821655201E+02  0.00000000000E+00 0. -1.
          1    1    1    2  501    0 -0.71499514436E+01  0.30579115116E+02  0.11746283547E+03  0.12158832923E+03  0.00000000000E+00 0. -1.
<scales pt_clust_5="13000.00000" pt_clust_6="13000.00000" pt_clust_7="13000.00000" pt_clust_8="13000.00000" pt_clust_9="31.40389"></scales>
<clustering>
<clus scale="   31.404">  1  9  2 -1</clus>
<clus scale="   82.987">  7  8 -1 -1</clus>
<clus scale="   93.067">  5  6 -1 -1</clus>
<clus scale="  119.238">  1  7  2 -1</clus>
<clus scale="   31.404">  1  5  2 -1</clus>
</clustering>
</event>
<event>
 9    1  0.1321469E-005  0.1186131E+03  0.7546771E-02  0.1247367E+00
         21   -1    0    0  501  502  0.00000000000E+00  0.00000000000E+00  0.28408327054E+03  0.28408327054E+03  0.00000000000E+00 0. -1.
          2   -1    0    0  502    0 -0.00000000000E+00 -0.00000000000E+00 -0.21867706648E+03  0.21867706648E+03  0.00000000000E+00 0. -1.
         23    2    1    2    0    0  0.70196482221E+02  0.35257494057E+01 -0.15109981960E+03  0.18996807790E+03  0.91196151859E+02 0.  0.
         23    2    1    2    0    0 -0.10340356337E+03 -0.35067961097E+01  0.50013698903E+02  0.14302063369E+03  0.85140689727E+02 0.  0.
        -13    1    3    3    0    0  0.36976164910E+02 -0.40730717252E+02 -0.10245455160E+03  0.11628913639E+03  0.00000000000E+00 0.  1.
         13    1    3    3    0    0  0.33220317311E+02  0.44256466658E+02 -0.48645268001E+02  0.73678941511E+02  0.00000000000E+00 0. -1.
        -13    1    4    4    0    0  0.35539630445E+00 -0.21921085599E+02  0.27660966353E+02  0.35295741385E+02  0.00000000000E+00 0.  1.
         13    1    4    4    0    0 -0.10375895967E+03  0.18414289489E+02  0.22352732550E+02  0.10772489231E+03  0.00000000000E+00 0. -1.
          2    1    1    2  501    0  0.33207081147E+02 -0.18953295942E-01  0.16649232475E+03  0.16977162543E+03  0.00000000000E+00 0. -1.
<scales pt_clust_5="13000.00000" pt_clust_6="13000.00000" pt_clust_7="13000.00000" pt_clust_8="13000.00000" pt_clust_9="33.20709"></scales>
<clustering>
<clus scale="   33.207">  1  9  2 -1</clus>
<clus scale="   85.141">  7  8 -1 -1</clus>
<clus scale="   91.196">  5  6 -1 -1</clus>
<clus scale="  114.023">  1  7  2 -1</clus>
<clus scale="   33.207">  1  5  2 -1</clus>
</clustering>
</event>
<event>
 9    1  0.1321469E-005  0.1145684E+03  0.7546771E-02  0.1253266E+00
         21   -1    0    0  501  502  0.00000000000E+00  0.00000000000E+00  0.49518314250E+03  0.49518314250E+03  0.00000000000E+00 0. -1.
          1   -1    0    0  502    0 -0.00000000000E+00 -0.00000000000E+00 -0.11599942496E+03  0.11599942496E+03  0.00000000000E+00 0. -1.
         23    2    1    2    0    0  0.66216943854E+02  0.36175120820E+02 -0.42842596156E+02  0.12531829674E+03  0.90420486801E+02 0.  0.
         23    2    1    2    0    0  0.84527560819E+01 -0.76438428754E+02  0.11274722121E+03  0.16516151877E+03  0.93016713098E+02 0.  0.
        -11    1    4    4    0    0 -0.24495070980E+02 -0.82898536733E+02  0.73092179618E+02  0.11320177833E+03  0.00000000000E+00 0.  1.
         11    1    4    4    0    0  0.32947827062E+02  0.64601079793E+01  0.39655041590E+02  0.51959740441E+02  0.00000000000E+00 0. -1.
        -13    1    3    3    0    0  0.15506386180E+02 -0.28585665133E+02 -0.25331324983E+02  0.41222133482E+02  0.00000000000E+00 0.  1.
         13    1    3    3    0    0  0.50710557675E+02  0.64760785954E+02 -0.17511271174E+02  0.84096163261E+02  0.00000000000E+00 0. -1.
          1    1    1    2  501    0 -0.74669699936E+02  0.40263307933E+02  0.30927909249E+03  0.32070275195E+03  0.00000000000E+00 0. -1.
<scales pt_clust_5="13000.00000" pt_clust_6="13000.00000" pt_clust_7="13000.00000" pt_clust_8="13000.00000" pt_clust_9="84.83335"></scales>
<clustering>
<clus scale="   84.833">  1  9  2 -1</clus>
<clus scale="   90.420">  7  8 -1 -1</clus>
<clus scale="   93.017">  5  6 -1 -1</clus>
<clus scale="  112.471">  2  7  1 -1</clus>
<clus scale="   84.833">  1  5  2 -1</clus>
</clustering>
</event>
<event>
 9    1  0.1321469E-005  0.9370570E+02  0.7546771E-02  0.1296594E+00
         21   -1    0    0  501  502  0.00000000000E+00  0.00000000000E+00  0.45042693050E+03  0.45042693050E+03  0.00000000000E+00 0.  1.
          3   -1    0    0  502    0 -0.00000000000E+00 -0.00000000000E+00 -0.44798010303E+02  0.44798010303E+02  0.00000000000E+00 0. -1.
         23    2    1    2    0    0 -0.91512127913E+01  0.15303464879E+02  0.28096649901E+02  0.98003461061E+02  0.92180886909E+02 0.  0.
         23    2    1    2    0    0  0.22644586976E+02  0.11558978439E+01  0.21608116048E+03  0.23437356717E+03  0.87896459850E+02 0.  0.
        -11    1    4    4    0    0  0.26307123579E+02  0.22995797440E+02  0.20782172110E+03  0.21073855654E+03  0.00000000000E+00 0.  1.
         11    1    4    4    0    0 -0.36625366029E+01 -0.21839899597E+02  0.82594393832E+01  0.23635010634E+02  0.00000000000E+00 0. -1.
        -11    1    3    3    0    0 -0.47361513019E+02  0.25739284559E+02  0.20508470266E+02  0.57673399741E+02  0.00000000000E+00 0. -1.
         11    1    3    3    0    0  0.38210300228E+02 -0.10435819680E+02  0.75881796347E+01  0.40330061320E+02  0.00000000000E+00 0.  1.
          3    1    1    2  501    0 -0.13493374185E+02 -0.16459362723E+02  0.16145110981E+03  0.16284791257E+03  0.00000000000E+00 0. -1.
<scales pt_clust_5="13000.00000" pt_clust_6="13000.00000" pt_clust_7="13000.00000" pt_clust_8="13000.00000" pt_clust_9="21.28337"></scales>
<clustering>
<clus scale="   21.283">  1  9  2 -1</clus>
<clus scale="   87.896">  5  6 -1 -1</clus>
<clus scale="   89.494">  1  5  2 -1</clus>
<clus scale="   92.181">  7  8 -1 -1</clus>
<clus scale="   21.283">  1  5  2 -1</clus>
</clustering>
</event>
<event>
 9    1  0.1321469E-005  0.1635843E+03  0.7546771E-02  0.1185040E+00
         -3   -1    0    0    0  501 -0.00000000000E+00  0.00000000000E+00  0.61932182528E+02  0.61932182528E+02  0.00000000000E+00 0.  1.
         21   -1    0    0  501  502  0.00000000000E+00 -0.00000000000E+00 -0.81878413004E+03  0.81878413004E+03  0.00000000000E+00 0.  1.
         23    2    1    2    0    0 -0.24413178487E+02 -0.10577455607E+03 -0.18977705590E+03  0.23640588547E+03  0.89934152269E+02 0.  0.
         23    2    1    2    0    0  0.39431463389E+02  0.16573888450E+03 -0.21991428130E+03  0.29168915871E+03  0.87727168242E+02 0.  0.
        -13    1    3    3    0    0 -0.56856924235E+02 -0.85592264808E+02 -0.13746132843E+03  0.17162273288E+03  0.00000000000E+00 0. -1.
         13    1    3    3    0    0  0.32443745748E+02 -0.20182291259E+02 -0.52315727464E+02  0.64783152584E+02  0.00000000000E+00 0.  1.
        -13    1    4    4    0    0 -0.25798480441E+01  0.60930880831E+02 -0.14188605461E+03  0.15443730232E+03  0.00000000000E+00 0. -1.
         13    1    4    4    0    0  0.42011311433E+02  0.10480800367E+03 -0.78028226688E+02  0.13725185639E+03  0.00000000000E+00 0.  1.
         -3    1    1    2    0  502 -0.15018284902E+02 -0.59964328437E+02 -0.34716061032E+03  0.35262126839E+03  0.00000000000E+00 0.  1.
<scales pt_clust_5="13000.00000" pt_clust_6="13000.00000" pt_clust_7="13000.00000" pt_clust_8="13000.00000" pt_clust_9="61.81642"></scales>
<clustering>
<clus scale="   61.816">  2  9  1 -1</clus>
<clus scale="   87.727">  7  8 -1 -1</clus>
<clus scale="   89.934">  5  6 -1 -1</clus>
<clus scale="  162.381">  2  7  1 -1</clus>
<clus scale="   61.816">  2  5  1 -1</clus>
</clustering>
</event>
<event>
 9    1  0.1321469E-005  0.9855106E+02  0.7546771E-02  0.1284409E+00
         -1   -1    0    0    0  501 -0.00000000000E+00  0.00000000000E+00  0.56984920443E+03  0.56984920443E+03  0.00000000000E+00 0.  1.
         21   -1    0    0  501  502  0.00000000000E+00 -0.00000000000E+00 -0.22174447519E+02  0.22174447519E+02  0.00000000000E+00 0. -1.
         23    2    1    2    0    0 -0.38970934424E+02  0.17042933080E+02  0.32100056537E+03  0.33616865059E+03  0.90326094637E+02 0.  0.
         23    2    1    2    0    0  0.22244284540E+02 -0.31054696155E+02  0.19467017341E+03  0.21712042382E+03  0.88236045223E+02 0.  0.
        -11    1    3    3    0    0 -0.50185445316E+02  0.45792563916E+02  0.24197954294E+03  0.25133570584E+03  0.00000000000E+00 0.  1.
         11    1    3    3    0    0  0.11214510892E+02 -0.28749630836E+02  0.79021022433E+02  0.84832944745E+02  0.00000000000E+00 0. -1.
        -13    1    4    4    0    0  0.25611738853E+02  0.23050994986E+02  0.11998530798E+03  0.12483502581E+03  0.00000000000E+00 0.  1.
         13    1    4    4    0    0 -0.33674543131E+01 -0.54105691141E+02  0.74684865428E+02  0.92285398013E+02  0.00000000000E+00 0. -1.
         -1    1    1    2    0  502  0.16726649884E+02  0.14011763075E+02  0.32004018134E+02  0.38734577545E+02  0.00000000000E+00 0.  1.
<scales pt_clust_5="13000.00000" pt_clust_6="13000.00000" pt_clust_7="13000.00000" pt_clust_8="13000.00000" pt_clust_9="21.81995"></scales>
<clustering>
<clus scale="   21.820">  2  9  1 -1</clus>
<clus scale="   88.236">  7  8 -1 -1</clus>
<clus scale="   90.326">  5  6 -1 -1</clus>
<clus scale="   96.639">  2  7  1 -1</clus>
<clus scale="   21.820">  2  5  1 -1</clus>
</clustering>
</event>
<event>
 9    1  0.1321469E-005  0.1034556E+03  0.7546771E-02  0.1274511E+00
          2   -1    0    0  502    0 -0.00000000000E+00  0.00000000000E+00  0.75297626998E+02  0.75297626998E+02  0.00000000000E+00 0. -1.
         21   -1    0    0  501  502  0.00000000000E+00 -0.00000000000E+00 -0.45090557697E+03  0.45090557697E+03  0.00000000000E+00 0.  1.
         23    2    1    2    0    0  0.53086943664E+02  0.93503291740E+01 -0.50477094658E+00  0.99843580654E+02  0.84040666114E+02 0.  0.
         23    2    1    2    0    0 -0.49352297225E+02 -0.47177268897E+02 -0.10167624791E+03  0.15030326745E+03  0.87130183494E+02 0.  0.
        -11    1    4    4    0    0 -0.49016975111E+02 -0.53237364374E+01 -0.96190023466E+02  0.10809036328E+03  0.00000000000E+00 0. -1.
         11    1    4    4    0    0 -0.33532211401E+00 -0.41853532459E+02 -0.54862244423E+01  0.42212904175E+02  0.00000000000E+00 0.  1.
        -13    1    3    3    0    0 -0.67387677465E+01  0.26643609461E+02  0.20320079693E+02  0.34178919740E+02  0.00000000000E+00 0. -1.
         13    1    3    3    0    0  0.59825711410E+02 -0.17293280287E+02 -0.20824850639E+02  0.65664660914E+02  0.00000000000E+00 0.  1.
          2    1    1    2  501    0 -0.37346464387E+01  0.37826939723E+02 -0.27342693111E+03  0.27605635586E+03  0.00000000000E+00 0. -1.
<scales pt_clust_5="13000.00000" pt_clust_6="13000.00000" pt_clust_7="13000.00000" pt_clust_8="13000.00000" pt_clust_9="38.01085"></scales>
<clustering>
<clus scale="   38.011">  2  9  1 -1</clus>
<clus scale="   84.041">  7  8 -1 -1</clus>
<clus scale="   87.130">  5  6 -1 -1</clus>
<clus scale="  100.867">  1  7  2 -1</clus>
<clus scale="   38.011">  2  5  1 -1</clus>
</clustering>
</event>
<event>
 9    1  0.1321469E-005  0.9918798E+02  0.7546771E-02  0.1283573E+00
         21   -1    0    0  501  502  0.00000000000E+00  0.00000000000E+00  0.16230344975E+02  0.16230344975E+02  0.00000000000E+00 0. -1.
          1   -1    0    0  502    0 -0.00000000000E+00 -0.00000000000E+00 -0.12869157796E+04  0.12869157796E+04  0.00000000000E+00 0. -1.
         23    2    1    2    0    0  0.30588632822E+02 -0.39815289079E+02 -0.55203068475E+03  0.56213119739E+03  0.93448833463E+02 0.  0.
         23    2    1    2    0    0  0.43570340154E+02  0.23919229893E+02 -0.36335397293E+03  0.37770943580E+03  0.90375904687E+02 0.  0.
        -11    1    3    3    0    0 -0.33078605218E+02 -0.65457626820E+01 -0.15121808434E+03  0.15493208242E+03  0.00000000000E+00 0.  1.
         11    1    3    3    0    0  0.63667238040E+02 -0.33269526397E+02 -0.40081260041E+03  0.40719911497E+03  0.00000000000E+00 0. -1.
        -13    1    4    4    0    0  0.35946706490E+02 -0.30715356313E+02 -0.14604680927E+03  0.15350983460E+03  0.00000000000E+00 0.  1.
         13    1    4    4    0    0  0.76236336647E+01  0.54634586206E+02 -0.21730716366E+03  0.22419960120E+03  0.00000000000E+00 0. -1.
          1    1    1    2  501    0 -0.74158972976E+02  0.15896059186E+02 -0.35530077694E+03  0.36330549138E+03  0.00000000000E+00 0. -1.
<scales pt_clust_5="13000.00000" pt_clust_6="13000.00000" pt_clust_7="13000.00000" pt_clust_8="13000.00000" pt_clust_9="75.84355"></scales>
<clustering>
<clus scale="   75.844">  1  9  2 -1</clus>
<clus scale="   90.376">  7  8 -1 -1</clus>
<clus scale="   93.449">  5  6 -1 -1</clus>
<clus scale="   96.298">  1  7  2 -1</clus>
<clus scale="   75.844">  1  5  2 -1</clus>
</clustering>
</event>
<event>
 9    1  0.1321469E-005  0.1032208E+03  0.7546771E-02  0.1276216E+00
         21   -1    0    0  501  502  0.00000000000E+00  0.00000000000E+00  0.40982788584E+03  0.40982788584E+03  0.00000000000E+00 0. -1.
         -1   -1    0    0    0  501 -0.00000000000E+00 -0.00000000000E+00 -0.35110424849E+02  0.35110424849E+02  0.00000000000E+00 0.  1.
         23    2    1    2    0    0 -0.41357402625E+02  0.50082745475E+02  0.12143725745E+03  0.16384137313E+03  0.88759629940E+02 0.  0.
         23    2    1    2    0    0  0.16792606936E+02 -0.33595885260E+02  0.17248034026E+03  0.19505123078E+03  0.82974934175E+02 0.  0.
        -11    1    3    3    0    0 -0.18431919826E+02  0.27774993532E+02 -0.47425324888E+01  0.33670128432E+02  0.00000000000E+00 0.  1.
         11    1    3    3    0    0 -0.22925482799E+02  0.22307751942E+02  0.12617978994E+03  0.13017124470E+03  0.00000000000E+00 0. -1.
        -13    1    4    4    0    0 -0.13083414316E+01 -0.48224645194E+02  0.46725701089E+02  0.67161144299E+02  0.00000000000E+00 0.  1.
         13    1    4    4    0    0  0.18100948368E+02  0.14628759934E+02  0.12575463917E+03  0.12789008648E+03  0.00000000000E+00 0. -1.
         -1    1    1    2    0  502  0.24564795689E+02 -0.16486860215E+02  0.80799863289E+02  0.86045706775E+02  0.00000000000E+00 0.  1.
<scales pt_clust_5="13000.00000" pt_clust_6="13000.00000" pt_clust_7="13000.00000" pt_clust_8="13000.00000" pt_clust_9="29.58455"></scales>
<clustering>
<clus scale="   29.585">  1  9  2 -1</clus>
<clus scale="   82.975">  7  8 -1 -1</clus>
<clus scale="   88.760">  5  6 -1 -1</clus>
<clus scale="   98.291">  1  7  2 -1</clus>
<clus scale="   29.585">  1  5  2 -1</clus>
</clustering>
</event>
<event>
 9    1  0.1321469E-005  0.1061421E+03  0.7546771E-02  0.1269244E+00
          2   -1    0    0  502    0 -0.00000000000E+00  0.00000000000E+00  0.24492779902E+03  0.24492779902E+03  0.00000000000E+00 0. -1.
         21   -1    0    0  501  502  0.00000000000E+00 -0.00000000000E+00 -0.94933780758E+02  0.94933780758E+02  0.00000000000E+00 0. -1.
         23    2    1    2    0    0  0.47351488319E+02  0.20719055393E+02  0.14504093018E+03  0.17693905636E+03  0.87172905962E+02 0.  0.
         23    2    1    2    0    0 -0.77717785854E+02  0.93684703963E+01 -0.19584571848E+01  0.11961962869E+03  0.90427858201E+02 0.  0.
        -11    1    4    4    0    0 -0.65532676805E+02 -0.82057367860E+01 -0.39107780860E+02  0.76754702587E+02  0.00000000000E+00 0. -1.
         11    1    4    4    0    0 -0.12185109049E+02  0.17574207182E+02  0.37149323675E+02  0.42864926107E+02  0.00000000000E+00 0.  1.
        -13    1    3    3    0    0 -0.95825311080E+01 -0.25615341457E+02  0.31268722840E+02  0.41541589382E+02  0.00000000000E+00 0.  1.
         13    1    3    3    0    0  0.56934019427E+02  0.46334396850E+02  0.11377220734E+03  0.13539746697E+03  0.00000000000E+00 0. -1.
          2    1    1    2  501    0  0.30366297535E+02 -0.30087525790E+02  0.69115452690E+01  0.43302894732E+02  0.00000000000E+00 0. -1.
<scales pt_clust_5="13000.00000" pt_clust_6="13000.00000" pt_clust_7="13000.00000" pt_clust_8="13000.00000" pt_clust_9="42.74776"></scales>
<clustering>
<clus scale="   42.748">  2  9  1 -1</clus>
<clus scale="   87.173">  7  8 -1 -1</clus>
<clus scale="   90.428">  5  6 -1 -1</clus>
<clus scale="  103.383">  1  7  2 -1</clus>
<clus scale="   42.748">  2  5  1 -1</clus>
</clustering>
</event>
<event>
 9    1  0.1321469E-005  0.9455333E+02  0.7546771E-02  0.1293063E+00
          1   -1    0    0  502    0 -0.00000000000E+00  0.00000000000E+00  0.33870907416E+03  0.33870907416E+03  0.00000000000E+00 0. -1.
         21   -1    0    0  501  502  0.00000000000E+00 -0.00000000000E+00 -0.95927021002E+02  0.95927021002E+02  0.00000000000E+00 0. -1.
         23    2    1    2    0    0  0.17617033522E+02 -0.13678825641E+02  0.27211895438E+03  0.28815938346E+03  0.92139214243E+02 0.  0.
         23    2    1    2    0    0  0.18700248671E+02  0.37435004708E+02 -0.25101232869E+02  0.10287347884E+03  0.90563800045E+02 0.  0.
        -13    1    3    3    0    0 -0.30522440120E+00 -0.48605691635E+02  0.20233361548E+03  0.20809012080E+03  0.00000000000E+00 0.  1.
         13    1    3    3    0    0  0.17922257923E+02  0.34926865994E+02  0.69785338894E+02  0.80069262653E+02  0.00000000000E+00 0. -1.
        -13    1    4    4    0    0  0.66862860452E+01 -0.27570674277E+02 -0.23350726354E+02  0.36743773927E+02  0.00000000000E+00 0.  1.
         13    1    4    4    0    0  0.12013962626E+02  0.65005678985E+02 -0.17505065152E+01  0.66129704909E+02  0.00000000000E+00 0. -1.
          1    1    1    2  501    0 -0.36317282193E+02 -0.23756179067E+02 -0.42356683544E+01  0.43603232864E+02  0.00000000000E+00 0. -1.
<scales pt_clust_5="13000.00000" pt_clust_6="13000.00000" pt_clust_7="13000.00000" pt_clust_8="13000.00000" pt_clust_9="43.39702"></scales>
<clustering>
<clus scale="   43.397">  2  9  1 -1</clus>
<clus scale="   90.564">  7  8 -1 -1</clus>
<clus scale="   92.139">  5  6 -1 -1</clus>
<clus scale="   93.019">  2  7  1 -1</clus>
<clus scale="   43.397">  2  5  1 -1</clus>
</clustering>
</event>
<event>
 9    1  0.1321469E-005  0.9298190E+02  0.7546771E-02  0.1296548E+00
          1   -1    0    0  502    0 -0.00000000000E+00  0.00000000000E+00  0.50316902682E+03  0.50316902682E+03  0.00000000000E+00 0. -1.
         21   -1    0    0  501  502  0.00000000000E+00 -0.00000000000E+00 -0.11118986028E+03  0.11118986028E+03  0.00000000000E+00 0. -1.
         23    2    1    2    0    0 -0.11262395326E+02 -0.64154324970E+01  0.39140514736E+03  0.40212890778E+03  0.91332742042E+02 0.  0.
         23    2    1    2    0    0  0.18195141214E+02  0.37395852427E+02  0.79546938636E+02  0.12711493135E+03  0.90005429738E+02 0.  0.
        -11    1    4    4    0    0  0.19801466094E+02  0.66806196757E+02  0.54875651764E+02  0.88693309450E+02  0.00000000000E+00 0. -1.
         11    1    4    4    0    0 -0.16063248792E+01 -0.29410344331E+02  0.24671286873E+02  0.38421621897E+02  0.00000000000E+00 0.  1.
        -13    1    3    3    0    0  0.34057685621E+02  0.20285169697E+02  0.16591790013E+03  0.17058770073E+03  0.00000000000E+00 0.  1.
         13    1    3    3    0    0 -0.45320080947E+02 -0.26700602194E+02  0.22548724724E+03  0.23154120705E+03  0.00000000000E+00 0. -1.
          1    1    1    2  501    0 -0.69327458884E+01 -0.30980419930E+02 -0.78972919451E+02  0.85115047971E+02  0.00000000000E+00 0. -1.
<scales pt_clust_5="13000.00000" pt_clust_6="13000.00000" pt_clust_7="13000.00000" pt_clust_8="13000.00000" pt_clust_9="31.74664"></scales>
<clustering>
<clus scale="   31.747">  2  9  1 -1</clus>
<clus scale="   90.005">  5  6 -1 -1</clus>
<clus scale="   91.333">  7  8 -1 -1</clus>
<clus scale="   91.678">  2  5  1 -1</clus>
<clus scale="   31.747">  2  5  1 -1</clus>
</clustering>
</event>
<event>
 9    1  0.1321469E-005  0.1124576E+03  0.7546771E-02  0.1256698E+00
          2   -1    0    0  502    0 -0.00000000000E+00  0.00000000000E+00  0.14074314701E+03  0.14074314701E+03  0.00000000000E+00 0. -1.
         21   -1    0    0  501  502  0.00000000000E+00 -0.00000000000E+00 -0.21620420080E+03  0.21620420080E+03  0.00000000000E+00 0.  1.
         23    2    1    2    0    0 -0.60611890354E+02  0.15409518750E+01  0.76463739547E+02  0.13369733116E+03  0.91389808562E+02 0.  0.
         23    2    1    2    0    0  0.90444558642E+02  0.16822025971E+02 -0.11705660162E+03  0.17382352734E+03  0.89717177439E+02 0.  0.
        -13    1    3    3    0    0 -0.44116520878E+02  0.40115148842E+02  0.68811071555E+02  0.91051942041E+02  0.00000000000E+00 0. -1.
         13    1    3    3    0    0 -0.16495369476E+02 -0.38574196967E+02  0.76526679928E+01  0.42645389120E+02  0.00000000000E+00 0.  1.
        -13    1    4    4    0    0  0.52392137414E+02 -0.32230106088E+02 -0.34490380624E+02  0.70521643180E+02  0.00000000000E+00 0. -1.
         13    1    4    4    0    0  0.38052421228E+02  0.49052132059E+02 -0.82566220999E+02  0.10330188416E+03  0.00000000000E+00 0.  1.
          2    1    1    2  501    0 -0.29832668288E+02 -0.18362977846E+02 -0.34868191711E+02  0.49426489312E+02  0.00000000000E+00 0. -1.
<scales pt_clust_5="13000.00000" pt_clust_6="13000.00000" pt_clust_7="13000.00000" pt_clust_8="13000.00000" pt_clust_9="35.03123"></scales>
<clustering>
<clus scale="   35.031">  2  9  1 -1</clus>
<clus scale="   89.717">  7  8 -1 -1</clus>
<clus scale="   91.390">  5  6 -1 -1</clus>
<clus scale="  111.103">  2  7  1 -1</clus>
<clus scale="   35.031">  2  5  1 -1</clus>
</clustering>
</event>
<event>
 9    1  0.1321469E-005  0.1147360E+03  0.7546771E-02  0.1252379E+00
          1   -1    0    0  502    0 -0.00000000000E+00  0.00000000000E+00  0.75649163070E+03  0.75649163070E+03  0.00000000000E+00 0. -1.
         21   -1    0    0  501  502  0.00000000000E+00 -0.00000000000E+00 -0.25656462949E+02  0.25656462949E+02  0.00000000000E+00 0.  1.
         23    2    1    2    0    0  0.14345888114E+02 -0.82932392026E+02  0.37278888161E+03  0.39280404044E+03  0.90773772539E+02 0.  0.
         23    2    1    2    0    0 -0.38787686807E+02  0.45151869013E+02  0.24315936849E+03  0.26595939740E+03  0.89803934523E+02 0.  0.
        -11    1    3    3    0    0  0.48673545579E+02 -0.69545937527E+02  0.29038329786E+03  0.30253629723E+03  0.00000000000E+00 0. -1.
         11    1    3    3    0    0 -0.34327657464E+02 -0.13386454500E+02  0.82405583751E+02  0.90267743211E+02  0.00000000000E+00 0.  1.
        -13    1    4    4    0    0  0.21748172874E+02  0.29721595329E+02  0.14502167653E+03  0.14962500765E+03  0.00000000000E+00 0. -1.
         13    1    4    4    0    0 -0.60535859682E+02  0.15430273685E+02  0.98137691965E+02  0.11633438975E+03  0.00000000000E+00 0.  1.
          1    1    1    2  501    0  0.24441798693E+02  0.37780523013E+02  0.11488691765E+03  0.12338465581E+03  0.00000000000E+00 0. -1.
<scales pt_clust_5="13000.00000" pt_clust_6="13000.00000" pt_clust_7="13000.00000" pt_clust_8="13000.00000" pt_clust_9="44.99744"></scales>
<clustering>
<clus scale="   44.997">  2  9  1 -1</clus>
<clus scale="   89.804">  7  8 -1 -1</clus>
<clus scale="   90.774">  5  6 -1 -1</clus>
<clus scale="  113.970">  2  7  1 -1</clus>
<clus scale="   44.997">  2  5  1 -1</clus>
</clustering>
</event>
<event>
 9    1  0.1321469E-005  0.4924000E+03  0.7546771E-02  0.1015803E+00
          1   -1    0    0  502    0 -0.00000000000E+00  0.00000000000E+00  0.16892491665E+04  0.16892491665E+04  0.00000000000E+00 0. -1.
         21   -1    0    0  501  502  0.00000000000E+00 -0.00000000000E+00 -0.32670939142E+03  0.32670939142E+03  0.00000000000E+00 0. -1.
         23    2    1    2    0    0 -0.99417134491E+01 -0.46532720336E+03  0.96878518624E+03  0.10786191663E+04  0.90809277515E+02 0.  0.
         23    2    1    2    0    0  0.18647077874E+02  0.51907160776E+03  0.55608345796E+03  0.76612342826E+03  0.89068780272E+02 0.  0.
        -11    1    4    4    0    0  0.24134196808E+02  0.33082036433E+02  0.44907335836E+02  0.60774578583E+02  0.00000000000E+00 0.  1.
         11    1    4    4    0    0 -0.54871189339E+01  0.48598957133E+03  0.51117612213E+03  0.70534884968E+03  0.00000000000E+00 0. -1.
        -13    1    3    3    0    0  0.91178534956E+01 -0.43947388257E+03  0.86996252292E+03  0.97470776133E+03  0.00000000000E+00 0.  1.
         13    1    3    3    0    0 -0.19059566945E+02 -0.25853320797E+02  0.98822663325E+02  0.10391140493E+03  0.00000000000E+00 0. -1.
          1    1    1    2  501    0 -0.87053644248E+01 -0.53744404398E+02 -0.16232886912E+03  0.17121596340E+03  0.00000000000E+00 0. -1.
<scales pt_clust_5="13000.00000" pt_clust_6="13000.00000" pt_clust_7="13000.00000" pt_clust_8="13000.00000" pt_clust_9="54.44487"></scales>
<clustering>
<clus scale="   54.445">  2  9  1 -1</clus>
<clus scale="   89.069">  5  6 -1 -1</clus>
<clus scale="   90.809">  7  8 -1 -1</clus>
<clus scale="  492.082">  2  5  1 -1</clus>
<clus scale="   54.445">  2  5  1 -1</clus>
</clustering>
</event>
<event>
 9    1  0.1321469E-005  0.1461702E+03  0.7546771E-02  0.1205824E+00
          1   -1    0    0  502    0 -0.00000000000E+00  0.00000000000E+00  0.54028994423E+03  0.54028994423E+03  0.00000000000E+00 0. -1.
         21   -1    0    0  501  502  0.00000000000E+00 -0.00000000000E+00 -0.52497493407E+02  0.52497493407E+02  0.00000000000E+00 0.  1.
         23    2    1    2    0    0 -0.21440353656E+02  0.12613729041E+03  0.27168359881E+03  0.31448270869E+03  0.93365365146E+02 0.  0.
         23    2    1    2    0    0 -0.53263225623E+01 -0.95090927765E+02  0.14114153168E+03  0.19286217101E+03  0.90577208971E+02 0.  0.
        -13    1    4    4    0    0 -0.38069239596E+02 -0.87974322027E+02  0.88519998206E+02  0.13047811472E+03  0.00000000000E+00 0.  1.
         13    1    4    4    0    0  0.32742917033E+02 -0.71166057383E+01  0.52621533474E+02  0.62384056283E+02  0.00000000000E+00 0. -1.
        -13    1    3    3    0    0 -0.46520226677E+02  0.86993452032E+02  0.11738988078E+03  0.15333745888E+03  0.00000000000E+00 0.  1.
         13    1    3    3    0    0  0.25079873022E+02  0.39143838373E+02  0.15429371803E+03  0.16114524981E+03  0.00000000000E+00 0. -1.
          1    1    1    2  501    0  0.26766676218E+02 -0.31046362640E+02  0.74967320335E+02  0.85442557939E+02  0.00000000000E+00 0. -1.
<scales pt_clust_5="13000.00000" pt_clust_6="13000.00000" pt_clust_7="13000.00000" pt_clust_8="13000.00000" pt_clust_9="40.99187"></scales>
<clustering>
<clus scale="   40.992">  2  9  1 -1</clus>
<clus scale="   90.577">  5  6 -1 -1</clus>
<clus scale="   93.365">  7  8 -1 -1</clus>
<clus scale="  144.405">  2  5  1 -1</clus>
<clus scale="   40.992">  2  5  1 -1</clus>
</clustering>
</event>
<event>
 9    1  0.1321469E-005  0.2908520E+03  0.7546771E-02  0.1089932E+00
         21   -1    0    0  501  502  0.00000000000E+00  0.00000000000E+00  0.13160157366E+03  0.13160157366E+03  0.00000000000E+00 0.  1.
          1   -1    0    0  502    0 -0.00000000000E+00 -0.00000000000E+00 -0.11291205754E+04  0.11291205754E+04  0.00000000000E+00 0. -1.
         23    2    1    2    0    0 -0.69582895589E+02 -0.26297328118E+03 -0.82863630809E+03  0.87692819594E+03  0.91477886743E+02 0.  0.
         23    2    1    2    0    0  0.91175147150E+02  0.27642631033E+03 -0.18206894177E+03  0.35513934691E+03  0.90831952892E+02 0.  0.
        -11    1    4    4    0    0  0.88834469879E+02  0.19806289963E+03 -0.17021320630E+03  0.27584961636E+03  0.00000000000E+00 0. -1.
         11    1    4    4    0    0  0.23406772707E+01  0.78363410699E+02 -0.11855735467E+02  0.79289730545E+02  0.00000000000E+00 0.  1.
        -13    1    3    3    0    0 -0.27965664263E+02 -0.16944169496E+03 -0.63601590777E+03  0.65879344358E+03  0.00000000000E+00 0. -1.
         13    1    3    3    0    0 -0.41617231326E+02 -0.93531586222E+02 -0.19262040033E+03  0.21813475236E+03  0.00000000000E+00 0.  1.
          1    1    1    2  501    0 -0.21592251560E+02 -0.13453029150E+02  0.13186248083E+02  0.28654606248E+02  0.00000000000E+00 0. -1.
<scales pt_clust_5="13000.00000" pt_clust_6="13000.00000" pt_clust_7="13000.00000" pt_clust_8="13000.00000" pt_clust_9="25.44031"></scales>
<clustering>
<clus scale="   25.440">  1  9  2 -1</clus>
<clus scale="   90.832">  5  6 -1 -1</clus>
<clus scale="   91.478">  7  8 -1 -1</clus>
<clus scale="  290.649">  1  5  2 -1</clus>
<clus scale="   25.440">  1  5  2 -1</clus>
</clustering>
</event>
<event>
 9    1  0.1321469E-005  0.1138324E+03  0.7546771E-02  0.1254819E+00
         21   -1    0    0  501  502  0.00000000000E+00  0.00000000000E+00  0.35795320636E+03  0.35795320636E+03  0.00000000000E+00 0. -1.
         -3   -1    0    0    0  501 -0.00000000000E+00 -0.00000000000E+00 -0.85955024745E+02  0.85955024745E+02  0.00000000000E+00 0.  1.
         23    2    1    2    0    0  0.56604382430E+02 -0.47795610437E+02 -0.17998978799E+02  0.11759024543E+03  0.89526678114E+02 0.  0.
         23    2    1    2    0    0 -0.23560822574E+02  0.33160638876E+02  0.14504046694E+03  0.17692420326E+03  0.92793837728E+02 0.  0.
        -11    1    3    3    0    0  0.16084999810E+02 -0.13301891938E+02  0.36104238418E+02  0.41703519992E+02  0.00000000000E+00 0.  1.
         11    1    3    3    0    0  0.40519382620E+02 -0.34493718499E+02 -0.54103217217E+02  0.75886725433E+02  0.00000000000E+00 0. -1.
        -13    1    4    4    0    0 -0.35027815088E+02  0.56786301642E+02  0.13131299917E+03  0.14729132912E+03  0.00000000000E+00 0.  1.
         13    1    4    4    0    0  0.11466992515E+02 -0.23625662766E+02  0.13727467765E+02  0.29632874138E+02  0.00000000000E+00 0. -1.
         -3    1    1    2    0  502 -0.33043559856E+02  0.14634971561E+02  0.14495669348E+03  0.14939378242E+03  0.00000000000E+00 0.  1.
<scales pt_clust_5="13000.00000" pt_clust_6="13000.00000" pt_clust_7="13000.00000" pt_clust_8="13000.00000" pt_clust_9="36.13944"></scales>
<clustering>
<clus scale="   36.139">  1  9  2 -1</clus>
<clus scale="   89.527">  5  6 -1 -1</clus>
<clus scale="   92.794">  7  8 -1 -1</clus>
<clus scale="  111.185">  2  5  1 -1</clus>
<clus scale="   36.139">  1  5  2 -1</clus>
</clustering>
</event>
<event>
 9    1  0.1321469E-005  0.2315772E+03  0.7546771E-02  0.1126345E+00
         21   -1    0    0  501  502  0.00000000000E+00  0.00000000000E+00  0.51057154486E+03  0.51057154486E+03  0.00000000000E+00 0.  1.
          2   -1    0    0  502    0 -0.00000000000E+00 -0.00000000000E+00 -0.59958791391E+03  0.59958791391E+03  0.00000000000E+00 0. -1.
         23    2    1    2    0    0 -0.20861769881E+03  0.10968648085E+01 -0.51089074825E+03  0.56113950883E+03  0.10171354065E+03 0.  0.
         23    2    1    2    0    0  0.19907223761E+03  0.10640162092E+03  0.28508549101E+03  0.37478378781E+03  0.90763922898E+02 0.  0.
        -13    1    4    4    0    0  0.14516971059E+03  0.11691355033E+03  0.19889779025E+03  0.27258641583E+03  0.00000000000E+00 0.  1.
         13    1    4    4    0    0  0.53902527013E+02 -0.10511929413E+02  0.86187700758E+02  0.10219737198E+03  0.00000000000E+00 0. -1.
        -13    1    3    3    0    0 -0.75479515609E+02  0.36124674431E+02 -0.11670053450E+03  0.14360071076E+03  0.00000000000E+00 0.  1.
         13    1    3    3    0    0 -0.13313818320E+03 -0.35027809622E+02 -0.39419021375E+03  0.41753879807E+03  0.00000000000E+00 0. -1.
          2    1    1    2  501    0  0.95454612061E+01 -0.10749848573E+03  0.13678888819E+03  0.17423616213E+03  0.00000000000E+00 0. -1.
<scales pt_clust_5="13000.00000" pt_clust_6="13000.00000" pt_clust_7="13000.00000" pt_clust_8="13000.00000" pt_clust_9="107.92145"></scales>
<clustering>
<clus scale="   90.764">  5  6 -1 -1</clus>
<clus scale="  101.714">  7  8 -1 -1</clus>
<clus scale="  107.921">  1  9  2 -1</clus>
<clus scale="  226.981">  1  5  2 -1</clus>
<clus scale="  107.921">  1  5  2 -1</clus>
</clustering>
</event>
<event>
 9    1  0.1321469E-005  0.1305862E+03  0.7546771E-02  0.1227079E+00
         -1   -1    0    0    0  501 -0.00000000000E+00  0.00000000000E+00  0.32788390019E+03  0.32788390019E+03  0.00000000000E+00 0.  1.
         21   -1    0    0  501  502  0.00000000000E+00 -0.00000000000E+00 -0.97225832364E+02  0.97225832364E+02  0.00000000000E+00 0.  1.
         23    2    1    2    0    0 -0.56922338900E+02  0.83240870463E+02  0.13678474288E+03  0.19352887719E+03  0.92596788497E+02 0.  0.
         23    2    1    2    0    0  0.51549311499E+02 -0.51053674824E+02 -0.15727535833E+02  0.11722512237E+03  0.90722459739E+02 0.  0.
        -13    1    3    3    0    0  0.22992749787E+02  0.35713539866E+02  0.30367950764E+02  0.52214326637E+02  0.00000000000E+00 0.  1.
         13    1    3    3    0    0 -0.79915088686E+02  0.47527330597E+02  0.10641679212E+03  0.14131455055E+03  0.00000000000E+00 0. -1.
        -13    1    4    4    0    0 -0.18699586153E+02 -0.40971240107E+02 -0.91055381560E+01  0.45948099670E+02  0.00000000000E+00 0. -1.
         13    1    4    4    0    0  0.70248897652E+02 -0.10082434717E+02 -0.66219976773E+01  0.71277022696E+02  0.00000000000E+00 0.  1.
         -1    1    1    2    0  502  0.53730274003E+01 -0.32187195639E+02  0.10960086078E+03  0.11435573300E+03  0.00000000000E+00 0.  1.
<scales pt_clust_5="13000.00000" pt_clust_6="13000.00000" pt_clust_7="13000.00000" pt_clust_8="13000.00000" pt_clust_9="32.63259"></scales>
<clustering>
<clus scale="   32.633">  2  9  1 -1</clus>
<clus scale="   90.722">  7  8 -1 -1</clus>
<clus scale="   92.597">  5  6 -1 -1</clus>
<clus scale="  129.264">  2  7  1 -1</clus>
<clus scale="   32.633">  2  5  1 -1</clus>
</clustering>
</event>
<event>
 9    1  0.1321469E-005  0.1115249E+03  0.7546771E-02  0.1258285E+00
         -2   -1    0    0    0  501 -0.00000000000E+00  0.00000000000E+00  0.18732149286E+03  0.18732149286E+03  0.00000000000E+00 0.  1.
         21   -1    0    0  501  502  0.00000000000E+00 -0.00000000000E+00 -0.19256698870E+03  0.19256698870E+03  0.00000000000E+00 0.  1.
         23    2    1    2    0    0 -0.70107730246E+02  0.26329965966E+02  0.12676631926E+03  0.17224564594E+03  0.89389607345E+02 0.  0.
         23    2    1    2    0    0  0.30561440907E+02  0.20459306047E+02 -0.69337997217E+02  0.12000065157E+03  0.90773419264E+02 0.  0.
        -11    1    4    4    0    0  0.45802674930E+01 -0.32817526843E+02 -0.45095595405E+02  0.55960536482E+02  0.00000000000E+00 0.  1.
         11    1    4    4    0    0  0.25981173414E+02  0.53276832891E+02 -0.24242401812E+02  0.64040115088E+02  0.00000000000E+00 0. -1.
        -13    1    3    3    0    0 -0.61678861342E+02 -0.16919184954E+02  0.41426134247E+02  0.76201478690E+02  0.00000000000E+00 0. -1.
         13    1    3    3    0    0 -0.84288689038E+01  0.43249150919E+02  0.85340185009E+02  0.96044167254E+02  0.00000000000E+00 0.  1.
         -2    1    1    2    0  502  0.39546289339E+02 -0.46789272013E+02 -0.62673817885E+02  0.87642184046E+02  0.00000000000E+00 0.  1.
<scales pt_clust_5="13000.00000" pt_clust_6="13000.00000" pt_clust_7="13000.00000" pt_clust_8="13000.00000" pt_clust_9="61.26292"></scales>
<clustering>
<clus scale="   61.263">  2  9  1 -1</clus>
<clus scale="   89.390">  7  8 -1 -1</clus>
<clus scale="   90.773">  5  6 -1 -1</clus>
<clus scale="  110.401">  1  7  2 -1</clus>
<clus scale="   61.263">  2  5  1 -1</clus>
</clustering>
</event>
<event>
 9    1  0.1321469E-005  0.1073293E+03  0.7546771E-02  0.1268368E+00
         21   -1    0    0  501  502  0.00000000000E+00  0.00000000000E+00  0.36040735013E+03  0.36040735013E+03  0.00000000000E+00 0.  1.
          1   -1    0    0  502    0 -0.00000000000E+00 -0.00000000000E+00 -0.41578557113E+02  0.41578557113E+02  0.00000000000E+00 0. -1.
         23    2    1    2    0    0 -0.56417699225E+02  0.16416773107E+02  0.11158234847E+03  0.15869610595E+03  0.96339848075E+02 0.  0.
         23    2    1    2    0    0  0.29340434386E+02 -0.20314345265E+02  0.13587741604E+03  0.16685742877E+03  0.90028860001E+02 0.  0.
        -11    1    3    3    0    0 -0.24601091641E+02 -0.36754979420E+01 -0.13342656000E+02  0.28226750862E+02  0.00000000000E+00 0. -1.
         11    1    3    3    0    0 -0.31816607584E+02  0.20092271049E+02  0.12492500447E+03  0.13046935508E+03  0.00000000000E+00 0.  1.
        -13    1    4    4    0    0  0.43908452590E+02 -0.43579444164E+01  0.19070474721E+02  0.48068980584E+02  0.00000000000E+00 0.  1.
         13    1    4    4    0    0 -0.14568018203E+02 -0.15956400849E+02  0.11680694132E+03  0.11878844819E+03  0.00000000000E+00 0. -1.
          1    1    1    2  501    0  0.27077264839E+02  0.38975721584E+01  0.71369028507E+02  0.76432372526E+02  0.00000000000E+00 0. -1.
<scales pt_clust_5="13000.00000" pt_clust_6="13000.00000" pt_clust_7="13000.00000" pt_clust_8="13000.00000" pt_clust_9="27.35634"></scales>
<clustering>
<clus scale="   27.356">  1  9  2 -1</clus>
<clus scale="   90.029">  7  8 -1 -1</clus>
<clus scale="   96.340">  5  6 -1 -1</clus>
<clus scale="  101.703">  1  7  2 -1</clus>
<clus scale="   27.356">  1  5  2 -1</clus>
</clustering>
</event>
<event>
 9    1  0.1321469E-005  0.1136101E+03  0.7546771E-02  0.1255102E+00
          2   -1    0    0  502    0 -0.00000000000E+00  0.00000000000E+00  0.53083655753E+03  0.53083655753E+03  0.00000000000E+00 0. -1.
         21   -1    0    0  501  502  0.00000000000E+00 -0.00000000000E+00 -0.41117893931E+02  0.41117893931E+02  0.00000000000E+00 0.  1.
         23    2    1    2    0    0  0.48899657219E+02  0.56388132585E+02  0.33033124598E+03  0.35098213066E+03  0.92189619822E+02 0.  0.
         23    2    1    2    0    0 -0.23554765747E+02 -0.50257760955E+02  0.16372049922E+03  0.19453899758E+03  0.89220794602E+02 0.  0.
        -11    1    4    4    0    0 -0.55261801813E+02 -0.37118759855E+02  0.13184694626E+03  0.14769998751E+03  0.00000000000E+00 0.  1.
         11    1    4    4    0    0  0.31707036066E+02 -0.13139001099E+02  0.31873552959E+02  0.46839010069E+02  0.00000000000E+00 0. -1.
        -13    1    3    3    0    0 -0.16014119585E+02 -0.15088669377E+02  0.65707524349E+02  0.69293569151E+02  0.00000000000E+00 0.  1.
         13    1    3    3    0    0  0.64913776804E+02  0.71476801963E+02  0.26462372163E+03  0.28168856151E+03  0.00000000000E+00 0. -1.
          2    1    1    2  501    0 -0.25344891471E+02 -0.61303716306E+01 -0.43330816007E+01  0.26433323215E+02  0.00000000000E+00 0. -1.
<scales pt_clust_5="13000.00000" pt_clust_6="13000.00000" pt_clust_7="13000.00000" pt_clust_8="13000.00000" pt_clust_9="26.07575"></scales>
<clustering>
<clus scale="   26.076">  2  9  1 -1</clus>
<clus scale="   89.221">  5  6 -1 -1</clus>
<clus scale="   92.190">  7  8 -1 -1</clus>
<clus scale="  111.215">  2  5  1 -1</clus>
<clus scale="   26.076">  2  5  1 -1</clus>
</clustering>
</event>
<event>
 9    1  0.1321469E-005  0.9918059E+02  0.7546771E-02  0.1282707E+00
          2   -1    0    0  502    0 -0.00000000000E+00  0.00000000000E+00  0.76391696244E+03  0.76391696244E+03  0.00000000000E+00 0. -1.
         21   -1    0    0  501  502  0.00000000000E+00 -0.00000000000E+00 -0.22782545633E+02  0.22782545633E+02  0.00000000000E+00 0. -1.
         23    2    1    2    0    0  0.18818665944E+02 -0.26111887939E+02  0.21790349880E+03  0.23838943154E+03  0.91168050331E+02 0.  0.
         23    2    1    2    0    0 -0.54398493778E+02  0.34023757878E+01  0.24036811854E+03  0.26231530488E+03  0.89787050721E+02 0.  0.
        -11    1    4    4    0    0 -0.24727125337E+02  0.30815110404E+02  0.34287784635E+02  0.52313037876E+02  0.00000000000E+00 0.  1.
         11    1    4    4    0    0 -0.29671368441E+02 -0.27412734616E+02  0.20608033390E+03  0.21000226700E+03  0.00000000000E+00 0. -1.
        -11    1    3    3    0    0  0.18033190287E+02 -0.56110992624E+02  0.18352063170E+03  0.19275233255E+03  0.00000000000E+00 0. -1.
         11    1    3    3    0    0  0.78547565744E+00  0.29999104685E+02  0.34382867101E+02  0.45637098988E+02  0.00000000000E+00 0.  1.
          2    1    1    2  501    0  0.35579827834E+02  0.22709512151E+02  0.28286279947E+03  0.28599477166E+03  0.00000000000E+00 0. -1.
<scales pt_clust_5="13000.00000" pt_clust_6="13000.00000" pt_clust_7="13000.00000" pt_clust_8="13000.00000" pt_clust_9="42.20957"></scales>
<clustering>
<clus scale="   42.210">  2  9  1 -1</clus>
<clus scale="   89.787">  5  6 -1 -1</clus>
<clus scale="   91.168">  7  8 -1 -1</clus>
<clus scale="   97.913">  2  5  1 -1</clus>
<clus scale="   42.210">  2  5  1 -1</clus>
</clustering>
</event>
<event>
 9    1  0.1321469E-005  0.1473927E+03  0.7546771E-02  0.1204094E+00
         21   -1    0    0  501  502  0.00000000000E+00  0.00000000000E+00  0.30122145902E+03  0.30122145902E+03  0.00000000000E+00 0. -1.
          1   -1    0    0  502    0 -0.00000000000E+00 -0.00000000000E+00 -0.22734248792E+03  0.22734248792E+03  0.00000000000E+00 0. -1.
         23    2    1    2    0    0  0.68511050684E+02  0.87804542707E+02 -0.14619977265E+03  0.20534183587E+03  0.91583264026E+02 0.  0.
         23    2    1    2    0    0 -0.12646848594E+03 -0.61803368985E+02  0.13098876098E+03  0.21380478900E+03  0.93490630246E+02 0.  0.
        -11    1    4    4    0    0 -0.54332315455E+02 -0.30791901857E+02  0.16201539811E+01  0.62472126757E+02  0.00000000000E+00 0. -1.
         11    1    4    4    0    0 -0.72136170486E+02 -0.31011467128E+02  0.12936860700E+03  0.15133266225E+03  0.00000000000E+00 0.  1.
        -11    1    3    3    0    0 -0.22743812950E+02  0.17943252767E+02 -0.34877924269E+02  0.45339948706E+02  0.00000000000E+00 0.  1.
         11    1    3    3    0    0  0.91254863634E+02  0.69861289940E+02 -0.11132184838E+03  0.16000188716E+03  0.00000000000E+00 0. -1.
          1    1    1    2  501    0  0.57957435257E+02 -0.26001173722E+02  0.89089982771E+02  0.10941732206E+03  0.00000000000E+00 0. -1.
<scales pt_clust_5="13000.00000" pt_clust_6="13000.00000" pt_clust_7="13000.00000" pt_clust_8="13000.00000" pt_clust_9="63.52264"></scales>
<clustering>
<clus scale="   63.523">  1  9  2 -1</clus>
<clus scale="   91.583">  7  8 -1 -1</clus>
<clus scale="   93.491">  5  6 -1 -1</clus>
<clus scale="  146.190">  2  7  1 -1</clus>
<clus scale="   63.523">  1  5  2 -1</clus>
</clustering>
</event>
<event>
 9    1  0.1321469E-005  0.9506957E+02  0.7546771E-02  0.1301028E+00
         21   -1    0    0  501  502  0.00000000000E+00  0.00000000000E+00  0.55464519796E+02  0.55464519796E+02  0.00000000000E+00 0.  1.
          2   -1    0    0  502    0 -0.00000000000E+00 -0.00000000000E+00 -0.20176002842E+03  0.20176002842E+03  0.00000000000E+00 0. -1.
         23    2    1    2    0    0 -0.77735397244E+01  0.26862796511E+02 -0.62434745349E+02  0.10055118096E+03  0.73691280419E+02 0.  0.
         23    2    1    2    0    0 -0.24773036004E+02 -0.28646973600E+02 -0.72456449607E+02  0.12214046628E+03  0.90741412838E+02 0.  0.
        -13    1    4    4    0    0  0.20005998644E+02 -0.38314487504E+02 -0.61273498888E+02  0.74984542410E+02  0.00000000000E+00 0. -1.
         13    1    4    4    0    0 -0.44779034648E+02  0.96675139044E+01 -0.11182950718E+02  0.47155923869E+02  0.00000000000E+00 0.  1.
        -13    1    3    3    0    0 -0.29549334284E+02  0.42171506016E+02 -0.34606146479E+02  0.62041795996E+02  0.00000000000E+00 0.  1.
         13    1    3    3    0    0  0.21775794559E+02 -0.15308709505E+02 -0.27828598870E+02  0.38509384966E+02  0.00000000000E+00 0. -1.
          2    1    1    2  501    0  0.32546575729E+02  0.17841770888E+01 -0.11404313670E+02  0.34532900976E+02  0.00000000000E+00 0. -1.
<scales pt_clust_5="13000.00000" pt_clust_6="13000.00000" pt_clust_7="13000.00000" pt_clust_8="13000.00000" pt_clust_9="32.59544"></scales>
<clustering>
<clus scale="   32.595">  1  9  2 -1</clus>
<clus scale="   73.691">  7  8 -1 -1</clus>
<clus scale="   78.960">  2  7  1 -1</clus>
<clus scale="   90.741">  5  6 -1 -1</clus>
<clus scale="   32.595">  1  5  2 -1</clus>
</clustering>
</event>
<event>
 9    1  0.1321469E-005  0.9251464E+02  0.7546771E-02  0.1297131E+00
          3   -1    0    0  502    0 -0.00000000000E+00  0.00000000000E+00  0.55833237409E+03  0.55833237409E+03  0.00000000000E+00 0. -1.
         21   -1    0    0  501  502  0.00000000000E+00 -0.00000000000E+00 -0.29245690061E+02  0.29245690061E+02  0.00000000000E+00 0.  1.
         23    2    1    2    0    0 -0.17591455814E+02 -0.14377839390E+02  0.29852448424E+03  0.31316396910E+03  0.91861974014E+02 0.  0.
         23    2    1    2    0    0 -0.20150606696E+02 -0.64147600402E+01  0.20090875646E+03  0.22210613987E+03  0.92301748901E+02 0.  0.
        -13    1    3    3    0    0 -0.24239210543E+01  0.38849459172E+02  0.11004591318E+03  0.11672728421E+03  0.00000000000E+00 0.  1.
         13    1    3    3    0    0 -0.15167534760E+02 -0.53227298561E+02  0.18847857105E+03  0.19643668489E+03  0.00000000000E+00 0. -1.
        -13    1    4    4    0    0 -0.51998688120E+02  0.15113555721E+02  0.93808365345E+02  0.10831570773E+03  0.00000000000E+00 0.  1.
         13    1    4    4    0    0  0.31848081424E+02 -0.21528315761E+02  0.10710039111E+03  0.11379043214E+03  0.00000000000E+00 0. -1.
          3    1    1    2  501    0  0.37742062510E+02  0.20792599430E+02  0.29653443334E+02  0.52307955180E+02  0.00000000000E+00 0. -1.
<scales pt_clust_5="13000.00000" pt_clust_6="13000.00000" pt_clust_7="13000.00000" pt_clust_8="13000.00000" pt_clust_9="43.09055"></scales>
<clustering>
<clus scale="   43.091">  2  9  1 -1</clus>
<clus scale="   91.862">  5  6 -1 -1</clus>
<clus scale="   92.076">  1  5  2 -1</clus>
<clus scale="   92.302">  7  8 -1 -1</clus>
<clus scale="   43.091">  2  5  1 -1</clus>
</clustering>
</event>
<event>
 9    1  0.1617686E-005  0.1300772E+03  0.7546771E-02  0.1228279E+00
         -2   -1    0    0    0  501 -0.00000000000E+00  0.00000000000E+00  0.32068896090E+03  0.32068896090E+03  0.00000000000E+00 0.  1.
         21   -1    0    0  501  502  0.00000000000E+00 -0.00000000000E+00 -0.24504250161E+03  0.24504250161E+03  0.00000000000E+00 0.  1.
         23    2    1    2    0    0 -0.11112489280E+03  0.19456921133E+02  0.20395709742E+03  0.25116425330E+03  0.93582428731E+02 0.  0.
         23    2    1    2    0    0  0.53667943364E+02 -0.28631086604E+02  0.55309047101E+02  0.12194930985E+03  0.90069729745E+02 0.  0.
        -13    1    3    3    0    0 -0.12047609812E+03 -0.43135137174E+01  0.17560064427E+03  0.21299925561E+03  0.00000000000E+00 0.  1.
         13    1    3    3    0    0  0.93512053193E+01  0.23770434851E+02  0.28356453142E+02  0.38164997691E+02  0.00000000000E+00 0. -1.
        -13    1    4    4    0    0  0.31466435022E+02 -0.60005681627E+02  0.47451146048E+02  0.82718979816E+02  0.00000000000E+00 0. -1.
         13    1    4    4    0    0  0.22201508342E+02  0.31374595023E+02  0.78579010522E+01  0.39230330032E+02  0.00000000000E+00 0.  1.
         -2    1    1    2    0  502  0.57456949439E+02  0.91741654706E+01 -0.18361968523E+03  0.19261789937E+03  0.00000000000E+00 0.  1.
<scales pt_clust_5="13000.00000" pt_clust_6="13000.00000" pt_clust_7="13000.00000" pt_clust_8="13000.00000" pt_clust_9="58.18476"></scales>
<clustering>
<clus scale="   58.185">  2  9  1 -1</clus>
<clus scale="   90.070">  7  8 -1 -1</clus>
<clus scale="   93.582">  5  6 -1 -1</clus>
<clus scale="  127.573">  2  7  1 -1</clus>
<clus scale="   58.185">  2  5  1 -1</clus>
</clustering>
</event>
<event>
 9    1  0.1321469E-005  0.1042112E+03  0.7546771E-02  0.1271686E+00
          2   -1    0    0  502    0 -0.00000000000E+00  0.00000000000E+00  0.35822721098E+03  0.35822721098E+03  0.00000000000E+00 0. -1.
         21   -1    0    0  501  502  0.00000000000E+00 -0.00000000000E+00 -0.96238948846E+02  0.96238948846E+02  0.00000000000E+00 0. -1.
         23    2    1    2    0    0  0.34209922309E+02 -0.23938336546E+02  0.23402517870E+03  0.25479766047E+03  0.91709872835E+02 0.  0.
         23    2    1    2    0    0 -0.95782889372E+02  0.27244267992E+02  0.11648257677E+02  0.13588501407E+03  0.91719371493E+02 0.  0.
        -13    1    4    4    0    0 -0.81808643823E+02  0.49576307084E+02 -0.16789469538E+02  0.97120289928E+02  0.00000000000E+00 0. -1.
         13    1    4    4    0    0 -0.13974245548E+02 -0.22332039092E+02  0.28437727215E+02  0.38764724142E+02  0.00000000000E+00 0.  1.
        -13    1    3    3    0    0  0.63518325547E+02 -0.30899687512E+02  0.16257080069E+03  0.17725302143E+03  0.00000000000E+00 0.  1.
         13    1    3    3    0    0 -0.29308403237E+02  0.69613509654E+01  0.71454378007E+02  0.77544639041E+02  0.00000000000E+00 0. -1.
          2    1    1    2  501    0  0.61572967062E+02 -0.33059314458E+01  0.16314825758E+02  0.63783485285E+02  0.00000000000E+00 0. -1.
<scales pt_clust_5="13000.00000" pt_clust_6="13000.00000" pt_clust_7="13000.00000" pt_clust_8="13000.00000" pt_clust_9="61.66165"></scales>
<clustering>
<clus scale="   61.662">  2  9  1 -1</clus>
<clus scale="   91.710">  7  8 -1 -1</clus>
<clus scale="   91.719">  5  6 -1 -1</clus>
<clus scale="  104.203">  1  7  2 -1</clus>
<clus scale="   61.662">  2  5  1 -1</clus>
</clustering>
</event>
<event>
 9    1  0.1321469E-005  0.9941496E+02  0.7546771E-02  0.1281557E+00
          1   -1    0    0  502    0 -0.00000000000E+00  0.00000000000E+00  0.49561629685E+03  0.49561629685E+03  0.00000000000E+00 0. -1.
         21   -1    0    0  501  502  0.00000000000E+00 -0.00000000000E+00 -0.25880337689E+02  0.25880337689E+02  0.00000000000E+00 0.  1.
         23    2    1    2    0    0  0.77612928120E+01  0.29005630791E+02  0.18891672147E+03  0.21186816999E+03  0.91088031711E+02 0.  0.
         23    2    1    2    0    0  0.50201219698E+01 -0.50907610060E+02  0.21399120845E+03  0.23815086839E+03  0.91141716221E+02 0.  0.
        -13    1    3    3    0    0  0.84997982415E+01 -0.31100527841E+02  0.95379365306E+02  0.10068124318E+03  0.00000000000E+00 0.  1.
         13    1    3    3    0    0 -0.73850542948E+00  0.60106158632E+02  0.93537356167E+02  0.11118692681E+03  0.00000000000E+00 0. -1.
        -13    1    4    4    0    0  0.45294382205E+02 -0.41033980222E+02  0.14912061748E+03  0.16115932226E+03  0.00000000000E+00 0.  1.
         13    1    4    4    0    0 -0.40274260236E+02 -0.98736298375E+01  0.64870590961E+02  0.76991546129E+02  0.00000000000E+00 0. -1.
          1    1    1    2  501    0 -0.12781414782E+02  0.21901979269E+02  0.66828029242E+02  0.71477596155E+02  0.00000000000E+00 0. -1.
<scales pt_clust_5="13000.00000" pt_clust_6="13000.00000" pt_clust_7="13000.00000" pt_clust_8="13000.00000" pt_clust_9="25.35867"></scales>
<clustering>
<clus scale="   25.359">  2  9  1 -1</clus>
<clus scale="   91.088">  5  6 -1 -1</clus>
<clus scale="   91.142">  7  8 -1 -1</clus>
<clus scale="   99.366">  1  5  2 -1</clus>
<clus scale="   25.359">  2  5  1 -1</clus>
</clustering>
</event>
<event>
 9    1  0.1321469E-005  0.9213803E+02  0.7546771E-02  0.1298180E+00
          2   -1    0    0  502    0 -0.00000000000E+00  0.00000000000E+00  0.59430486873E+02  0.59430486873E+02  0.00000000000E+00 0. -1.
         21   -1    0    0  501  502  0.00000000000E+00 -0.00000000000E+00 -0.48712573254E+03  0.48712573254E+03  0.00000000000E+00 0. -1.
         23    2    1    2    0    0  0.10597009301E+02 -0.12671902360E+02  0.72522251485E+01  0.93030626048E+02  0.91264609229E+02 0.  0.
         23    2    1    2    0    0 -0.15730546863E+01 -0.18367696844E+02 -0.26805388585E+03  0.28353042526E+03  0.90536012404E+02 0.  0.
        -13    1    4    4    0    0  0.37647662260E+02 -0.93281037945E+01 -0.58794544653E+02  0.70435491587E+02  0.00000000000E+00 0.  1.
         13    1    4    4    0    0 -0.39220716947E+02 -0.90395930498E+01 -0.20925934120E+03  0.21309493368E+03  0.00000000000E+00 0. -1.
        -13    1    3    3    0    0 -0.78048288167E+01  0.33470578227E+02  0.22485928095E+02  0.41070815941E+02  0.00000000000E+00 0.  1.
         13    1    3    3    0    0  0.18401838117E+02 -0.46142480588E+02 -0.15233702947E+02  0.51959810107E+02  0.00000000000E+00 0. -1.
          2    1    1    2  501    0 -0.90239546142E+01  0.31039599205E+02 -0.16689358496E+03  0.16999516810E+03  0.00000000000E+00 0. -1.
<scales pt_clust_5="13000.00000" pt_clust_6="13000.00000" pt_clust_7="13000.00000" pt_clust_8="13000.00000" pt_clust_9="32.32473"></scales>
<clustering>
<clus scale="   32.325">  2  9  1 -1</clus>
<clus scale="   90.536">  5  6 -1 -1</clus>
<clus scale="   91.265">  7  8 -1 -1</clus>
<clus scale="   91.416">  2  5  1 -1</clus>
<clus scale="   32.325">  2  5  1 -1</clus>
</clustering>
</event>
<event>
 9    1  0.1321469E-005  0.1011375E+03  0.7546771E-02  0.1278760E+00
         -1   -1    0    0    0  501 -0.00000000000E+00  0.00000000000E+00  0.19520515297E+03  0.19520515297E+03  0.00000000000E+00 0.  1.
         21   -1    0    0  501  502  0.00000000000E+00 -0.00000000000E+00 -0.91801324657E+02  0.91801324657E+02  0.00000000000E+00 0. -1.
         23    2    1    2    0    0  0.48305549197E+02  0.65590936550E+01  0.10757583574E+03  0.14934296201E+03  0.91401925991E+02 0.  0.
         23    2    1    2    0    0 -0.21746466207E+02  0.15342965020E+02  0.15359168450E+02  0.98083825186E+02  0.93146214843E+02 0.  0.
        -11    1    4    4    0    0  0.13960295067E+02  0.38236161053E+02 -0.17620913932E+02  0.44355275427E+02  0.00000000000E+00 0.  1.
         11    1    4    4    0    0 -0.35706761274E+02 -0.22893196033E+02  0.32980082382E+02  0.53728549759E+02  0.00000000000E+00 0. -1.
        -11    1    3    3    0    0  0.35440573412E+02  0.24873938149E+02  0.41201727241E+01  0.43493940567E+02  0.00000000000E+00 0. -1.
         11    1    3    3    0    0  0.12864975785E+02 -0.18314844494E+02  0.10345566302E+03  0.10584902145E+03  0.00000000000E+00 0.  1.
         -1    1    1    2    0  502 -0.26559082990E+02 -0.21902058675E+02 -0.19531175876E+02  0.39579690430E+02  0.00000000000E+00 0.  1.
<scales pt_clust_5="13000.00000" pt_clust_6="13000.00000" pt_clust_7="13000.00000" pt_clust_8="13000.00000" pt_clust_9="34.42506"></scales>
<clustering>
<clus scale="   34.425">  2  9  1 -1</clus>
<clus scale="   91.402">  7  8 -1 -1</clus>
<clus scale="   93.146">  5  6 -1 -1</clus>
<clus scale="   99.533">  1  7  2 -1</clus>
<clus scale="   34.425">  2  5  1 -1</clus>
</clustering>
</event>
<event>
 9    1  0.1321469E-005  0.1051409E+03  0.7546771E-02  0.1270813E+00
         21   -1    0    0  501  502  0.00000000000E+00  0.00000000000E+00  0.12025681893E+03  0.12025681893E+03  0.00000000000E+00 0.  1.
          1   -1    0    0  502    0 -0.00000000000E+00 -0.00000000000E+00 -0.19653296734E+03  0.19653296734E+03  0.00000000000E+00 0. -1.
         23    2    1    2    0    0 -0.30034052859E+02  0.89038059371E+01 -0.60319663192E+02  0.11295703754E+03  0.90219224508E+02 0.  0.
         23    2    1    2    0    0  0.65158240049E+02 -0.40423703575E+02 -0.64329077658E+02  0.13625227690E+03  0.92448800263E+02 0.  0.
        -13    1    4    4    0    0  0.44985052426E+02 -0.70542704887E+02 -0.41286001066E+02  0.93297706503E+02  0.00000000000E+00 0.  1.
         13    1    4    4    0    0  0.20173187623E+02  0.30119001312E+02 -0.23043076592E+02  0.42954570394E+02  0.00000000000E+00 0. -1.
        -13    1    3    3    0    0  0.27101630049E+02  0.95630286338E+01  0.14957779391E+01  0.28778242121E+02  0.00000000000E+00 0.  1.
         13    1    3    3    0    0 -0.57135682908E+02 -0.65922269663E+00 -0.61815441131E+02  0.84178795419E+02  0.00000000000E+00 0. -1.
          1    1    1    2  501    0 -0.35124187190E+02  0.31519897638E+02  0.48372592441E+02  0.67580471827E+02  0.00000000000E+00 0. -1.
<scales pt_clust_5="13000.00000" pt_clust_6="13000.00000" pt_clust_7="13000.00000" pt_clust_8="13000.00000" pt_clust_9="47.19335"></scales>
<clustering>
<clus scale="   47.193">  1  9  2 -1</clus>
<clus scale="   90.219">  7  8 -1 -1</clus>
<clus scale="   92.449">  5  6 -1 -1</clus>
<clus scale="  103.186">  2  7  1 -1</clus>
<clus scale="   47.193">  1  5  2 -1</clus>
</clustering>
</event>
<event>
 9    1  0.1321469E-005  0.1310823E+03  0.7546771E-02  0.1226670E+00
         21   -1    0    0  501  502  0.00000000000E+00  0.00000000000E+00  0.57629883967E+03  0.57629883967E+03  0.00000000000E+00 0.  1.
         -3   -1    0    0    0  501 -0.00000000000E+00 -0.00000000000E+00 -0.64953349729E+02  0.64953349729E+02  0.00000000000E+00 0.  1.
         23    2    1    2    0    0 -0.80513748513E+02 -0.85831490097E+02  0.68738142301E+02  0.16407433822E+03  0.91356159418E+02 0.  0.
         23    2    1    2    0    0  0.42980929370E+02  0.31510973686E+02  0.19062572997E+03  0.21668952772E+03  0.88180954542E+02 0.  0.
        -13    1    3    3    0    0  0.12084792838E+02 -0.46499149992E+02  0.17150519866E+02  0.51013267878E+02  0.00000000000E+00 0. -1.
         13    1    3    3    0    0 -0.92598541351E+02 -0.39332340105E+02  0.51587622434E+02  0.11306107034E+03  0.00000000000E+00 0.  1.
        -13    1    4    4    0    0  0.36900648495E+02  0.61420392051E+02  0.12022955601E+03  0.13996166818E+03  0.00000000000E+00 0. -1.
         13    1    4    4    0    0  0.60802808756E+01 -0.29909418365E+02  0.70396173957E+02  0.76727859544E+02  0.00000000000E+00 0.  1.
         -3    1    1    2    0  502  0.37532819143E+02  0.54320516411E+02  0.25198161767E+03  0.26048832346E+03  0.00000000000E+00 0.  1.
<scales pt_clust_5="13000.00000" pt_clust_6="13000.00000" pt_clust_7="13000.00000" pt_clust_8="13000.00000" pt_clust_9="66.02599"></scales>
<clustering>
<clus scale="   66.026">  1  9  2 -1</clus>
<clus scale="   88.181">  7  8 -1 -1</clus>
<clus scale="   91.356">  5  6 -1 -1</clus>
<clus scale="  128.890">  1  7  2 -1</clus>
<clus scale="   66.026">  1  5  2 -1</clus>
</clustering>
</event>
<event>
 9    1  0.1321469E-005  0.1152489E+03  0.7546771E-02  0.1253028E+00
         -1   -1    0    0    0  501 -0.00000000000E+00  0.00000000000E+00  0.12055324489E+03  0.12055324489E+03  0.00000000000E+00 0.  1.
         21   -1    0    0  501  502  0.00000000000E+00 -0.00000000000E+00 -0.19252013047E+03  0.19252013047E+03  0.00000000000E+00 0. -1.
         23    2    1    2    0    0  0.66021649797E+02 -0.12826426375E+02  0.53049401840E+02  0.12631287345E+03  0.92829561604E+02 0.  0.
         23    2    1    2    0    0 -0.37371567099E+02  0.22538799366E+02 -0.86009010988E+02  0.13739730670E+03  0.97856212947E+02 0.  0.
        -11    1    4    4    0    0 -0.63386322363E+02 -0.11379270685E+02 -0.52053721210E+02  0.82806422190E+02  0.00000000000E+00 0. -1.
         11    1    4    4    0    0  0.26014755264E+02  0.33918070051E+02 -0.33955289778E+02  0.54590884508E+02  0.00000000000E+00 0.  1.
        -13    1    3    3    0    0  0.11686088930E+02  0.32303372702E+02 -0.52201467240E+01  0.34746546508E+02  0.00000000000E+00 0. -1.
         13    1    3    3    0    0  0.54335560867E+02 -0.45129799077E+02  0.58269548564E+02  0.91566326940E+02  0.00000000000E+00 0.  1.
         -1    1    1    2    0  502 -0.28650082697E+02 -0.97123729909E+01 -0.39007276424E+02  0.49363195214E+02  0.00000000000E+00 0.  1.
<scales pt_clust_5="13000.00000" pt_clust_6="13000.00000" pt_clust_7="13000.00000" pt_clust_8="13000.00000" pt_clust_9="30.25157"></scales>
<clustering>
<clus scale="   30.252">  2  9  1 -1</clus>
<clus scale="   92.830">  7  8 -1 -1</clus>
<clus scale="   97.856">  5  6 -1 -1</clus>
<clus scale="  111.013">  1  7  2 -1</clus>
<clus scale="   30.252">  2  5  1 -1</clus>
</clustering>
</event>
<event>
 9    1  0.1321469E-005  0.1229169E+03  0.7546771E-02  0.1238488E+00
          1   -1    0    0  502    0 -0.00000000000E+00  0.00000000000E+00  0.58021195009E+02  0.58021195009E+02  0.00000000000E+00 0. -1.
         21   -1    0    0  501  502  0.00000000000E+00 -0.00000000000E+00 -0.32978701808E+03  0.32978701808E+03  0.00000000000E+00 0.  1.
         23    2    1    2    0    0  0.72914454682E+02 -0.75417675913E+01 -0.91010407440E+02  0.14813821936E+03  0.91041978296E+02 0.  0.
         23    2    1    2    0    0 -0.94434604084E+02  0.87808992081E+01 -0.13070270960E+03  0.18517296942E+03  0.90613639529E+02 0.  0.
        -11    1    3    3    0    0 -0.38713357483E+00  0.29832363545E+02 -0.44638329225E+02  0.53690783409E+02  0.00000000000E+00 0.  1.
         11    1    3    3    0    0  0.73301588257E+02 -0.37374131137E+02 -0.46372078216E+02  0.94447435949E+02  0.00000000000E+00 0. -1.
        -13    1    4    4    0    0 -0.10213494615E+03 -0.17631786095E+02 -0.10221522098E+03  0.14556915369E+03  0.00000000000E+00 0.  1.
         13    1    4    4    0    0  0.77003420644E+01  0.26412685303E+02 -0.28487488619E+02  0.39603815733E+02  0.00000000000E+00 0. -1.
          1    1    1    2  501    0  0.21520149402E+02 -0.12391316168E+01 -0.50052706035E+02  0.54497024312E+02  0.00000000000E+00 0. -1.
<scales pt_clust_5="13000.00000" pt_clust_6="13000.00000" pt_clust_7="13000.00000" pt_clust_8="13000.00000" pt_clust_9="21.55579"></scales>
<clustering>
<clus scale="   21.556">  2  9  1 -1</clus>
<clus scale="   90.614">  7  8 -1 -1</clus>
<clus scale="   91.042">  5  6 -1 -1</clus>
<clus scale="  122.600">  2  7  1 -1</clus>
<clus scale="   21.556">  2  5  1 -1</clus>
</clustering>
</event>
<event>
 9    1  0.1321469E-005  0.1051064E+03  0.7546771E-02  0.1270195E+00
         21   -1    0    0  501  502  0.00000000000E+00  0.00000000000E+00  0.21008366516E+03  0.21008366516E+03  0.00000000000E+00 0.  1.
          3   -1    0    0  502    0 -0.00000000000E+00 -0.00000000000E+00 -0.88232267128E+02  0.88232267128E+02  0.00000000000E+00 0. -1.
         23    2    1    2    0    0  0.44354912802E+02 -0.34457323858E+02 -0.62874912047E+00  0.10774039246E+03  0.91939824807E+02 0.  0.
         23    2    1    2    0    0 -0.16982193873E+02  0.43975892899E+02  0.53660571495E+02  0.11590290165E+03  0.91278429067E+02 0.  0.
        -13    1    3    3    0    0  0.69807655192E+01 -0.61153640824E+02  0.33285145233E+01  0.61640716107E+02  0.00000000000E+00 0.  1.
         13    1    3    3    0    0  0.37374147283E+02  0.26696316966E+02 -0.39572636437E+01  0.46099676357E+02  0.00000000000E+00 0. -1.
        -13    1    4    4    0    0  0.37577121971E+02  0.22516500865E+02  0.27336686464E+02  0.51636492267E+02  0.00000000000E+00 0. -1.
         13    1    4    4    0    0 -0.54559315845E+02  0.21459392034E+02  0.26323885031E+02  0.64266409383E+02  0.00000000000E+00 0.  1.
          3    1    1    2  501    0 -0.27372718929E+02 -0.95185690407E+01  0.68819575653E+02  0.74672638170E+02  0.00000000000E+00 0. -1.
<scales pt_clust_5="13000.00000" pt_clust_6="13000.00000" pt_clust_7="13000.00000" pt_clust_8="13000.00000" pt_clust_9="28.98049"></scales>
<clustering>
<clus scale="   28.980">  1  9  2 -1</clus>
<clus scale="   91.278">  7  8 -1 -1</clus>
<clus scale="   91.940">  5  6 -1 -1</clus>
<clus scale="  104.528">  1  7  2 -1</clus>
<clus scale="   28.980">  1  5  2 -1</clus>
</clustering>
</event>
<event>
 9    1  0.1321469E-005  0.1477684E+03  0.7546771E-02  0.1204197E+00
          2   -1    0    0  502    0 -0.00000000000E+00  0.00000000000E+00  0.25739770294E+03  0.25739770294E+03  0.00000000000E+00 0. -1.
         21   -1    0    0  501  502  0.00000000000E+00 -0.00000000000E+00 -0.23073388998E+03  0.23073388998E+03  0.00000000000E+00 0. -1.
         23    2    1    2    0    0  0.11819358663E+03 -0.17731399597E+02  0.18469899627E+03  0.24004672608E+03  0.96044703279E+02 0.  0.
         23    2    1    2    0    0 -0.87983646233E+02 -0.17885331829E+02 -0.64196799599E+02  0.14326676575E+03  0.91340735663E+02 0.  0.
        -11    1    3    3    0    0  0.97726984515E+02  0.20793316279E+02  0.84841653268E+02  0.13107643432E+03  0.00000000000E+00 0. -1.
         11    1    3    3    0    0  0.20466602110E+02 -0.38524715876E+02  0.99857343006E+02  0.10897029177E+03  0.00000000000E+00 0.  1.
        -11    1    4    4    0    0 -0.75783239725E+01 -0.38350411140E+02 -0.12325395365E+01  0.39111432888E+02  0.00000000000E+00 0. -1.
         11    1    4    4    0    0 -0.80405322261E+02  0.20465079311E+02 -0.62964260062E+02  0.10415533286E+03  0.00000000000E+00 0.  1.
          2    1    1    2  501    0 -0.30209940392E+02  0.35616731426E+02 -0.93838383715E+02  0.10481810108E+03  0.00000000000E+00 0. -1.
<scales pt_clust_5="13000.00000" pt_clust_6="13000.00000" pt_clust_7="13000.00000" pt_clust_8="13000.00000" pt_clust_9="46.70323"></scales>
<clustering>
<clus scale="   46.703">  2  9  1 -1</clus>
<clus scale="   91.341">  7  8 -1 -1</clus>
<clus scale="   96.045">  5  6 -1 -1</clus>
<clus scale="  144.755">  2  7  1 -1</clus>
<clus scale="   46.703">  2  5  1 -1</clus>
</clustering>
</event>
<event>
 9    1  0.1321469E-005  0.1443478E+03  0.7546771E-02  0.1215705E+00
         21   -1    0    0  501  502  0.00000000000E+00  0.00000000000E+00  0.14524958006E+03  0.14524958006E+03  0.00000000000E+00 0.  1.
          2   -1    0    0  502    0 -0.00000000000E+00 -0.00000000000E+00 -0.25107670844E+03  0.25107670844E+03  0.00000000000E+00 0. -1.
         23    2    1    2    0    0  0.82771417320E+02  0.63653830455E+01 -0.17669890614E+03  0.22899981575E+03  0.11969455524E+03 0.  0.
         23    2    1    2    0    0 -0.74459436778E+02  0.14638435690E+02  0.32342052016E+02  0.12266340985E+03  0.90784427428E+02 0.  0.
        -11    1    3    3    0    0 -0.22298540702E+02 -0.27072673633E+02 -0.36257026288E+02  0.50445282538E+02  0.00000000000E+00 0.  1.
         11    1    3    3    0    0  0.10506995802E+03  0.33438056679E+02 -0.14044187985E+03  0.17855453321E+03  0.00000000000E+00 0. -1.
        -11    1    4    4    0    0 -0.47166502362E+02 -0.36395551908E+02  0.23837685552E+02  0.64168141598E+02  0.00000000000E+00 0.  1.
         11    1    4    4    0    0 -0.27292934416E+02  0.51033987598E+02  0.85043664643E+01  0.58495268255E+02  0.00000000000E+00 0. -1.
          2    1    1    2  501    0 -0.83119805423E+01 -0.21003818735E+02  0.38529725742E+02  0.44663062902E+02  0.00000000000E+00 0. -1.
<scales pt_clust_5="13000.00000" pt_clust_6="13000.00000" pt_clust_7="13000.00000" pt_clust_8="13000.00000" pt_clust_9="22.58870"></scales>
<clustering>
<clus scale="   22.589">  1  9  2 -1</clus>
<clus scale="   90.784">  7  8 -1 -1</clus>
<clus scale="  119.695">  5  6 -1 -1</clus>
<clus scale="  121.455">  1  7  2 -1</clus>
<clus scale="   22.589">  1  5  2 -1</clus>
</clustering>
</event>
<event>
 9    1  0.1321469E-005  0.9015058E+02  0.7546771E-02  0.1307933E+00
         21   -1    0    0  501  502  0.00000000000E+00  0.00000000000E+00  0.18039496478E+03  0.18039496478E+03  0.00000000000E+00 0. -1.
         -2   -1    0    0    0  501 -0.00000000000E+00 -0.00000000000E+00 -0.72989996791E+02  0.72989996791E+02  0.00000000000E+00 0.  1.
         23    2    1    2    0    0 -0.40856133237E+01  0.94153921161E+00 -0.92259905166E+01  0.81547827552E+02  0.80915700238E+02 0.  0.
         23    2    1    2    0    0  0.29970655238E+02  0.14317259236E+02  0.95897731586E+02  0.13533051786E+03  0.89525136436E+02 0.  0.
        -11    1    3    3    0    0 -0.40715023927E+02 -0.12276461211E+01  0.71664409609E+01  0.41359136408E+02  0.00000000000E+00 0. -1.
         11    1    3    3    0    0  0.36629410603E+02  0.21691853328E+01 -0.16392431477E+02  0.40188691144E+02  0.00000000000E+00 0.  1.
        -13    1    4    4    0    0  0.16031729547E+02  0.37508256189E+02  0.57308616508E+01  0.41191363292E+02  0.00000000000E+00 0.  1.
         13    1    4    4    0    0  0.13938925691E+02 -0.23190996953E+02  0.90166869935E+02  0.94139154569E+02  0.00000000000E+00 0. -1.
         -2    1    1    2    0  502 -0.25885041914E+02 -0.15258798448E+02  0.20733226923E+02  0.36506616162E+02  0.00000000000E+00 0.  1.
<scales pt_clust_5="13000.00000" pt_clust_6="13000.00000" pt_clust_7="13000.00000" pt_clust_8="13000.00000" pt_clust_9="30.04773"></scales>
<clustering>
<clus scale="   30.048">  1  9  2 -1</clus>
<clus scale="   80.916">  5  6 -1 -1</clus>
<clus scale="   81.607">  2  5  1 -1</clus>
<clus scale="   89.525">  7  8 -1 -1</clus>
<clus scale="   30.048">  1  5  2 -1</clus>
</clustering>
</event>
<event>
 9    1  0.1321469E-005  0.1510758E+03  0.7546771E-02  0.1199735E+00
         -3   -1    0    0    0  501 -0.00000000000E+00  0.00000000000E+00  0.46679966495E+03  0.46679966495E+03  0.00000000000E+00 0.  1.
         21   -1    0    0  501  502  0.00000000000E+00 -0.00000000000E+00 -0.23207397037E+03  0.23207397037E+03  0.00000000000E+00 0.  1.
         23    2    1    2    0    0  0.13279911949E+03  0.43882441136E+02  0.32583543924E+03  0.36563567883E+03  0.89215701494E+02 0.  0.
         23    2    1    2    0    0 -0.58622368069E+02 -0.70379804573E+02  0.74475739350E+02  0.14987260198E+03  0.92332346133E+02 0.  0.
        -13    1    3    3    0    0  0.79475957212E+02 -0.11498459761E+02  0.10765390505E+03  0.13430564257E+03  0.00000000000E+00 0. -1.
         13    1    3    3    0    0  0.53323162279E+02  0.55380900897E+02  0.21818153418E+03  0.23133003626E+03  0.00000000000E+00 0.  1.
        -13    1    4    4    0    0  0.19605139252E+02 -0.37186421423E+02  0.40439406167E+02  0.58331269440E+02  0.00000000000E+00 0.  1.
         13    1    4    4    0    0 -0.78227507321E+02 -0.33193383150E+02  0.34036333183E+02  0.91541332539E+02  0.00000000000E+00 0. -1.
         -3    1    1    2    0  502 -0.74176751422E+02  0.26497363437E+02 -0.16558548401E+03  0.18336535451E+03  0.00000000000E+00 0.  1.
<scales pt_clust_5="13000.00000" pt_clust_6="13000.00000" pt_clust_7="13000.00000" pt_clust_8="13000.00000" pt_clust_9="78.76738"></scales>
<clustering>
<clus scale="   78.767">  2  9  1 -1</clus>
<clus scale="   89.216">  5  6 -1 -1</clus>
<clus scale="   92.332">  7  8 -1 -1</clus>
<clus scale="  149.191">  1  5  2 -1</clus>
<clus scale="   78.767">  2  5  1 -1</clus>
</clustering>
</event>
<event>
 9    1  0.1321469E-005  0.1000298E+03  0.7546771E-02  0.1280714E+00
         21   -1    0    0  501  502  0.00000000000E+00  0.00000000000E+00  0.57536943607E+03  0.57536943607E+03  0.00000000000E+00 0.  1.
          2   -1    0    0  502    0 -0.00000000000E+00 -0.00000000000E+00 -0.29749288574E+02  0.29749288574E+02  0.00000000000E+00 0. -1.
         23    2    1    2    0    0 -0.71519369881E+01  0.27777616599E+02  0.12926427028E+03  0.16083143322E+03  0.91294863789E+02 0.  0.
         23    2    1    2    0    0  0.22689730223E+02 -0.65291241859E+02  0.32481865095E+03  0.34414859316E+03  0.90295780872E+02 0.  0.
        -11    1    3    3    0    0 -0.48664636841E+02  0.20623395395E+02  0.62068474941E+02  0.81523413189E+02  0.00000000000E+00 0.  1.
         11    1    3    3    0    0  0.41512699853E+02  0.71542212041E+01  0.67195795342E+02  0.79308020034E+02  0.00000000000E+00 0. -1.
        -13    1    4    4    0    0 -0.42211903547E+01 -0.63294934225E+02  0.30264640678E+03  0.30922308239E+03  0.00000000000E+00 0.  1.
         13    1    4    4    0    0  0.26910920577E+02 -0.19963076345E+01  0.22172244171E+02  0.34925510763E+02  0.00000000000E+00 0. -1.
          2    1    1    2  501    0 -0.15537793235E+02  0.37513625260E+02  0.91537226259E+02  0.10013869826E+03  0.00000000000E+00 0. -1.
<scales pt_clust_5="13000.00000" pt_clust_6="13000.00000" pt_clust_7="13000.00000" pt_clust_8="13000.00000" pt_clust_9="40.60413"></scales>
<clustering>
<clus scale="   40.604">  1  9  2 -1</clus>
<clus scale="   90.296">  7  8 -1 -1</clus>
<clus scale="   91.295">  5  6 -1 -1</clus>
<clus scale="   99.119">  1  7  2 -1</clus>
<clus scale="   40.604">  1  5  2 -1</clus>
</clustering>
</event>
<event>
 9    1  0.1644321E-005  0.1754816E+03  0.7546771E-02  0.1201385E+00
         21   -1    0    0  501  502  0.00000000000E+00  0.00000000000E+00  0.41186476910E+03  0.41186476910E+03  0.00000000000E+00 0. -1.
          1   -1    0    0  502    0 -0.00000000000E+00 -0.00000000000E+00 -0.46234175100E+03  0.46234175100E+03  0.00000000000E+00 0. -1.
         23    2    1    2    0    0  0.19713289593E+02  0.12382349991E+02  0.12057666311E+03  0.15157592596E+03  0.88851523723E+02 0.  0.
         23    2    1    2    0    0 -0.16854961354E+03 -0.30438173287E+02 -0.40272306719E+03  0.44667953824E+03  0.89449910121E+02 0.  0.
        -11    1    4    4    0    0 -0.70350840827E+02 -0.88624900122E+01 -0.27575022543E+03  0.28472086569E+03  0.00000000000E+00 0. -1.
         11    1    4    4    0    0 -0.98198772709E+02 -0.21575683275E+02 -0.12697284176E+03  0.16195867255E+03  0.00000000000E+00 0.  1.
        -13    1    3    3    0    0 -0.26183274450E+02  0.16868979271E+00  0.93088557806E+02  0.96700940593E+02  0.00000000000E+00 0. -1.
         13    1    3    3    0    0  0.45896564043E+02  0.12213660198E+02  0.27488105301E+02  0.54874985371E+02  0.00000000000E+00 0.  1.
          1    1    1    2  501    0  0.14883632394E+03  0.18055823297E+02  0.23166942218E+03  0.27595105590E+03  0.00000000000E+00 0. -1.
<scales pt_clust_5="13000.00000" pt_clust_6="13000.00000" pt_clust_7="13000.00000" pt_clust_8="13000.00000" pt_clust_9="150.97189"></scales>
<clustering>
<clus scale="   88.852">  7  8 -1 -1</clus>
<clus scale="   89.450">  5  6 -1 -1</clus>
<clus scale="   91.851">  2  7  1 -1</clus>
<clus scale="  150.972">  1  9  2 -1</clus>
<clus scale="  150.972">  1  5  2 -1</clus>
</clustering>
</event>
<event>
 9    1  0.1321469E-005  0.2363701E+03  0.7546771E-02  0.1122494E+00
          2   -1    0    0  502    0 -0.00000000000E+00  0.00000000000E+00  0.24886577127E+03  0.24886577127E+03  0.00000000000E+00 0. -1.
         21   -1    0    0  501  502  0.00000000000E+00 -0.00000000000E+00 -0.67879512586E+03  0.67879512586E+03  0.00000000000E+00 0. -1.
         23    2    1    2    0    0 -0.62508752544E+02  0.16006916003E+03 -0.17009651996E+02  0.19644860301E+03  0.93665603230E+02 0.  0.
         23    2    1    2    0    0  0.11894692137E+03 -0.24849375466E+03  0.15472599436E+02  0.29016338495E+03  0.89765652802E+02 0.  0.
        -11    1    3    3    0    0  0.19588059278E+02  0.61131112544E+02  0.10306906430E+02  0.65014900656E+02  0.00000000000E+00 0. -1.
         11    1    3    3    0    0 -0.82096811822E+02  0.98938047484E+02 -0.27316558427E+02  0.13143370236E+03  0.00000000000E+00 0.  1.
        -11    1    4    4    0    0  0.43616170280E+02 -0.19490681312E+02  0.11115487042E+02  0.49049067474E+02  0.00000000000E+00 0.  1.
         11    1    4    4    0    0  0.75330751093E+02 -0.22900307335E+03  0.43571123939E+01  0.24111431748E+03  0.00000000000E+00 0. -1.
          2    1    1    2  501    0 -0.56438168830E+02  0.88424594634E+02 -0.42839230203E+03  0.44104890916E+03  0.00000000000E+00 0. -1.
<scales pt_clust_5="13000.00000" pt_clust_6="13000.00000" pt_clust_7="13000.00000" pt_clust_8="13000.00000" pt_clust_9="104.90079"></scales>
<clustering>
<clus scale="   89.766">  7  8 -1 -1</clus>
<clus scale="   93.666">  5  6 -1 -1</clus>
<clus scale="  104.901">  2  9  1 -1</clus>
<clus scale="  234.852">  2  7  1 -1</clus>
<clus scale="  104.901">  2  5  1 -1</clus>
</clustering>
</event>
<event>
 9    1  0.1321469E-005  0.9887202E+02  0.7546771E-02  0.1284518E+00
         -4   -1    0    0    0  501 -0.00000000000E+00  0.00000000000E+00  0.19079276574E+03  0.19079276574E+03  0.00000000000E+00 0.  1.
         21   -1    0    0  501  502  0.00000000000E+00 -0.00000000000E+00 -0.27623997618E+03  0.27623997618E+03  0.00000000000E+00 0.  1.
         23    2    1    2    0    0  0.38501698339E+02 -0.11137637314E+01  0.15164148587E+03  0.18195906384E+03  0.92899620182E+02 0.  0.
         23    2    1    2    0    0  0.16678620691E+02 -0.28864003473E+02 -0.14930304861E+03  0.17713918834E+03  0.89306128772E+02 0.  0.
        -11    1    4    4    0    0  0.33216485327E+02 -0.49113120811E+02 -0.13474952207E+03  0.14721707520E+03  0.00000000000E+00 0.  1.
         11    1    4    4    0    0 -0.16537864637E+02  0.20249117338E+02 -0.14553526541E+02  0.29922113136E+02  0.00000000000E+00 0. -1.
        -13    1    3    3    0    0  0.28518180218E+02  0.40704415086E+02  0.45269046102E+02  0.67226650559E+02  0.00000000000E+00 0.  1.
         13    1    3    3    0    0  0.99835181217E+01 -0.41818178818E+02  0.10637243977E+03  0.11473241328E+03  0.00000000000E+00 0. -1.
         -4    1    1    2    0  502 -0.55180319030E+02  0.29977767204E+02 -0.87785647701E+02  0.10793448975E+03  0.00000000000E+00 0.  1.
<scales pt_clust_5="13000.00000" pt_clust_6="13000.00000" pt_clust_7="13000.00000" pt_clust_8="13000.00000" pt_clust_9="62.79756"></scales>
<clustering>
<clus scale="   62.798">  2  9  1 -1</clus>
<clus scale="   89.306">  5  6 -1 -1</clus>
<clus scale="   92.900">  7  8 -1 -1</clus>
<clus scale="   95.504">  2  5  1 -1</clus>
<clus scale="   62.798">  2  5  1 -1</clus>
</clustering>
</event>
<event>
 9    1  0.1321469E-005  0.1122303E+03  0.7546771E-02  0.1259533E+00
         21   -1    0    0  501  502  0.00000000000E+00  0.00000000000E+00  0.30992444467E+02  0.30992444467E+02  0.00000000000E+00 0. -1.
          1   -1    0    0  502    0 -0.00000000000E+00 -0.00000000000E+00 -0.53820324327E+03  0.53820324327E+03  0.00000000000E+00 0. -1.
         23    2    1    2    0    0  0.67931952807E+02  0.35924183371E+02 -0.23700496773E+03  0.26613521250E+03  0.93548380207E+02 0.  0.
         23    2    1    2    0    0 -0.41533267638E+02 -0.22187246622E+02 -0.14842694435E+03  0.17769823507E+03  0.85608520037E+02 0.  0.
        -11    1    3    3    0    0 -0.25817433139E+01  0.47528980459E+02 -0.11916411598E+03  0.12831896165E+03  0.00000000000E+00 0.  1.
         11    1    3    3    0    0  0.70513696121E+02 -0.11604797088E+02 -0.11784085175E+03  0.13781625084E+03  0.00000000000E+00 0. -1.
        -13    1    4    4    0    0 -0.30153348763E+02  0.26385450874E+02 -0.32844834980E+02  0.51809262148E+02  0.00000000000E+00 0.  1.
         13    1    4    4    0    0 -0.11379918875E+02 -0.48572697496E+02 -0.11558210937E+03  0.12588897292E+03  0.00000000000E+00 0. -1.
          1    1    1    2  501    0 -0.26398685168E+02 -0.13736936749E+02 -0.12177888672E+03  0.12536224017E+03  0.00000000000E+00 0. -1.
<scales pt_clust_5="13000.00000" pt_clust_6="13000.00000" pt_clust_7="13000.00000" pt_clust_8="13000.00000" pt_clust_9="29.75895"></scales>
<clustering>
<clus scale="   29.759">  1  9  2 -1</clus>
<clus scale="   85.609">  7  8 -1 -1</clus>
<clus scale="   93.548">  5  6 -1 -1</clus>
<clus scale="  105.703">  1  7  2 -1</clus>
<clus scale="   29.759">  1  5  2 -1</clus>
</clustering>
</event>
<event>
 9    1  0.1321469E-005  0.1000424E+03  0.7546771E-02  0.1281450E+00
          1   -1    0    0  502    0 -0.00000000000E+00  0.00000000000E+00  0.40093391858E+03  0.40093391858E+03  0.00000000000E+00 0. -1.
         21   -1    0    0  501  502  0.00000000000E+00 -0.00000000000E+00 -0.69313023360E+02  0.69313023360E+02  0.00000000000E+00 0. -1.
         23    2    1    2    0    0  0.43038384415E+02 -0.72055494281E+01  0.19547856972E+03  0.21947338750E+03  0.89735578915E+02 0.  0.
         23    2    1    2    0    0 -0.37833422587E+02  0.28998761712E+02  0.17769535213E+03  0.20356455370E+03  0.87124011098E+02 0.  0.
        -11    1    3    3    0    0  0.21917882191E+02  0.41291764419E+02  0.97487909064E+02  0.10811704668E+03  0.00000000000E+00 0. -1.
         11    1    3    3    0    0  0.21120502224E+02 -0.48497313847E+02  0.97990660657E+02  0.11135634082E+03  0.00000000000E+00 0.  1.
        -11    1    4    4    0    0 -0.14056153504E+02  0.43143931812E+02  0.16835650708E+03  0.17436423882E+03  0.00000000000E+00 0. -1.
         11    1    4    4    0    0 -0.23777269083E+02 -0.14145170099E+02  0.93388450473E+01  0.29200314879E+02  0.00000000000E+00 0.  1.
          1    1    1    2  501    0 -0.52049618283E+01 -0.21793212284E+02 -0.41553026629E+02  0.47209000745E+02  0.00000000000E+00 0. -1.
<scales pt_clust_5="13000.00000" pt_clust_6="13000.00000" pt_clust_7="13000.00000" pt_clust_8="13000.00000" pt_clust_9="22.40615"></scales>
<clustering>
<clus scale="   22.406">  2  9  1 -1</clus>
<clus scale="   87.124">  7  8 -1 -1</clus>
<clus scale="   89.736">  5  6 -1 -1</clus>
<clus scale="   97.707">  2  7  1 -1</clus>
<clus scale="   22.406">  2  5  1 -1</clus>
</clustering>
</event>
<event>
 9    1  0.1321469E-005  0.1152069E+03  0.7546771E-02  0.1253552E+00
         21   -1    0    0  501  502  0.00000000000E+00  0.00000000000E+00  0.49999163325E+02  0.49999163325E+02  0.00000000000E+00 0. -1.
         -1   -1    0    0    0  501 -0.00000000000E+00 -0.00000000000E+00 -0.35174828198E+03  0.35174828198E+03  0.00000000000E+00 0.  1.
         23    2    1    2    0    0  0.12846191947E+02  0.51204109176E+02 -0.14176325357E+03  0.17604904366E+03  0.90053096916E+02 0.  0.
         23    2    1    2    0    0 -0.33609600314E+02 -0.69199783098E+02 -0.15451212422E+03  0.19768188427E+03  0.96363455856E+02 0.  0.
        -13    1    4    4    0    0  0.23857228766E+02 -0.48317834194E+02 -0.37477511299E+02  0.65637979240E+02  0.00000000000E+00 0.  1.
         13    1    4    4    0    0 -0.57466829080E+02 -0.20881948904E+02 -0.11703461292E+03  0.13204390503E+03  0.00000000000E+00 0. -1.
        -13    1    3    3    0    0  0.44534055518E+02  0.50641418344E+02 -0.11984267377E+03  0.13751400586E+03  0.00000000000E+00 0.  1.
         13    1    3    3    0    0 -0.31687863571E+02  0.56269083202E+00 -0.21920579808E+02  0.38535037794E+02  0.00000000000E+00 0. -1.
         -1    1    1    2    0  502  0.20763408367E+02  0.17995673922E+02 -0.54737408602E+01  0.28016517377E+02  0.00000000000E+00 0.  1.
<scales pt_clust_5="13000.00000" pt_clust_6="13000.00000" pt_clust_7="13000.00000" pt_clust_8="13000.00000" pt_clust_9="27.47660"></scales>
<clustering>
<clus scale="   27.477">  1  9  2 -1</clus>
<clus scale="   90.053">  7  8 -1 -1</clus>
<clus scale="   96.363">  5  6 -1 -1</clus>
<clus scale="  109.983">  2  7  1 -1</clus>
<clus scale="   27.477">  1  5  2 -1</clus>
</clustering>
</event>
<event>
 9    1  0.1321469E-005  0.1705184E+03  0.7546771E-02  0.1177618E+00
         21   -1    0    0  501  502  0.00000000000E+00  0.00000000000E+00  0.39865124552E+03  0.39865124552E+03  0.00000000000E+00 0.  1.
          4   -1    0    0  502    0 -0.00000000000E+00 -0.00000000000E+00 -0.10137984519E+03  0.10137984519E+03  0.00000000000E+00 0. -1.
         23    2    1    2    0    0 -0.13578192573E+03 -0.28469080284E+02  0.62188169328E+02  0.17592075430E+03  0.88507194646E+02 0.  0.
         23    2    1    2    0    0  0.14211212679E+03  0.68843430196E+02  0.18780001831E+03  0.26161344225E+03  0.90760519098E+02 0.  0.
        -11    1    4    4    0    0  0.12198852887E+03  0.81487284813E+02  0.11923377793E+03  0.18904516011E+03  0.00000000000E+00 0.  1.
         11    1    4    4    0    0  0.20123597917E+02 -0.12643854616E+02  0.68566240375E+02  0.72568282134E+02  0.00000000000E+00 0. -1.
        -11    1    3    3    0    0 -0.38539207535E+02 -0.37194772740E+02 -0.10015817513E+02  0.54488881775E+02  0.00000000000E+00 0. -1.
         11    1    3    3    0    0 -0.97242718192E+02  0.87256924556E+01  0.72203986841E+02  0.12143187253E+03  0.00000000000E+00 0.  1.
          4    1    1    2  501    0 -0.63302010620E+01 -0.40374349912E+02  0.47283212700E+02  0.62496894159E+02  0.00000000000E+00 0. -1.
<scales pt_clust_5="13000.00000" pt_clust_6="13000.00000" pt_clust_7="13000.00000" pt_clust_8="13000.00000" pt_clust_9="40.86759"></scales>
<clustering>
<clus scale="   40.868">  1  9  2 -1</clus>
<clus scale="   88.507">  7  8 -1 -1</clus>
<clus scale="   90.761">  5  6 -1 -1</clus>
<clus scale="  169.330">  2  7  1 -1</clus>
<clus scale="   40.868">  1  5  2 -1</clus>
</clustering>
</event>
<event>
 9    1  0.1321469E-005  0.1162546E+03  0.7546771E-02  0.1249589E+00
         21   -1    0    0  501  502  0.00000000000E+00  0.00000000000E+00  0.53379608316E+02  0.53379608316E+02  0.00000000000E+00 0. -1.
          1   -1    0    0  502    0 -0.00000000000E+00 -0.00000000000E+00 -0.66207190180E+03  0.66207190180E+03  0.00000000000E+00 0. -1.
         23    2    1    2    0    0 -0.39173382533E+02 -0.45592323995E+02 -0.24482685553E+03  0.26757957370E+03  0.89696294051E+02 0.  0.
         23    2    1    2    0    0 -0.20031095555E+02  0.10807846178E+03 -0.32287610536E+03  0.35253142546E+03  0.89147225639E+02 0.  0.
        -11    1    4    4    0    0 -0.37126264643E+02  0.79942213670E+01 -0.11644869844E+03  0.12248496426E+03  0.00000000000E+00 0.  1.
         11    1    4    4    0    0  0.17095169088E+02  0.10008424042E+03 -0.20642740691E+03  0.23004646120E+03  0.00000000000E+00 0. -1.
        -11    1    3    3    0    0 -0.35875457269E+02 -0.24353222390E+02 -0.24205493557E+03  0.24590794966E+03  0.00000000000E+00 0. -1.
         11    1    3    3    0    0 -0.32979252641E+01 -0.21239101605E+02 -0.27719199604E+01  0.21671624035E+02  0.00000000000E+00 0.  1.
          1    1    1    2  501    0  0.59204478088E+02 -0.62486137789E+02 -0.40989332596E+02  0.95340510950E+02  0.00000000000E+00 0. -1.
<scales pt_clust_5="13000.00000" pt_clust_6="13000.00000" pt_clust_7="13000.00000" pt_clust_8="13000.00000" pt_clust_9="86.07954"></scales>
<clustering>
<clus scale="   86.080">  1  9  2 -1</clus>
<clus scale="   89.147">  5  6 -1 -1</clus>
<clus scale="   89.696">  7  8 -1 -1</clus>
<clus scale="  115.831">  1  5  2 -1</clus>
<clus scale="   86.080">  1  5  2 -1</clus>
</clustering>
</event>
<event>
 9    1  0.1321469E-005  0.1156158E+03  0.7546771E-02  0.1250525E+00
         -2   -1    0    0    0  501 -0.00000000000E+00  0.00000000000E+00  0.45415929195E+03  0.45415929195E+03  0.00000000000E+00 0.  1.
         21   -1    0    0  501  502  0.00000000000E+00 -0.00000000000E+00 -0.17629624438E+03  0.17629624438E+03  0.00000000000E+00 0. -1.
         23    2    1    2    0    0  0.68208132606E+02 -0.30763996916E+02  0.14717792514E+03  0.18783918768E+03  0.89573689882E+02 0.  0.
         23    2    1    2    0    0 -0.12047133498E+02  0.10420367726E+03 -0.11534616187E+03  0.17978781649E+03  0.89528666474E+02 0.  0.
        -11    1    4    4    0    0 -0.50321254117E+02  0.46122546407E+02 -0.53877232780E+02  0.86961336897E+02  0.00000000000E+00 0. -1.
         11    1    4    4    0    0  0.38274120619E+02  0.58081130858E+02 -0.61468929085E+02  0.92826479594E+02  0.00000000000E+00 0.  1.
        -11    1    3    3    0    0  0.43590811003E+02 -0.62514701427E+02  0.89571063596E+02  0.11760621638E+03  0.00000000000E+00 0. -1.
         11    1    3    3    0    0  0.24617321603E+02  0.31750704510E+02  0.57606861546E+02  0.70232971296E+02  0.00000000000E+00 0.  1.
         -2    1    1    2    0  502 -0.56160999107E+02 -0.73439680348E+02  0.24603128429E+03  0.26282853217E+03  0.00000000000E+00 0.  1.
<scales pt_clust_5="13000.00000" pt_clust_6="13000.00000" pt_clust_7="13000.00000" pt_clust_8="13000.00000" pt_clust_9="92.45244"></scales>
<clustering>
<clus scale="   89.529">  5  6 -1 -1</clus>
<clus scale="   89.574">  7  8 -1 -1</clus>
<clus scale="   92.452">  2  9  1 -1</clus>
<clus scale="  115.581">  2  5  1 -1</clus>
<clus scale="   92.452">  2  5  1 -1</clus>
</clustering>
</event>
<event>
 9    1  0.1321469E-005  0.9984184E+02  0.7546771E-02  0.1281480E+00
         21   -1    0    0  501  502  0.00000000000E+00  0.00000000000E+00  0.19333718123E+03  0.19333718123E+03  0.00000000000E+00 0. -1.
         -1   -1    0    0    0  501 -0.00000000000E+00 -0.00000000000E+00 -0.79001085112E+02  0.79001085112E+02  0.00000000000E+00 0.  1.
         23    2    1    2    0    0  0.45980937928E+02 -0.11968848294E+02  0.64065317479E+01  0.10255227900E+03  0.90655536498E+02 0.  0.
         23    2    1    2    0    0 -0.24180369136E+02 -0.10813401094E+02  0.63086430633E+02  0.11496626160E+03  0.92388980301E+02 0.  0.
        -11    1    3    3    0    0  0.63213771129E+02  0.19649589880E+02  0.15399202188E+01  0.66215244447E+02  0.00000000000E+00 0.  1.
         11    1    3    3    0    0 -0.17232833201E+02 -0.31618438174E+02  0.48666115290E+01  0.36337034558E+02  0.00000000000E+00 0. -1.
        -13    1    4    4    0    0  0.12846901032E+02  0.30670148871E+02  0.34533139075E+01  0.33430917948E+02  0.00000000000E+00 0.  1.
         13    1    4    4    0    0 -0.37027270168E+02 -0.41483549965E+02  0.59633116726E+02  0.81535343651E+02  0.00000000000E+00 0. -1.
         -1    1    1    2    0  502 -0.21800568792E+02  0.22782249388E+02  0.44843133741E+02  0.54819725743E+02  0.00000000000E+00 0.  1.
<scales pt_clust_5="13000.00000" pt_clust_6="13000.00000" pt_clust_7="13000.00000" pt_clust_8="13000.00000" pt_clust_9="31.53245"></scales>
<clustering>
<clus scale="   31.532">  1  9  2 -1</clus>
<clus scale="   90.656">  5  6 -1 -1</clus>
<clus scale="   92.389">  7  8 -1 -1</clus>
<clus scale="   98.240">  2  5  1 -1</clus>
<clus scale="   31.532">  1  5  2 -1</clus>
</clustering>
</event>
<event>
 9    1  0.1321469E-005  0.9235841E+02  0.7546771E-02  0.1297697E+00
         21   -1    0    0  501  502  0.00000000000E+00  0.00000000000E+00  0.18966470592E+03  0.18966470592E+03  0.00000000000E+00 0.  1.
          1   -1    0    0  502    0 -0.00000000000E+00 -0.00000000000E+00 -0.72617475943E+02  0.72617475943E+02  0.00000000000E+00 0. -1.
         23    2    1    2    0    0 -0.22680213367E+02 -0.10385022048E+01 -0.20884087165E+01  0.93760124277E+02  0.90945746950E+02 0.  0.
         23    2    1    2    0    0 -0.21922555668E+01  0.13807452449E+02  0.90982679737E+02  0.12884492438E+03  0.90153839626E+02 0.  0.
        -11    1    3    3    0    0 -0.81070046064E+01 -0.45192646526E+02  0.68190544042E+01  0.46417651025E+02  0.00000000000E+00 0.  1.
         11    1    3    3    0    0 -0.14573208761E+02  0.44154144322E+02 -0.89074631206E+01  0.47342473252E+02  0.00000000000E+00 0. -1.
        -13    1    4    4    0    0 -0.20963562683E+02 -0.29800873418E+02  0.65523696509E+02  0.74972780534E+02  0.00000000000E+00 0.  1.
         13    1    4    4    0    0  0.18771307116E+02  0.43608325867E+02  0.25458983228E+02  0.53872143848E+02  0.00000000000E+00 0. -1.
          1    1    1    2  501    0  0.24872468934E+02 -0.12768950244E+02  0.28152958956E+02  0.39677133203E+02  0.00000000000E+00 0. -1.
<scales pt_clust_5="13000.00000" pt_clust_6="13000.00000" pt_clust_7="13000.00000" pt_clust_8="13000.00000" pt_clust_9="27.95864"></scales>
<clustering>
<clus scale="   27.959">  1  9  2 -1</clus>
<clus scale="   90.154">  7  8 -1 -1</clus>
<clus scale="   90.946">  5  6 -1 -1</clus>
<clus scale="   91.579">  1  7  2 -1</clus>
<clus scale="   27.959">  1  5  2 -1</clus>
</clustering>
</event>
<event>
 9    1  0.1321469E-005  0.1101257E+03  0.7546771E-02  0.1261958E+00
         21   -1    0    0  501  502  0.00000000000E+00  0.00000000000E+00  0.80274356756E+02  0.80274356756E+02  0.00000000000E+00 0.  1.
          1   -1    0    0  502    0 -0.00000000000E+00 -0.00000000000E+00 -0.36638559299E+03  0.36638559299E+03  0.00000000000E+00 0. -1.
         23    2    1    2    0    0  0.24714612365E+02 -0.40937651186E+02 -0.21204644383E+03  0.23657099559E+03  0.93356511636E+02 0.  0.
         23    2    1    2    0    0 -0.31306782774E+02  0.99176855827E+02 -0.42366993936E+02  0.14345553840E+03  0.89265704179E+02 0.  0.
        -11    1    3    3    0    0  0.50566019184E+02 -0.24365424539E+01 -0.65020364587E+02  0.82404531709E+02  0.00000000000E+00 0.  1.
         11    1    3    3    0    0 -0.25851406819E+02 -0.38501108732E+02 -0.14702607924E+03  0.15416646388E+03  0.00000000000E+00 0. -1.
        -11    1    4    4    0    0 -0.45056612887E+02  0.15198807713E+02  0.17900211224E+01  0.47584727553E+02  0.00000000000E+00 0. -1.
         11    1    4    4    0    0  0.13749830113E+02  0.83978048114E+02 -0.44157015058E+02  0.95870810845E+02  0.00000000000E+00 0.  1.
          1    1    1    2  501    0  0.65921704088E+01 -0.58239204641E+02 -0.31697798472E+02  0.66633415760E+02  0.00000000000E+00 0. -1.
<scales pt_clust_5="13000.00000" pt_clust_6="13000.00000" pt_clust_7="13000.00000" pt_clust_8="13000.00000" pt_clust_9="58.61111"></scales>
<clustering>
<clus scale="   58.611">  1  9  2 -1</clus>
<clus scale="   89.266">  7  8 -1 -1</clus>
<clus scale="   93.357">  5  6 -1 -1</clus>
<clus scale="  106.680">  1  7  2 -1</clus>
<clus scale="   58.611">  1  5  2 -1</clus>
</clustering>
</event>
<event>
 9    1  0.1321469E-005  0.9548743E+02  0.7546771E-02  0.1290291E+00
          3   -1    0    0  502    0 -0.00000000000E+00  0.00000000000E+00  0.11119144150E+03  0.11119144150E+03  0.00000000000E+00 0. -1.
         21   -1    0    0  501  502  0.00000000000E+00 -0.00000000000E+00 -0.18339181814E+03  0.18339181814E+03  0.00000000000E+00 0. -1.
         23    2    1    2    0    0  0.17878412569E+02  0.95587557191E+01  0.26547332976E+02  0.95148257369E+02  0.89092213718E+02 0.  0.
         23    2    1    2    0    0 -0.58511612162E+02 -0.17605082463E+02 -0.18711996949E+02  0.10931555052E+03  0.88691617805E+02 0.  0.
        -11    1    3    3    0    0  0.34638372465E+02  0.38939447407E+02  0.31600166462E+02  0.60948075702E+02  0.00000000000E+00 0.  1.
         11    1    3    3    0    0 -0.16759959896E+02 -0.29380691688E+02 -0.50528334859E+01  0.34200181666E+02  0.00000000000E+00 0. -1.
        -11    1    4    4    0    0 -0.64652552790E+02 -0.42609952086E+02 -0.27408236030E+02  0.82138736303E+02  0.00000000000E+00 0. -1.
         11    1    4    4    0    0  0.61409406286E+01  0.25004869624E+02  0.86962390815E+01  0.27176814215E+02  0.00000000000E+00 0.  1.
          3    1    1    2  501    0  0.40633199593E+02  0.80463267434E+01 -0.80035712665E+02  0.90119451757E+02  0.00000000000E+00 0. -1.
<scales pt_clust_5="13000.00000" pt_clust_6="13000.00000" pt_clust_7="13000.00000" pt_clust_8="13000.00000" pt_clust_9="41.42222"></scales>
<clustering>
<clus scale="   41.422">  2  9  1 -1</clus>
<clus scale="   88.692">  7  8 -1 -1</clus>
<clus scale="   89.092">  5  6 -1 -1</clus>
<clus scale="   95.114">  2  7  1 -1</clus>
<clus scale="   41.422">  2  5  1 -1</clus>
</clustering>
</event>
<event>
 9    1  0.1321469E-005  0.1085888E+03  0.7546771E-02  0.1274595E+00
         21   -1    0    0  501  502  0.00000000000E+00  0.00000000000E+00  0.58321970949E+03  0.58321970949E+03  0.00000000000E+00 0. -1.
          1   -1    0    0  502    0 -0.00000000000E+00 -0.00000000000E+00 -0.29832052963E+02  0.29832052963E+02  0.00000000000E+00 0. -1.
         23    2    1    2    0    0 -0.32139581651E+01 -0.53234291688E+02  0.16401717326E+03  0.19380721630E+03  0.88404664050E+02 0.  0.
         23    2    1    2    0    0  0.43090628892E+02  0.64570474801E+02  0.17270836638E+03  0.19865186539E+03  0.60068588211E+02 0.  0.
        -11    1    4    4    0    0  0.42139890661E+02  0.41078072867E+02  0.62030215578E+02  0.85503953710E+02  0.00000000000E+00 0. -1.
         11    1    4    4    0    0  0.95073823113E+00  0.23492401933E+02  0.11067815080E+03  0.11314791168E+03  0.00000000000E+00 0.  1.
        -11    1    3    3    0    0 -0.45372521041E+02 -0.31647495307E+02  0.98361844049E+02  0.11285070664E+03  0.00000000000E+00 0.  1.
         11    1    3    3    0    0  0.42158562876E+02 -0.21586796381E+02  0.65655329215E+02  0.80956509658E+02  0.00000000000E+00 0. -1.
          1    1    1    2  501    0 -0.39876670727E+02 -0.11336183113E+02  0.21666211688E+03  0.22059268077E+03  0.00000000000E+00 0. -1.
<scales pt_clust_5="13000.00000" pt_clust_6="13000.00000" pt_clust_7="13000.00000" pt_clust_8="13000.00000" pt_clust_9="41.45670"></scales>
<clustering>
<clus scale="   41.457">  1  9  2 -1</clus>
<clus scale="   60.069">  5  6 -1 -1</clus>
<clus scale="   87.088">  1  5  2 -1</clus>
<clus scale="   88.405">  7  8 -1 -1</clus>
<clus scale="   41.457">  1  5  2 -1</clus>
</clustering>
</event>
<event>
 9    1  0.1321469E-005  0.2181638E+03  0.7546771E-02  0.1161362E+00
          2   -1    0    0  502    0 -0.00000000000E+00  0.00000000000E+00  0.23248065744E+03  0.23248065744E+03  0.00000000000E+00 0. -1.
         21   -1    0    0  501  502  0.00000000000E+00 -0.00000000000E+00 -0.47636198014E+03  0.47636198014E+03  0.00000000000E+00 0. -1.
         23    2    1    2    0    0 -0.61967254866E+01  0.72608304316E+02  0.27697087902E+02  0.12053580603E+03  0.91931423325E+02 0.  0.
         23    2    1    2    0    0  0.20167553209E+03 -0.82319022058E+02  0.20004298394E+02  0.23712776318E+03  0.91542134996E+02 0.  0.
        -11    1    3    3    0    0 -0.25995729548E+02  0.39936386266E+02  0.55601462487E+02  0.73227150248E+02  0.00000000000E+00 0.  1.
         11    1    3    3    0    0  0.19799004062E+02  0.32671918051E+02 -0.27904374585E+02  0.47308655783E+02  0.00000000000E+00 0. -1.
        -11    1    4    4    0    0  0.66673965392E+02 -0.51270757266E+02 -0.30814077378E+02  0.89574636903E+02  0.00000000000E+00 0.  1.
         11    1    4    4    0    0  0.13500156670E+03 -0.31048264792E+02  0.50818375772E+02  0.14755312628E+03  0.00000000000E+00 0. -1.
          2    1    1    2  501    0 -0.19547880661E+03  0.97107177418E+01 -0.29158270900E+03  0.35117906837E+03  0.00000000000E+00 0. -1.
<scales pt_clust_5="13000.00000" pt_clust_6="13000.00000" pt_clust_7="13000.00000" pt_clust_8="13000.00000" pt_clust_9="198.02896"></scales>
<clustering>
<clus scale="   91.542">  7  8 -1 -1</clus>
<clus scale="   91.931">  5  6 -1 -1</clus>
<clus scale="  117.310">  1  5  2 -1</clus>
<clus scale="  198.029">  2  9  1 -1</clus>
<clus scale="  198.029">  2  5  1 -1</clus>
</clustering>
</event>
<event>
 9    1  0.1321469E-005  0.1225313E+03  0.7546771E-02  0.1239407E+00
         21   -1    0    0  501  502  0.00000000000E+00  0.00000000000E+00  0.96375328829E+02  0.96375328829E+02  0.00000000000E+00 0.  1.
         -2   -1    0    0    0  501 -0.00000000000E+00 -0.00000000000E+00 -0.37460419003E+03  0.37460419003E+03  0.00000000000E+00 0.  1.
         23    2    1    2    0    0 -0.62315728883E+02  0.16146304237E+02 -0.20240782133E+03  0.23266895047E+03  0.94984004813E+02 0.  0.
         23    2    1    2    0    0  0.11050418831E+03 -0.35600357363E+01 -0.10651131197E+03  0.17980899081E+03  0.93609636827E+02 0.  0.
        -11    1    3    3    0    0 -0.35565678671E+02  0.46681412886E+02 -0.17260394206E+03  0.18230796095E+03  0.00000000000E+00 0.  1.
         11    1    3    3    0    0 -0.26750050212E+02 -0.30535108650E+02 -0.29803879271E+02  0.50360989527E+02  0.00000000000E+00 0. -1.
        -13    1    4    4    0    0  0.10013513907E+03  0.31830129475E+02 -0.93658402296E+02  0.14075546007E+03  0.00000000000E+00 0.  1.
         13    1    4    4    0    0  0.10369049248E+02 -0.35390165211E+02 -0.12852909678E+02  0.39053530739E+02  0.00000000000E+00 0. -1.
         -2    1    1    2    0  502 -0.48188459431E+02 -0.12586268500E+02  0.30690272109E+02  0.58501577579E+02  0.00000000000E+00 0.  1.
<scales pt_clust_5="13000.00000" pt_clust_6="13000.00000" pt_clust_7="13000.00000" pt_clust_8="13000.00000" pt_clust_9="49.80504"></scales>
<clustering>
<clus scale="   49.805">  1  9  2 -1</clus>
<clus scale="   93.610">  7  8 -1 -1</clus>
<clus scale="   94.984">  5  6 -1 -1</clus>
<clus scale="  121.469">  1  7  2 -1</clus>
<clus scale="   49.805">  1  5  2 -1</clus>
</clustering>
</event>
<event>
 9    1  0.1321469E-005  0.1225649E+03  0.7546771E-02  0.1239492E+00
         21   -1    0    0  501  502  0.00000000000E+00  0.00000000000E+00  0.63407254572E+02  0.63407254572E+02  0.00000000000E+00 0. -1.
         -1   -1    0    0    0  501 -0.00000000000E+00 -0.00000000000E+00 -0.35000970651E+03  0.35000970651E+03  0.00000000000E+00 0.  1.
         23    2    1    2    0    0  0.30048781015E+02  0.89576243708E+02 -0.18891453526E+03  0.23075358461E+03  0.92906848511E+02 0.  0.
         23    2    1    2    0    0 -0.38390837412E+02 -0.46372486245E+02 -0.59006291996E+02  0.12407649524E+03  0.91043782320E+02 0.  0.
        -11    1    3    3    0    0 -0.25616051699E+02  0.18517256113E+02 -0.96607658114E+02  0.10164698955E+03  0.00000000000E+00 0. -1.
         11    1    3    3    0    0  0.55664832714E+02  0.71058987594E+02 -0.92306877149E+02  0.12910659506E+03  0.00000000000E+00 0.  1.
        -11    1    4    4    0    0 -0.46354749246E+01 -0.29668321219E+02  0.20324195463E+02  0.36259755004E+02  0.00000000000E+00 0. -1.
         11    1    4    4    0    0 -0.33755362488E+02 -0.16704165026E+02 -0.79330487459E+02  0.87816740240E+02  0.00000000000E+00 0.  1.
         -1    1    1    2    0  502  0.83420563976E+01 -0.43203757463E+02 -0.38681624675E+02  0.58586881223E+02  0.00000000000E+00 0.  1.
<scales pt_clust_5="13000.00000" pt_clust_6="13000.00000" pt_clust_7="13000.00000" pt_clust_8="13000.00000" pt_clust_9="44.00176"></scales>
<clustering>
<clus scale="   44.002">  1  9  2 -1</clus>
<clus scale="   91.044">  7  8 -1 -1</clus>
<clus scale="   92.907">  5  6 -1 -1</clus>
<clus scale="  121.159">  1  7  2 -1</clus>
<clus scale="   44.002">  1  5  2 -1</clus>
</clustering>
</event>
<event>
 9    1  0.1321469E-005  0.1763990E+03  0.7546771E-02  0.1189555E+00
         -1   -1    0    0    0  501 -0.00000000000E+00  0.00000000000E+00  0.80167539661E+02  0.80167539661E+02  0.00000000000E+00 0.  1.
         21   -1    0    0  501  502  0.00000000000E+00 -0.00000000000E+00 -0.71691439915E+03  0.71691439915E+03  0.00000000000E+00 0.  1.
         23    2    1    2    0    0  0.32317294828E+02  0.64092020488E+02 -0.10647665908E+03  0.15830805283E+03  0.92584912513E+02 0.  0.
         23    2    1    2    0    0  0.61934495994E+02 -0.15169527589E+03 -0.44686604777E+03  0.48543118773E+03  0.95429737799E+02 0.  0.
        -11    1    4    4    0    0 -0.17858842942E+01 -0.11699406231E+03 -0.28129958369E+03  0.30466416885E+03  0.00000000000E+00 0. -1.
         11    1    4    4    0    0  0.63720380288E+02 -0.34701213577E+02 -0.16556646408E+03  0.18076701888E+03  0.00000000000E+00 0.  1.
        -11    1    3    3    0    0  0.25136930775E+02  0.28242386692E+01 -0.91358137728E+02  0.94795310759E+02  0.00000000000E+00 0.  1.
         11    1    3    3    0    0  0.71803640528E+01  0.61267781819E+02 -0.15118521356E+02  0.63512742068E+02  0.00000000000E+00 0. -1.
         -1    1    1    2    0  502 -0.94251790822E+02  0.87603255400E+02 -0.83404152642E+02  0.15334269825E+03  0.00000000000E+00 0.  1.
<scales pt_clust_5="13000.00000" pt_clust_6="13000.00000" pt_clust_7="13000.00000" pt_clust_8="13000.00000" pt_clust_9="148.35699"></scales>
<clustering>
<clus scale="   92.585">  7  8 -1 -1</clus>
<clus scale="   95.430">  5  6 -1 -1</clus>
<clus scale="  117.150">  1  7  2 -1</clus>
<clus scale="  148.357">  2  9  1 -1</clus>
<clus scale="  148.357">  2  5  1 -1</clus>
</clustering>
</event>
<event>
 9    1  0.1321469E-005  0.1280914E+03  0.7546771E-02  0.1230383E+00
          1   -1    0    0  502    0 -0.00000000000E+00  0.00000000000E+00  0.70345654597E+03  0.70345654597E+03  0.00000000000E+00 0. -1.
         21   -1    0    0  501  502  0.00000000000E+00 -0.00000000000E+00 -0.41947134200E+02  0.41947134200E+02  0.00000000000E+00 0. -1.
         23    2    1    2    0    0 -0.10959840181E+02  0.89651132774E+02  0.52382634260E+03  0.53951443432E+03  0.92327373666E+02 0.  0.
         23    2    1    2    0    0 -0.12167295742E+02 -0.84273598741E+02  0.96086458437E+02  0.15799289617E+03  0.92081839772E+02 0.  0.
        -11    1    3    3    0    0 -0.39958674195E+02  0.62453424637E+02  0.44600463830E+03  0.45212527388E+03  0.00000000000E+00 0.  1.
         11    1    3    3    0    0  0.28998834014E+02  0.27197708137E+02  0.77821704299E+02  0.87389160438E+02  0.00000000000E+00 0. -1.
        -13    1    4    4    0    0  0.14663411405E+02  0.13865282331E+02  0.36028203583E+01  0.20499804942E+02  0.00000000000E+00 0.  1.
         13    1    4    4    0    0 -0.26830707147E+02 -0.98138881072E+02  0.92483638079E+02  0.13749309123E+03  0.00000000000E+00 0. -1.
          1    1    1    2  501    0  0.23127135924E+02 -0.53775340328E+01  0.41596610728E+02  0.47896349676E+02  0.00000000000E+00 0. -1.
<scales pt_clust_5="13000.00000" pt_clust_6="13000.00000" pt_clust_7="13000.00000" pt_clust_8="13000.00000" pt_clust_9="23.74410"></scales>
<clustering>
<clus scale="   23.744">  2  9  1 -1</clus>
<clus scale="   92.082">  7  8 -1 -1</clus>
<clus scale="   92.327">  5  6 -1 -1</clus>
<clus scale="  127.914">  2  7  1 -1</clus>
<clus scale="   23.744">  2  5  1 -1</clus>
</clustering>
</event>
<event>
 9    1  0.1321469E-005  0.1566751E+03  0.7546771E-02  0.1193397E+00
         21   -1    0    0  501  502  0.00000000000E+00  0.00000000000E+00  0.22731997715E+03  0.22731997715E+03  0.00000000000E+00 0. -1.
          2   -1    0    0  502    0 -0.00000000000E+00 -0.00000000000E+00 -0.19860594016E+03  0.19860594016E+03  0.00000000000E+00 0. -1.
         23    2    1    2    0    0 -0.45180539165E+02  0.97746939217E+02  0.14640741337E+01  0.14360844901E+03  0.95002620320E+02 0.  0.
         23    2    1    2    0    0  0.13450812000E+03 -0.93310291805E+02  0.42648800898E+02  0.19156381961E+03  0.89880653433E+02 0.  0.
        -13    1    3    3    0    0 -0.26985150643E+01  0.61668134831E+02 -0.40512480932E+02  0.73834287078E+02  0.00000000000E+00 0. -1.
         13    1    3    3    0    0 -0.42482024101E+02  0.36078804386E+02  0.41976555066E+02  0.69774161928E+02  0.00000000000E+00 0.  1.
        -13    1    4    4    0    0  0.98166374301E+02 -0.10834877154E+03  0.24484909093E+02  0.14824170841E+03  0.00000000000E+00 0. -1.
         13    1    4    4    0    0  0.36341745700E+02  0.15038479738E+02  0.18163891805E+02  0.43322111200E+02  0.00000000000E+00 0.  1.
          2    1    1    2  501    0 -0.89327580836E+02 -0.44366474121E+01 -0.15398838035E+02  0.90753648693E+02  0.00000000000E+00 0. -1.
<scales pt_clust_5="13000.00000" pt_clust_6="13000.00000" pt_clust_7="13000.00000" pt_clust_8="13000.00000" pt_clust_9="89.43774"></scales>
<clustering>
<clus scale="   89.438">  1  9  2 -1</clus>
<clus scale="   89.881">  7  8 -1 -1</clus>
<clus scale="   95.003">  5  6 -1 -1</clus>
<clus scale="  153.623">  1  7  2 -1</clus>
<clus scale="   89.438">  1  5  2 -1</clus>
</clustering>
</event>
<event>
 9    1  0.1321469E-005  0.1307179E+03  0.7546771E-02  0.1226755E+00
         21   -1    0    0  501  502  0.00000000000E+00  0.00000000000E+00  0.46371186615E+03  0.46371186615E+03  0.00000000000E+00 0. -1.
          2   -1    0    0  502    0 -0.00000000000E+00 -0.00000000000E+00 -0.72993006843E+02  0.72993006843E+02  0.00000000000E+00 0. -1.
         23    2    1    2    0    0 -0.65089206288E+02  0.49740515690E+02  0.79304434092E+02  0.14584100294E+03  0.90937787497E+02 0.  0.
         23    2    1    2    0    0  0.56926869789E+02 -0.92774091214E+02  0.98322686345E+02  0.17331708995E+03  0.92324224957E+02 0.  0.
        -11    1    4    4    0    0  0.71977158810E+02 -0.37033364496E+02  0.36713448433E+02  0.88882274792E+02  0.00000000000E+00 0.  1.
         11    1    4    4    0    0 -0.15050289021E+02 -0.55740726718E+02  0.61609237912E+02  0.84434815158E+02  0.00000000000E+00 0. -1.
        -13    1    3    3    0    0 -0.50779945687E+02 -0.16241796608E+02  0.23567526511E+02  0.58290883909E+02  0.00000000000E+00 0. -1.
         13    1    3    3    0    0 -0.14309260600E+02  0.65982312299E+02  0.55736907580E+02  0.87550119028E+02  0.00000000000E+00 0.  1.
          2    1    1    2  501    0  0.81623364989E+01  0.43033575523E+02  0.21309173887E+03  0.21754678011E+03  0.00000000000E+00 0. -1.
<scales pt_clust_5="13000.00000" pt_clust_6="13000.00000" pt_clust_7="13000.00000" pt_clust_8="13000.00000" pt_clust_9="43.80083"></scales>
<clustering>
<clus scale="   43.801">  1  9  2 -1</clus>
<clus scale="   90.938">  7  8 -1 -1</clus>
<clus scale="   92.324">  5  6 -1 -1</clus>
<clus scale="  129.742">  2  7  1 -1</clus>
<clus scale="   43.801">  1  5  2 -1</clus>
</clustering>
</event>
<event>
 9    1  0.1321469E-005  0.2513280E+03  0.7546771E-02  0.1113172E+00
          2   -1    0    0  502    0 -0.00000000000E+00  0.00000000000E+00  0.38263172306E+03  0.38263172306E+03  0.00000000000E+00 0. -1.
         21   -1    0    0  501  502  0.00000000000E+00 -0.00000000000E+00 -0.26799856639E+03  0.26799856639E+03  0.00000000000E+00 0. -1.
         23    2    1    2    0    0 -0.92456073665E+02 -0.21166942480E+03  0.11402270262E+03  0.27736279786E+03  0.10284393015E+03 0.  0.
         23    2    1    2    0    0  0.18405664794E+03  0.15594636945E+03  0.35707711403E+02  0.26045108508E+03  0.91452759778E+02 0.  0.
        -13    1    3    3    0    0  0.23236195964E+01 -0.76431343966E+02 -0.37295046649E+00  0.76467565938E+02  0.00000000000E+00 0. -1.
         13    1    3    3    0    0 -0.94779693261E+02 -0.13523808084E+03  0.11439565308E+03  0.20089523192E+03  0.00000000000E+00 0.  1.
        -13    1    4    4    0    0  0.32715092547E+02 -0.88988700030E+01  0.43457137280E+00  0.33906577828E+02  0.00000000000E+00 0.  1.
         13    1    4    4    0    0  0.15134155539E+03  0.16484523946E+03  0.35273140031E+02  0.22654450726E+03  0.00000000000E+00 0. -1.
          2    1    1    2  501    0 -0.91600574274E+02  0.55723055349E+02 -0.35097257349E+02  0.11281640651E+03  0.00000000000E+00 0. -1.
<scales pt_clust_5="13000.00000" pt_clust_6="13000.00000" pt_clust_7="13000.00000" pt_clust_8="13000.00000" pt_clust_9="107.21811"></scales>
<clustering>
<clus scale="   91.453">  7  8 -1 -1</clus>
<clus scale="  102.844">  5  6 -1 -1</clus>
<clus scale="  107.218">  2  9  1 -1</clus>
<clus scale="  246.886">  2  7  1 -1</clus>
<clus scale="  107.218">  2  5  1 -1</clus>
</clustering>
</event>
<event>
 9    1  0.1321469E-005  0.1016675E+03  0.7546771E-02  0.1278570E+00
          4   -1    0    0  502    0 -0.00000000000E+00  0.00000000000E+00  0.15506301244E+03  0.15506301244E+03  0.00000000000E+00 0. -1.
         21   -1    0    0  501  502  0.00000000000E+00 -0.00000000000E+00 -0.15268589861E+03  0.15268589861E+03  0.00000000000E+00 0.  1.
         23    2    1    2    0    0 -0.45472161485E+02 -0.42841568052E+02  0.65591472582E+02  0.12812058578E+03  0.90606433554E+02 0.  0.
         23    2    1    2    0    0  0.22752846453E+01 -0.10710004681E+02 -0.15994824745E+02  0.96181183299E+02  0.94207772936E+02 0.  0.
        -11    1    4    4    0    0  0.69914119054E+00 -0.36714770713E+02 -0.44413248968E+02  0.57628117016E+02  0.00000000000E+00 0.  1.
         11    1    4    4    0    0  0.15761434548E+01  0.26004766031E+02  0.28418424222E+02  0.38553066283E+02  0.00000000000E+00 0. -1.
        -13    1    3    3    0    0 -0.58156450020E+02 -0.75106043149E+01  0.68853822095E+02  0.90440204960E+02  0.00000000000E+00 0.  1.
         13    1    3    3    0    0  0.12684288535E+02 -0.35330963737E+02 -0.32623495128E+01  0.37680380818E+02  0.00000000000E+00 0. -1.
          4    1    1    2  501    0  0.43196876840E+02  0.53551572734E+02 -0.47219534009E+02  0.83447141970E+02  0.00000000000E+00 0. -1.
<scales pt_clust_5="13000.00000" pt_clust_6="13000.00000" pt_clust_7="13000.00000" pt_clust_8="13000.00000" pt_clust_9="68.80219"></scales>
<clustering>
<clus scale="   68.802">  2  9  1 -1</clus>
<clus scale="   90.606">  7  8 -1 -1</clus>
<clus scale="   94.208">  5  6 -1 -1</clus>
<clus scale="   98.340">  1  7  2 -1</clus>
<clus scale="   68.802">  2  5  1 -1</clus>
</clustering>
</event>
<event>
 9    1  0.1321469E-005  0.1399544E+03  0.7546771E-02  0.1213640E+00
         21   -1    0    0  501  502  0.00000000000E+00  0.00000000000E+00  0.53574972588E+02  0.53574972588E+02  0.00000000000E+00 0.  1.
          1   -1    0    0  502    0 -0.00000000000E+00 -0.00000000000E+00 -0.79460119263E+03  0.79460119263E+03  0.00000000000E+00 0. -1.
         23    2    1    2    0    0  0.66689936990E+02  0.95147497512E+02 -0.63261271297E+03  0.64950548174E+03  0.90321272224E+02 0.  0.
         23    2    1    2    0    0 -0.36046451904E+02 -0.53171937318E+02 -0.56583498122E+02  0.12527231389E+03  0.91459601757E+02 0.  0.
        -13    1    4    4    0    0  0.27376048690E+02 -0.93833881692E+01  0.11710952274E+01  0.28963209067E+02  0.00000000000E+00 0. -1.
         13    1    4    4    0    0 -0.63422500593E+02 -0.43788549148E+02 -0.57754593350E+02  0.96309104819E+02  0.00000000000E+00 0.  1.
        -13    1    3    3    0    0 -0.16139040484E+02  0.48826006929E+02 -0.19024466658E+03  0.19707227289E+03  0.00000000000E+00 0. -1.
         13    1    3    3    0    0  0.82828977474E+02  0.46321490582E+02 -0.44236804639E+03  0.45243320884E+03  0.00000000000E+00 0.  1.
          1    1    1    2  501    0 -0.30643485086E+02 -0.41975560194E+02 -0.51830008953E+02  0.73398369600E+02  0.00000000000E+00 0. -1.
<scales pt_clust_5="13000.00000" pt_clust_6="13000.00000" pt_clust_7="13000.00000" pt_clust_8="13000.00000" pt_clust_9="51.97087"></scales>
<clustering>
<clus scale="   51.971">  1  9  2 -1</clus>
<clus scale="   90.321">  7  8 -1 -1</clus>
<clus scale="   91.460">  5  6 -1 -1</clus>
<clus scale="  139.213">  2  7  1 -1</clus>
<clus scale="   51.971">  1  5  2 -1</clus>
</clustering>
</event>
<event>
 9    1  0.1321469E-005  0.2275916E+03  0.7546771E-02  0.1129308E+00
          1   -1    0    0  502    0 -0.00000000000E+00  0.00000000000E+00  0.50433823377E+03  0.50433823377E+03  0.00000000000E+00 0. -1.
         21   -1    0    0  501  502  0.00000000000E+00 -0.00000000000E+00 -0.22752445854E+03  0.22752445854E+03  0.00000000000E+00 0. -1.
         23    2    1    2    0    0  0.13914689205E+03  0.18406306193E+03  0.36570324679E+03  0.44088207821E+03  0.86006243040E+02 0.  0.
         23    2    1    2    0    0 -0.87870627208E+02 -0.11094334838E+03 -0.11943248871E+02  0.17309732845E+03  0.98946299824E+02 0.  0.
        -11    1    3    3    0    0  0.13714882599E+02  0.25513136257E+02  0.11619139164E+03  0.11974747437E+03  0.00000000000E+00 0.  1.
         11    1    3    3    0    0  0.12543200945E+03  0.15854992567E+03  0.24951185515E+03  0.32113460385E+03  0.00000000000E+00 0. -1.
        -13    1    4    4    0    0 -0.66017004699E+02 -0.12455209092E+03  0.69915355904E+01  0.14113946944E+03  0.00000000000E+00 0.  1.
         13    1    4    4    0    0 -0.21853622509E+02  0.13608742545E+02 -0.18934784461E+02  0.31957859018E+02  0.00000000000E+00 0. -1.
          1    1    1    2  501    0 -0.51276264843E+02 -0.73119713549E+02 -0.76946222702E+02  0.11788328564E+03  0.00000000000E+00 0. -1.
<scales pt_clust_5="13000.00000" pt_clust_6="13000.00000" pt_clust_7="13000.00000" pt_clust_8="13000.00000" pt_clust_9="89.30704"></scales>
<clustering>
<clus scale="   86.006">  5  6 -1 -1</clus>
<clus scale="   89.307">  2  9  1 -1</clus>
<clus scale="   98.946">  7  8 -1 -1</clus>
<clus scale="  222.272">  1  5  2 -1</clus>
<clus scale="   89.307">  2  5  1 -1</clus>
</clustering>
</event>
<event>
 9    1  0.1321469E-005  0.9609356E+02  0.7546771E-02  0.1289017E+00
         -1   -1    0    0    0  501 -0.00000000000E+00  0.00000000000E+00  0.88781757947E+02  0.88781757947E+02  0.00000000000E+00 0.  1.
         21   -1    0    0  501  502  0.00000000000E+00 -0.00000000000E+00 -0.15801753521E+03  0.15801753521E+03  0.00000000000E+00 0.  1.
         23    2    1    2    0    0 -0.86394066460E+01  0.10649527035E+02 -0.11596405750E+02  0.93668780873E+02  0.91931018218E+02 0.  0.
         23    2    1    2    0    0  0.33975789674E+02 -0.22064170448E+02 -0.14743424768E+02  0.10201995920E+03  0.92463623119E+02 0.  0.
        -11    1    4    4    0    0 -0.21568304173E+02 -0.79087873618E+01  0.23696795424E+02  0.33004223605E+02  0.00000000000E+00 0. -1.
         11    1    4    4    0    0  0.55544093847E+02 -0.14155383087E+02 -0.38440220192E+02  0.69015735597E+02  0.00000000000E+00 0.  1.
        -13    1    3    3    0    0 -0.42044516265E+02 -0.17800160114E+02  0.66671300785E+01  0.46141496199E+02  0.00000000000E+00 0.  1.
         13    1    3    3    0    0  0.33405109619E+02  0.28449687149E+02 -0.18263535829E+02  0.47527284674E+02  0.00000000000E+00 0. -1.
         -1    1    1    2    0  502 -0.25336383028E+02  0.11414643413E+02 -0.42895946748E+02  0.51110553084E+02  0.00000000000E+00 0.  1.
<scales pt_clust_5="13000.00000" pt_clust_6="13000.00000" pt_clust_7="13000.00000" pt_clust_8="13000.00000" pt_clust_9="27.78896"></scales>
<clustering>
<clus scale="   27.789">  2  9  1 -1</clus>
<clus scale="   91.931">  7  8 -1 -1</clus>
<clus scale="   92.464">  5  6 -1 -1</clus>
<clus scale="   95.581">  1  7  2 -1</clus>
<clus scale="   27.789">  2  5  1 -1</clus>
</clustering>
</event>
<event>
 9    1  0.1321469E-005  0.1510914E+03  0.7546771E-02  0.1217007E+00
         21   -1    0    0  501  502  0.00000000000E+00  0.00000000000E+00  0.36696240526E+02  0.36696240526E+02  0.00000000000E+00 0. -1.
          2   -1    0    0  502    0 -0.00000000000E+00 -0.00000000000E+00 -0.12341712584E+04  0.12341712584E+04  0.00000000000E+00 0. -1.
         23    2    1    2    0    0  0.42154710538E+02  0.17307213550E+02 -0.47478657645E+03  0.48583779761E+03  0.92409486237E+02 0.  0.
         23    2    1    2    0    0 -0.14207938559E+03 -0.63287848979E+02 -0.56300027612E+03  0.59112387455E+03  0.90918757721E+02 0.  0.
        -11    1    3    3    0    0  0.70606394386E+02  0.26937319640E+01 -0.30655081679E+03  0.31458849692E+03  0.00000000000E+00 0.  1.
         11    1    3    3    0    0 -0.28451683847E+02  0.14613481586E+02 -0.16823575966E+03  0.17124930069E+03  0.00000000000E+00 0. -1.
        -13    1    4    4    0    0  0.27805220488E+01 -0.31761100635E+02 -0.10367541644E+03  0.10846700323E+03  0.00000000000E+00 0.  1.
         13    1    4    4    0    0 -0.14485990764E+03 -0.31526748344E+02 -0.45932485969E+03  0.48265687132E+03  0.00000000000E+00 0. -1.
          2    1    1    2  501    0  0.99924675055E+02  0.45980635429E+02 -0.15968816531E+03  0.19390582678E+03  0.00000000000E+00 0. -1.
<scales pt_clust_5="13000.00000" pt_clust_6="13000.00000" pt_clust_7="13000.00000" pt_clust_8="13000.00000" pt_clust_9="120.67474"></scales>
<clustering>
<clus scale="   90.919">  7  8 -1 -1</clus>
<clus scale="   92.409">  5  6 -1 -1</clus>
<clus scale="  103.034">  2  5  1 -1</clus>
<clus scale="  120.675">  1  9  2 -1</clus>
<clus scale="  120.675">  1  5  2 -1</clus>
</clustering>
</event>
<event>
 9    1  0.1321469E-005  0.1397226E+03  0.7546771E-02  0.1215215E+00
         21   -1    0    0  501  502  0.00000000000E+00  0.00000000000E+00  0.13920841182E+03  0.13920841182E+03  0.00000000000E+00 0. -1.
          1   -1    0    0  502    0 -0.00000000000E+00 -0.00000000000E+00 -0.19538073671E+03  0.19538073671E+03  0.00000000000E+00 0. -1.
         23    2    1    2    0    0  0.95757406858E+02  0.26454950251E+02 -0.40638787895E+02  0.14109062613E+03  0.91573513305E+02 0.  0.
         23    2    1    2    0    0 -0.10259238081E+03 -0.57773068299E+02  0.19119089608E+02  0.14629316341E+03  0.84694899798E+02 0.  0.
        -13    1    3    3    0    0  0.24348997637E+02  0.39929843342E+02  0.15492716521E+02  0.49267538405E+02  0.00000000000E+00 0.  1.
         13    1    3    3    0    0  0.71408409221E+02 -0.13474893092E+02 -0.56131504416E+02  0.91823087725E+02  0.00000000000E+00 0. -1.
        -13    1    4    4    0    0 -0.39634990445E+02 -0.20822072677E+02  0.49924645198E+02  0.67059386936E+02  0.00000000000E+00 0. -1.
         13    1    4    4    0    0 -0.62957390361E+02 -0.36950995621E+02 -0.30805555590E+02  0.79233776470E+02  0.00000000000E+00 0.  1.
          1    1    1    2  501    0  0.68349739477E+01  0.31318118048E+02 -0.34652626603E+02  0.47205358991E+02  0.00000000000E+00 0. -1.
<scales pt_clust_5="13000.00000" pt_clust_6="13000.00000" pt_clust_7="13000.00000" pt_clust_8="13000.00000" pt_clust_9="32.05530"></scales>
<clustering>
<clus scale="   32.055">  1  9  2 -1</clus>
<clus scale="   84.695">  7  8 -1 -1</clus>
<clus scale="   91.574">  5  6 -1 -1</clus>
<clus scale="  135.314">  1  7  2 -1</clus>
<clus scale="   32.055">  1  5  2 -1</clus>
</clustering>
</event>
<event>
 9    1  0.1321469E-005  0.1030583E+03  0.7546771E-02  0.1274791E+00
         -4   -1    0    0    0  501 -0.00000000000E+00  0.00000000000E+00  0.30972825860E+02  0.30972825860E+02  0.00000000000E+00 0.  1.
         21   -1    0    0  501  502  0.00000000000E+00 -0.00000000000E+00 -0.80196719591E+03  0.80196719591E+03  0.00000000000E+00 0. -1.
         23    2    1    2    0    0  0.27679345656E+02  0.48048122631E+02 -0.13260174416E+03  0.17114448273E+03  0.92910942030E+02 0.  0.
         23    2    1    2    0    0 -0.48932019018E+02  0.13710593126E+02 -0.31400562406E+03  0.33089866379E+03  0.91170559433E+02 0.  0.
        -11    1    3    3    0    0 -0.10860975929E+02  0.32882572059E+02 -0.26256922984E+01  0.34729218296E+02  0.00000000000E+00 0.  1.
         11    1    3    3    0    0  0.38540321585E+02  0.15165550572E+02 -0.12997605186E+03  0.13641526443E+03  0.00000000000E+00 0. -1.
        -13    1    4    4    0    0 -0.40573970863E+02  0.45623507813E+02 -0.26416748455E+03  0.27113135464E+03  0.00000000000E+00 0. -1.
         13    1    4    4    0    0 -0.83580481552E+01 -0.31912914687E+02 -0.49838139506E+02  0.59767309143E+02  0.00000000000E+00 0.  1.
         -4    1    1    2    0  502  0.21252673362E+02 -0.61758715757E+02 -0.32438700183E+03  0.33089687525E+03  0.00000000000E+00 0.  1.
<scales pt_clust_5="13000.00000" pt_clust_6="13000.00000" pt_clust_7="13000.00000" pt_clust_8="13000.00000" pt_clust_9="65.31321"></scales>
<clustering>
<clus scale="   65.313">  2  9  1 -1</clus>
<clus scale="   91.171">  7  8 -1 -1</clus>
<clus scale="   92.911">  5  6 -1 -1</clus>
<clus scale="  101.492">  2  7  1 -1</clus>
<clus scale="   65.313">  2  5  1 -1</clus>
</clustering>
</event>
<event>
 9    1  0.1321469E-005  0.2107177E+03  0.7546771E-02  0.1141088E+00
         21   -1    0    0  501  502  0.00000000000E+00  0.00000000000E+00  0.11892202085E+03  0.11892202085E+03  0.00000000000E+00 0.  1.
         -1   -1    0    0    0  501 -0.00000000000E+00 -0.00000000000E+00 -0.46370792429E+03  0.46370792429E+03  0.00000000000E+00 0.  1.
         23    2    1    2    0    0 -0.11755400728E+03 -0.13878730557E+03 -0.19929500431E+03  0.28438011325E+03  0.89848145507E+02 0.  0.
         23    2    1    2    0    0  0.15378698803E+03  0.13452994752E+03 -0.12054329602E+03  0.25405326084E+03  0.90904502988E+02 0.  0.
        -13    1    4    4    0    0  0.13041084849E+03  0.14057123535E+03 -0.81941447721E+02  0.20852257064E+03  0.00000000000E+00 0.  1.
         13    1    4    4    0    0  0.23376139539E+02 -0.60412878313E+01 -0.38601848296E+02  0.45530690202E+02  0.00000000000E+00 0. -1.
        -13    1    3    3    0    0 -0.56136822849E+02 -0.12100652812E+03 -0.10185242493E+03  0.16783277150E+03  0.00000000000E+00 0.  1.
         13    1    3    3    0    0 -0.61417184431E+02 -0.17780777452E+02 -0.97442579388E+02  0.11654734175E+03  0.00000000000E+00 0. -1.
         -1    1    1    2    0  502 -0.36232980750E+02  0.42573580467E+01 -0.24947603114E+02  0.44196571051E+02  0.00000000000E+00 0.  1.
<scales pt_clust_5="13000.00000" pt_clust_6="13000.00000" pt_clust_7="13000.00000" pt_clust_8="13000.00000" pt_clust_9="36.48224"></scales>
<clustering>
<clus scale="   36.482">  1  9  2 -1</clus>
<clus scale="   89.848">  7  8 -1 -1</clus>
<clus scale="   90.905">  5  6 -1 -1</clus>
<clus scale="  210.264">  2  7  1 -1</clus>
<clus scale="   36.482">  1  5  2 -1</clus>
</clustering>
</event>
<event>
 9    1  0.1321469E-005  0.9566983E+02  0.7546771E-02  0.1290293E+00
         21   -1    0    0  501  502  0.00000000000E+00  0.00000000000E+00  0.70828828523E+02  0.70828828523E+02  0.00000000000E+00 0.  1.
          1   -1    0    0  502    0 -0.00000000000E+00 -0.00000000000E+00 -0.31470982401E+03  0.31470982401E+03  0.00000000000E+00 0. -1.
         23    2    1    2    0    0  0.35153773774E+01 -0.21398879975E+01 -0.13085751062E+03  0.15976367910E+03  0.91563137103E+02 0.  0.
         23    2    1    2    0    0 -0.29961393743E+02 -0.46507519072E+02 -0.12893666566E+03  0.16816255013E+03  0.92700297020E+02 0.  0.
        -11    1    4    4    0    0  0.17283628569E+02  0.18919299725E+02 -0.44578853997E+02  0.51419237084E+02  0.00000000000E+00 0. -1.
         11    1    4    4    0    0 -0.47245022312E+02 -0.65426818797E+02 -0.84357811663E+02  0.11674331304E+03  0.00000000000E+00 0.  1.
        -13    1    3    3    0    0  0.58069149463E+01  0.40316840257E+02 -0.30862391592E+02  0.51104354847E+02  0.00000000000E+00 0. -1.
         13    1    3    3    0    0 -0.22915375689E+01 -0.42456728255E+02 -0.99995119023E+02  0.10865932425E+03  0.00000000000E+00 0.  1.
          1    1    1    2  501    0  0.26446016366E+02  0.48647407070E+02  0.15913180792E+02  0.57612423306E+02  0.00000000000E+00 0. -1.
<scales pt_clust_5="13000.00000" pt_clust_6="13000.00000" pt_clust_7="13000.00000" pt_clust_8="13000.00000" pt_clust_9="55.37113"></scales>
<clustering>
<clus scale="   55.371">  1  9  2 -1</clus>
<clus scale="   91.563">  7  8 -1 -1</clus>
<clus scale="   92.700">  5  6 -1 -1</clus>
<clus scale="   94.568">  2  7  1 -1</clus>
<clus scale="   55.371">  1  5  2 -1</clus>
</clustering>
</event>
<event>
 9    1  0.1321469E-005  0.2062269E+03  0.7546771E-02  0.1144631E+00
          1   -1    0    0  502    0 -0.00000000000E+00  0.00000000000E+00  0.10661138649E+04  0.10661138649E+04  0.00000000000E+00 0. -1.
         21   -1    0    0  501  502  0.00000000000E+00 -0.00000000000E+00 -0.67571090908E+02  0.67571090908E+02  0.00000000000E+00 0. -1.
         23    2    1    2    0    0 -0.19379635562E+03 -0.13611591298E+02  0.69732562460E+03  0.72957371893E+03  0.90953184465E+02 0.  0.
         23    2    1    2    0    0  0.16537807577E+03  0.40603493427E+02  0.30869613477E+03  0.36421015128E+03  0.91417607974E+02 0.  0.
        -13    1    4    4    0    0  0.48794044144E+02 -0.24752065220E+02  0.55679885411E+02  0.78062623041E+02  0.00000000000E+00 0.  1.
         13    1    4    4    0    0  0.11658403163E+03  0.65355558647E+02  0.25301624936E+03  0.28614752824E+03  0.00000000000E+00 0. -1.
        -13    1    3    3    0    0 -0.10608436690E+03 -0.45600559439E+02  0.30071700531E+03  0.32212423257E+03  0.00000000000E+00 0. -1.
         13    1    3    3    0    0 -0.87711988719E+02  0.31988968141E+02  0.39660861929E+03  0.40744948637E+03  0.00000000000E+00 0.  1.
          1    1    1    2  501    0  0.28418279845E+02 -0.26991902129E+02 -0.74789853763E+01  0.39901085600E+02  0.00000000000E+00 0. -1.
<scales pt_clust_5="13000.00000" pt_clust_6="13000.00000" pt_clust_7="13000.00000" pt_clust_8="13000.00000" pt_clust_9="39.19390"></scales>
<clustering>
<clus scale="   39.194">  2  9  1 -1</clus>
<clus scale="   90.953">  7  8 -1 -1</clus>
<clus scale="   91.418">  5  6 -1 -1</clus>
<clus scale="  206.021">  1  7  2 -1</clus>
<clus scale="   39.194">  2  5  1 -1</clus>
</clustering>
</event>
<event>
 9    1  0.1321469E-005  0.1384506E+03  0.7546771E-02  0.1217903E+00
          2   -1    0    0  502    0 -0.00000000000E+00  0.00000000000E+00  0.14250696774E+03  0.14250696774E+03  0.00000000000E+00 0. -1.
         21   -1    0    0  501  502  0.00000000000E+00 -0.00000000000E+00 -0.39865359976E+03  0.39865359976E+03  0.00000000000E+00 0. -1.
         23    2    1    2    0    0  0.34518308320E+02  0.87927031433E+02  0.60708564434E+02  0.14102652297E+03  0.85324521203E+02 0.  0.
         23    2    1    2    0    0 -0.10405305508E+03 -0.10066855036E+03 -0.22162517770E+03  0.28153310110E+03  0.95822608614E+02 0.  0.
        -11    1    3    3    0    0  0.54349692801E+02  0.91526856310E+02  0.56202584801E+02  0.12037352313E+03  0.00000000000E+00 0. -1.
         11    1    3    3    0    0 -0.19831384481E+02 -0.35998248769E+01  0.45059796334E+01  0.20652999832E+02  0.00000000000E+00 0.  1.
        -13    1    4    4    0    0  0.10965127847E+02 -0.43189937697E+02 -0.66459859229E+02  0.80015733676E+02  0.00000000000E+00 0.  1.
         13    1    4    4    0    0 -0.11501818293E+03 -0.57478612665E+02 -0.15516531847E+03  0.20151736742E+03  0.00000000000E+00 0. -1.
          2    1    1    2  501    0  0.69534746759E+02  0.12741518930E+02 -0.95230018749E+02  0.11860094343E+03  0.00000000000E+00 0. -1.
<scales pt_clust_5="13000.00000" pt_clust_6="13000.00000" pt_clust_7="13000.00000" pt_clust_8="13000.00000" pt_clust_9="70.69248"></scales>
<clustering>
<clus scale="   70.692">  2  9  1 -1</clus>
<clus scale="   85.325">  5  6 -1 -1</clus>
<clus scale="   95.823">  7  8 -1 -1</clus>
<clus scale="  131.404">  1  5  2 -1</clus>
<clus scale="   70.692">  2  5  1 -1</clus>
</clustering>
</event>
<event>
 9    1  0.1321469E-005  0.9523945E+02  0.7546771E-02  0.1290688E+00
          1   -1    0    0  502    0 -0.00000000000E+00  0.00000000000E+00  0.12490495504E+03  0.12490495504E+03  0.00000000000E+00 0. -1.
         21   -1    0    0  501  502  0.00000000000E+00 -0.00000000000E+00 -0.19320095496E+03  0.19320095496E+03  0.00000000000E+00 0.  1.
         23    2    1    2    0    0 -0.35188675294E+02 -0.35355108158E+01  0.43568156335E+02  0.10688231211E+03  0.90966486632E+02 0.  0.
         23    2    1    2    0    0  0.13216664454E+02  0.18358628941E+02  0.24664069125E+01  0.93861032445E+02  0.91060917922E+02 0.  0.
        -11    1    3    3    0    0 -0.27621174468E+02 -0.28526331003E+02 -0.15244913507E+02  0.42533377803E+02  0.00000000000E+00 0.  1.
         11    1    3    3    0    0 -0.75675008258E+01  0.24990820187E+02  0.58813069842E+02  0.64348934309E+02  0.00000000000E+00 0. -1.
        -11    1    4    4    0    0 -0.16482610241E+02  0.18290214246E+02 -0.37015269200E+02  0.44456029191E+02  0.00000000000E+00 0.  1.
         11    1    4    4    0    0  0.29699274695E+02  0.68414695164E-01  0.39481676112E+02  0.49405003254E+02  0.00000000000E+00 0. -1.
          1    1    1    2  501    0  0.21972010840E+02 -0.14823118126E+02 -0.11433056317E+03  0.11736256544E+03  0.00000000000E+00 0. -1.
<scales pt_clust_5="13000.00000" pt_clust_6="13000.00000" pt_clust_7="13000.00000" pt_clust_8="13000.00000" pt_clust_9="26.50461"></scales>
<clustering>
<clus scale="   26.505">  2  9  1 -1</clus>
<clus scale="   90.966">  5  6 -1 -1</clus>
<clus scale="   91.061">  7  8 -1 -1</clus>
<clus scale="   95.149">  1  5  2 -1</clus>
<clus scale="   26.505">  2  5  1 -1</clus>
</clustering>
</event>
<event>
 9    1  0.1321469E-005  0.1019229E+03  0.7546771E-02  0.1284201E+00
         -3   -1    0    0    0  501 -0.00000000000E+00  0.00000000000E+00  0.30114709022E+03  0.30114709022E+03  0.00000000000E+00 0.  1.
         21   -1    0    0  501  502  0.00000000000E+00 -0.00000000000E+00 -0.84052796780E+02  0.84052796780E+02  0.00000000000E+00 0. -1.
         23    2    1    2    0    0 -0.52184309336E+02  0.18743666350E+02  0.18027319820E+03  0.21166934063E+03  0.96077867388E+02 0.  0.
         23    2    1    2    0    0 -0.47635564912E+01 -0.22713586975E+02  0.68296541624E+02  0.10834217765E+03  0.80839417090E+02 0.  0.
        -11    1    3    3    0    0 -0.15195974892E+02  0.54202662858E+02  0.12008469109E+03  0.13262420348E+03  0.00000000000E+00 0.  1.
         11    1    3    3    0    0 -0.36988334444E+02 -0.35458996508E+02  0.60188507109E+02  0.79045137145E+02  0.00000000000E+00 0. -1.
        -13    1    4    4    0    0 -0.43776095774E+01 -0.53164448572E+02  0.38958323148E+02  0.66055832446E+02  0.00000000000E+00 0. -1.
         13    1    4    4    0    0 -0.38594691383E+00  0.30450861597E+02  0.29338218475E+02  0.42286345200E+02  0.00000000000E+00 0.  1.
         -3    1    1    2    0  502  0.56947865828E+02  0.39699206248E+01 -0.31475446387E+02  0.65188368728E+02  0.00000000000E+00 0.  1.
<scales pt_clust_5="13000.00000" pt_clust_6="13000.00000" pt_clust_7="13000.00000" pt_clust_8="13000.00000" pt_clust_9="57.08607"></scales>
<clustering>
<clus scale="   57.086">  2  9  1 -1</clus>
<clus scale="   80.839">  7  8 -1 -1</clus>
<clus scale="   87.706">  2  7  1 -1</clus>
<clus scale="   96.078">  5  6 -1 -1</clus>
<clus scale="   57.086">  2  5  1 -1</clus>
</clustering>
</event>
<event>
 9    1  0.1321469E-005  0.1116636E+03  0.7546771E-02  0.1258225E+00
          1   -1    0    0  502    0 -0.00000000000E+00  0.00000000000E+00  0.21062599939E+03  0.21062599939E+03  0.00000000000E+00 0. -1.
         21   -1    0    0  501  502  0.00000000000E+00 -0.00000000000E+00 -0.18458477836E+03  0.18458477836E+03  0.00000000000E+00 0. -1.
         23    2    1    2    0    0 -0.44476346485E+02 -0.33272177562E+02  0.11686516656E+03  0.15891379746E+03  0.92254781292E+02 0.  0.
         23    2    1    2    0    0  0.37804676070E+02  0.10617580955E+03 -0.52911715076E+02  0.15385434593E+03  0.90382598447E+02 0.  0.
        -11    1    4    4    0    0  0.46314332023E+02  0.35417589773E+02 -0.58211686645E+02  0.82389462179E+02  0.00000000000E+00 0. -1.
         11    1    4    4    0    0 -0.85096559533E+01  0.70758219778E+02  0.52999715695E+01  0.71464883749E+02  0.00000000000E+00 0.  1.
        -13    1    3    3    0    0 -0.20564797873E+02  0.82671858315E+00  0.11542082826E+03  0.11724146865E+03  0.00000000000E+00 0. -1.
         13    1    3    3    0    0 -0.23911548612E+02 -0.34098896145E+02  0.14443383024E+01  0.41672328810E+02  0.00000000000E+00 0.  1.
          1    1    1    2  501    0  0.66716704156E+01 -0.72903631990E+02 -0.37912230453E+02  0.82442634367E+02  0.00000000000E+00 0. -1.
<scales pt_clust_5="13000.00000" pt_clust_6="13000.00000" pt_clust_7="13000.00000" pt_clust_8="13000.00000" pt_clust_9="73.20827"></scales>
<clustering>
<clus scale="   73.208">  2  9  1 -1</clus>
<clus scale="   90.383">  5  6 -1 -1</clus>
<clus scale="   92.255">  7  8 -1 -1</clus>
<clus scale="  110.122">  2  5  1 -1</clus>
<clus scale="   73.208">  2  5  1 -1</clus>
</clustering>
</event>
<event>
 9    1  0.1321469E-005  0.1177664E+03  0.7546771E-02  0.1247693E+00
         21   -1    0    0  501  502  0.00000000000E+00  0.00000000000E+00  0.23526061745E+03  0.23526061745E+03  0.00000000000E+00 0.  1.
         -2   -1    0    0    0  501 -0.00000000000E+00 -0.00000000000E+00 -0.34198091746E+03  0.34198091746E+03  0.00000000000E+00 0.  1.
         23    2    1    2    0    0  0.70420860949E+02 -0.32945519714E+02 -0.26626134999E+03  0.29178271120E+03  0.90540262501E+02 0.  0.
         23    2    1    2    0    0 -0.52047914726E+02  0.97116784281E+01 -0.15230673510E+02  0.10819480631E+03  0.93117348396E+02 0.  0.
        -13    1    4    4    0    0 -0.67145819172E+02 -0.12008637571E+02  0.13074927898E+02  0.69453021159E+02  0.00000000000E+00 0. -1.
         13    1    4    4    0    0  0.15097904446E+02  0.21720316000E+02 -0.28305601409E+02  0.38741785153E+02  0.00000000000E+00 0.  1.
        -13    1    3    3    0    0  0.52534198566E+02  0.19590862101E+02 -0.81931550904E+02  0.99279519189E+02  0.00000000000E+00 0.  1.
         13    1    3    3    0    0  0.17886662383E+02 -0.52536381816E+02 -0.18432979908E+03  0.19250319201E+03  0.00000000000E+00 0. -1.
         -2    1    1    2    0  502 -0.18372946223E+02  0.23233841286E+02  0.17477172348E+03  0.17726401739E+03  0.00000000000E+00 0.  1.
<scales pt_clust_5="13000.00000" pt_clust_6="13000.00000" pt_clust_7="13000.00000" pt_clust_8="13000.00000" pt_clust_9="29.62054"></scales>
<clustering>
<clus scale="   29.621">  1  9  2 -1</clus>
<clus scale="   90.540">  7  8 -1 -1</clus>
<clus scale="   93.117">  5  6 -1 -1</clus>
<clus scale="  115.739">  2  7  1 -1</clus>
<clus scale="   29.621">  1  5  2 -1</clus>
</clustering>
</event>
<event>
 9    1  0.1321469E-005  0.9632285E+02  0.7546771E-02  0.1289717E+00
         21   -1    0    0  501  502  0.00000000000E+00  0.00000000000E+00  0.12984250336E+03  0.12984250336E+03  0.00000000000E+00 0. -1.
         -1   -1    0    0    0  501 -0.00000000000E+00 -0.00000000000E+00 -0.10740379435E+03  0.10740379435E+03  0.00000000000E+00 0.  1.
         23    2    1    2    0    0 -0.28662407003E+02 -0.40476871218E+01 -0.33391261034E+02  0.10147085124E+03  0.91342432596E+02 0.  0.
         23    2    1    2    0    0  0.30112742631E+01  0.95358129122E+01  0.30714730689E+02  0.99459122543E+02  0.94067650524E+02 0.  0.
        -11    1    3    3    0    0 -0.13853757481E+02 -0.31355063562E+02 -0.54164836196E+02  0.64100671505E+02  0.00000000000E+00 0.  1.
         11    1    3    3    0    0 -0.14808649521E+02  0.27307376440E+02  0.20773575162E+02  0.37370179739E+02  0.00000000000E+00 0. -1.
        -13    1    4    4    0    0  0.36306095774E+02 -0.20789488741E+02  0.34552662367E+02  0.54260684746E+02  0.00000000000E+00 0.  1.
         13    1    4    4    0    0 -0.33294821511E+02  0.30325301653E+02 -0.38379316781E+01  0.45198437797E+02  0.00000000000E+00 0. -1.
         -1    1    1    2    0  502  0.25651132739E+02 -0.54881257904E+01  0.25115239349E+02  0.36316323920E+02  0.00000000000E+00 0.  1.
<scales pt_clust_5="13000.00000" pt_clust_6="13000.00000" pt_clust_7="13000.00000" pt_clust_8="13000.00000" pt_clust_9="26.23166"></scales>
<clustering>
<clus scale="   26.232">  1  9  2 -1</clus>
<clus scale="   91.342">  5  6 -1 -1</clus>
<clus scale="   93.663">  2  5  1 -1</clus>
<clus scale="   94.068">  7  8 -1 -1</clus>
<clus scale="   26.232">  1  5  2 -1</clus>
</clustering>
</event>
<event>
 9    1  0.1321469E-005  0.2272647E+03  0.7546771E-02  0.1162746E+00
         21   -1    0    0  501  502  0.00000000000E+00  0.00000000000E+00  0.11974193522E+03  0.11974193522E+03  0.00000000000E+00 0. -1.
          2   -1    0    0  502    0 -0.00000000000E+00 -0.00000000000E+00 -0.89308072054E+03  0.89308072054E+03  0.00000000000E+00 0. -1.
         23    2    1    2    0    0  0.10115223967E+02  0.42489325720E+02 -0.42404288127E+03  0.43578866062E+03  0.90508182017E+02 0.  0.
         23    2    1    2    0    0  0.10003466985E+03 -0.19726452007E+03 -0.88330394605E+02  0.25424713510E+03  0.88989443467E+02 0.  0.
        -11    1    3    3    0    0 -0.38986461540E+01  0.69675234827E+02 -0.28456677427E+03  0.29299844165E+03  0.00000000000E+00 0. -1.
         11    1    3    3    0    0  0.14013870121E+02 -0.27185909106E+02 -0.13947610700E+03  0.14279021897E+03  0.00000000000E+00 0.  1.
        -13    1    4    4    0    0  0.75228825948E+02 -0.16939175661E+03 -0.10539680722E+03  0.21321686245E+03  0.00000000000E+00 0. -1.
         13    1    4    4    0    0  0.24805843898E+02 -0.27872763455E+02  0.17066412618E+02  0.41030272650E+02  0.00000000000E+00 0.  1.
          2    1    1    2  501    0 -0.11014989381E+03  0.15477519435E+03 -0.26096550944E+03  0.32278686003E+03  0.00000000000E+00 0. -1.
<scales pt_clust_5="13000.00000" pt_clust_6="13000.00000" pt_clust_7="13000.00000" pt_clust_8="13000.00000" pt_clust_9="209.11760"></scales>
<clustering>
<clus scale="   88.989">  7  8 -1 -1</clus>
<clus scale="   90.508">  5  6 -1 -1</clus>
<clus scale="  100.496">  2  5  1 -1</clus>
<clus scale="  209.118">  1  9  2 -1</clus>
<clus scale="  209.118">  1  5  2 -1</clus>
</clustering>
</event>
<event>
 9    1  0.1321469E-005  0.1124649E+03  0.7546771E-02  0.1257385E+00
          1   -1    0    0  502    0 -0.00000000000E+00  0.00000000000E+00  0.42262504714E+03  0.42262504714E+03  0.00000000000E+00 0. -1.
         21   -1    0    0  501  502  0.00000000000E+00 -0.00000000000E+00 -0.12747342305E+03  0.12747342305E+03  0.00000000000E+00 0.  1.
         23    2    1    2    0    0  0.74441479711E+02  0.52289089789E+02  0.24733642378E+03  0.27716661165E+03  0.85850691752E+02 0.  0.
         23    2    1    2    0    0 -0.14316460472E-01 -0.55677058518E+02  0.12644169558E+03  0.16461285412E+03  0.89498348082E+02 0.  0.
        -11    1    3    3    0    0  0.33412762660E+02  0.14909086654E+02  0.20260395841E+03  0.20588117334E+03  0.00000000000E+00 0. -1.
         11    1    3    3    0    0  0.41028717051E+02  0.37380003135E+02  0.44732465375E+02  0.71285438315E+02  0.00000000000E+00 0.  1.
        -11    1    4    4    0    0  0.44666590981E+02 -0.30569895241E+02  0.63130757016E+02  0.83157172429E+02  0.00000000000E+00 0.  1.
         11    1    4    4    0    0 -0.44680907441E+02 -0.25107163277E+02  0.63310938561E+02  0.81455681687E+02  0.00000000000E+00 0. -1.
          1    1    1    2  501    0 -0.74427163251E+02  0.33879687294E+01 -0.78626495267E+02  0.10831900443E+03  0.00000000000E+00 0. -1.
<scales pt_clust_5="13000.00000" pt_clust_6="13000.00000" pt_clust_7="13000.00000" pt_clust_8="13000.00000" pt_clust_9="74.50423"></scales>
<clustering>
<clus scale="   74.504">  2  9  1 -1</clus>
<clus scale="   85.851">  5  6 -1 -1</clus>
<clus scale="   89.498">  7  8 -1 -1</clus>
<clus scale="  109.584">  1  5  2 -1</clus>
<clus scale="   74.504">  2  5  1 -1</clus>
</clustering>
</event>
<event>
 9    1  0.1321469E-005  0.1377224E+03  0.7546771E-02  0.1217373E+00
         21   -1    0    0  501  502  0.00000000000E+00  0.00000000000E+00  0.61934369614E+02  0.61934369614E+02  0.00000000000E+00 0. -1.
          3   -1    0    0  502    0 -0.00000000000E+00 -0.00000000000E+00 -0.11083859548E+04  0.11083859548E+04  0.00000000000E+00 0. -1.
         23    2    1    2    0    0 -0.84299986190E+02 -0.49827398431E+02 -0.63743579985E+03  0.65136086362E+03  0.91418370251E+02 0.  0.
         23    2    1    2    0    0  0.96553526898E+01  0.15987882084E+03 -0.24087995691E+03  0.30459343343E+03  0.95391524051E+02 0.  0.
        -13    1    3    3    0    0  0.10301321136E+02 -0.36676579206E+02 -0.20398455127E+03  0.20751141134E+03  0.00000000000E+00 0.  1.
         13    1    3    3    0    0 -0.94601307326E+02 -0.13150819225E+02 -0.43345124859E+03  0.44384945229E+03  0.00000000000E+00 0. -1.
        -13    1    4    4    0    0  0.32231327935E+02  0.98396857508E+02 -0.20559939517E+03  0.23019972059E+03  0.00000000000E+00 0.  1.
         13    1    4    4    0    0 -0.22575975245E+02  0.61481963327E+02 -0.35280561741E+02  0.74393712837E+02  0.00000000000E+00 0. -1.
          3    1    1    2  501    0  0.74644633501E+02 -0.11005142240E+03 -0.16813582840E+03  0.21436602733E+03  0.00000000000E+00 0. -1.
<scales pt_clust_5="13000.00000" pt_clust_6="13000.00000" pt_clust_7="13000.00000" pt_clust_8="13000.00000" pt_clust_9="132.97796"></scales>
<clustering>
<clus scale="   91.418">  5  6 -1 -1</clus>
<clus scale="   95.392">  7  8 -1 -1</clus>
<clus scale="  132.978">  1  9  2 -1</clus>
<clus scale="  135.001">  2  5  1 -1</clus>
<clus scale="  132.978">  1  5  2 -1</clus>
</clustering>
</event>
<event>
 9    1  0.1321469E-005  0.9946109E+02  0.7546771E-02  0.1281998E+00
         21   -1    0    0  501  502  0.00000000000E+00  0.00000000000E+00  0.16476731467E+03  0.16476731467E+03  0.00000000000E+00 0. -1.
         -4   -1    0    0    0  501 -0.00000000000E+00 -0.00000000000E+00 -0.18057215844E+03  0.18057215844E+03  0.00000000000E+00 0.  1.
         23    2    1    2    0    0 -0.25187684717E+02  0.22278207386E+02 -0.12370757278E+03  0.15753253128E+03  0.91554338311E+02 0.  0.
         23    2    1    2    0    0  0.52409769540E+02 -0.41153122529E+02  0.54180101049E+02  0.12469256091E+03  0.90401260834E+02 0.  0.
        -11    1    3    3    0    0  0.16305401266E+02  0.29533507953E+02 -0.10704305813E+03  0.11223328604E+03  0.00000000000E+00 0.  1.
         11    1    3    3    0    0 -0.41493085983E+02 -0.72553005668E+01 -0.16664514651E+02  0.45299245239E+02  0.00000000000E+00 0. -1.
        -13    1    4    4    0    0 -0.23909771491E+02 -0.12743700556E+02  0.28453812662E+02  0.39289929138E+02  0.00000000000E+00 0.  1.
         13    1    4    4    0    0  0.76319541031E+02 -0.28409421972E+02  0.25726288386E+02  0.85402631775E+02  0.00000000000E+00 0. -1.
         -4    1    1    2    0  502 -0.27222084823E+02  0.18874915143E+02  0.53722627955E+02  0.63114380914E+02  0.00000000000E+00 0.  1.
<scales pt_clust_5="13000.00000" pt_clust_6="13000.00000" pt_clust_7="13000.00000" pt_clust_8="13000.00000" pt_clust_9="33.12558"></scales>
<clustering>
<clus scale="   33.126">  1  9  2 -1</clus>
<clus scale="   90.401">  7  8 -1 -1</clus>
<clus scale="   91.554">  5  6 -1 -1</clus>
<clus scale="   98.401">  1  7  2 -1</clus>
<clus scale="   33.126">  1  5  2 -1</clus>
</clustering>
</event>
<event>
 9    1  0.1321469E-005  0.1093079E+03  0.7546771E-02  0.1262843E+00
          2   -1    0    0  502    0 -0.00000000000E+00  0.00000000000E+00  0.34834141847E+03  0.34834141847E+03  0.00000000000E+00 0. -1.
         21   -1    0    0  501  502  0.00000000000E+00 -0.00000000000E+00 -0.17956766221E+03  0.17956766221E+03  0.00000000000E+00 0.  1.
         23    2    1    2    0    0  0.27405473072E+02  0.57126185127E+02  0.27058049937E+03  0.29286258963E+03  0.92413358239E+02 0.  0.
         23    2    1    2    0    0 -0.19183744533E+02 -0.37004571701E+02  0.28342583658E+02  0.10309451719E+03  0.89932324803E+02 0.  0.
        -13    1    3    3    0    0  0.55162619803E+02  0.81944361407E+01  0.13170601794E+03  0.14302635620E+03  0.00000000000E+00 0. -1.
         13    1    3    3    0    0 -0.27757146731E+02  0.48931748987E+02  0.13887448144E+03  0.14983623343E+03  0.00000000000E+00 0.  1.
        -13    1    4    4    0    0  0.22980717639E+02 -0.13829445930E+02 -0.21084647474E+02  0.34116408326E+02  0.00000000000E+00 0.  1.
         13    1    4    4    0    0 -0.42164462172E+02 -0.23175125771E+02  0.49427231132E+02  0.68978108861E+02  0.00000000000E+00 0. -1.
          2    1    1    2  501    0 -0.82217285388E+01 -0.20121613426E+02 -0.13014932677E+03  0.13195197386E+03  0.00000000000E+00 0. -1.
<scales pt_clust_5="13000.00000" pt_clust_6="13000.00000" pt_clust_7="13000.00000" pt_clust_8="13000.00000" pt_clust_9="21.73652"></scales>
<clustering>
<clus scale="   21.737">  2  9  1 -1</clus>
<clus scale="   89.932">  7  8 -1 -1</clus>
<clus scale="   92.413">  5  6 -1 -1</clus>
<clus scale="  107.218">  2  7  1 -1</clus>
<clus scale="   21.737">  2  5  1 -1</clus>
</clustering>
</event>
<event>
 9    1  0.1321469E-005  0.2361360E+03  0.7546771E-02  0.1139067E+00
          2   -1    0    0  502    0 -0.00000000000E+00  0.00000000000E+00  0.12623632577E+04  0.12623632577E+04  0.00000000000E+00 0. -1.
         21   -1    0    0  501  502  0.00000000000E+00 -0.00000000000E+00 -0.18270935198E+03  0.18270935198E+03  0.00000000000E+00 0. -1.
         23    2    1    2    0    0 -0.86220567233E+01 -0.12877501248E+03  0.80975373728E+02  0.17654243139E+03  0.89178894516E+02 0.  0.
         23    2    1    2    0    0  0.22540125962E+03  0.13073130815E+03  0.10143113466E+04  0.10511792299E+04  0.90850771945E+02 0.  0.
        -11    1    3    3    0    0 -0.47974160738E+02 -0.62932521253E+02  0.51243480875E+02  0.94275748005E+02  0.00000000000E+00 0.  1.
         11    1    3    3    0    0  0.39352104015E+02 -0.65842491232E+02  0.29731892853E+02  0.82266683382E+02  0.00000000000E+00 0. -1.
        -11    1    4    4    0    0  0.14809740254E+03  0.10186166559E+03  0.82997788773E+03  0.84921842518E+03  0.00000000000E+00 0. -1.
         11    1    4    4    0    0  0.77303857078E+02  0.28869642567E+02  0.18433345884E+03  0.20196080469E+03  0.00000000000E+00 0.  1.
          2    1    1    2  501    0 -0.21677920289E+03 -0.19562956681E+01 -0.15632814558E+02  0.21735094845E+03  0.00000000000E+00 0. -1.
<scales pt_clust_5="13000.00000" pt_clust_6="13000.00000" pt_clust_7="13000.00000" pt_clust_8="13000.00000" pt_clust_9="217.95947"></scales>
<clustering>
<clus scale="   89.179">  5  6 -1 -1</clus>
<clus scale="   90.851">  7  8 -1 -1</clus>
<clus scale="  156.877">  1  5  2 -1</clus>
<clus scale="  217.959">  2  9  1 -1</clus>
<clus scale="  217.959">  2  5  1 -1</clus>
</clustering>
</event>
<event>
 9    1  0.1321469E-005  0.1356612E+03  0.7546771E-02  0.1232717E+00
         21   -1    0    0  501  502  0.00000000000E+00  0.00000000000E+00  0.48414837360E+03  0.48414837360E+03  0.00000000000E+00 0. -1.
          1   -1    0    0  502    0 -0.00000000000E+00 -0.00000000000E+00 -0.12348613289E+03  0.12348613289E+03  0.00000000000E+00 0. -1.
         23    2    1    2    0    0  0.45377970350E+02 -0.12462624535E+02  0.51188898501E+01  0.10274834571E+03  0.91195078318E+02 0.  0.
         23    2    1    2    0    0  0.61153205709E+02  0.20731828586E+02 -0.22392458692E+02  0.11213592544E+03  0.88901745110E+02 0.  0.
        -13    1    3    3    0    0  0.48089772199E+02 -0.46617757336E+02  0.11328046718E+02  0.67927653659E+02  0.00000000000E+00 0. -1.
         13    1    3    3    0    0 -0.27118018490E+01  0.34155132801E+02 -0.62091568676E+01  0.34820692051E+02  0.00000000000E+00 0.  1.
        -13    1    4    4    0    0  0.64752204443E+02 -0.28342062973E+01  0.16168967784E+02  0.66800570543E+02  0.00000000000E+00 0. -1.
         13    1    4    4    0    0 -0.35989987341E+01  0.23566034883E+02 -0.38561426477E+02  0.45335354900E+02  0.00000000000E+00 0.  1.
          1    1    1    2  501    0 -0.10653117606E+03 -0.82692040511E+01  0.37793580956E+03  0.39275023534E+03  0.00000000000E+00 0. -1.
<scales pt_clust_5="13000.00000" pt_clust_6="13000.00000" pt_clust_7="13000.00000" pt_clust_8="13000.00000" pt_clust_9="102.47162"></scales>
<clustering>
<clus scale="   88.902">  7  8 -1 -1</clus>
<clus scale="   91.195">  5  6 -1 -1</clus>
<clus scale="  102.621">  2  5  1 -1</clus>
<clus scale="  102.472">  1  9  2 -1</clus>
<clus scale="  102.472">  1  5  2 -1</clus>
</clustering>
</event>
<event>
 9    1  0.1321469E-005  0.1022402E+03  0.7546771E-02  0.1275823E+00
         21   -1    0    0  501  502  0.00000000000E+00  0.00000000000E+00  0.15239410331E+03  0.15239410331E+03  0.00000000000E+00 0. -1.
          1   -1    0    0  502    0 -0.00000000000E+00 -0.00000000000E+00 -0.34398427019E+03  0.34398427019E+03  0.00000000000E+00 0. -1.
         23    2    1    2    0    0 -0.42406542562E+02 -0.27617741262E+02 -0.29215796415E+03  0.31046766238E+03  0.92048024858E+02 0.  0.
         23    2    1    2    0    0 -0.70723081776E+01  0.14967182707E+02  0.28201339041E+02  0.97338155658E+02  0.91680788184E+02 0.  0.
        -11    1    3    3    0    0 -0.70034610192E+02 -0.23025617255E+02 -0.17282712598E+03  0.18789422862E+03  0.00000000000E+00 0. -1.
         11    1    3    3    0    0  0.27628067630E+02 -0.45921240071E+01 -0.11933083818E+03  0.12257343376E+03  0.00000000000E+00 0.  1.
        -13    1    4    4    0    0  0.26858766378E+01  0.51259715669E+02  0.30462533885E+02  0.59688678612E+02  0.00000000000E+00 0.  1.
         13    1    4    4    0    0 -0.97581848154E+01 -0.36292532962E+02 -0.22611948436E+01  0.37649477046E+02  0.00000000000E+00 0. -1.
          1    1    1    2  501    0  0.49478850740E+02  0.12650558555E+02  0.72366458238E+02  0.88572555457E+02  0.00000000000E+00 0. -1.
<scales pt_clust_5="13000.00000" pt_clust_6="13000.00000" pt_clust_7="13000.00000" pt_clust_8="13000.00000" pt_clust_9="51.07047"></scales>
<clustering>
<clus scale="   51.070">  1  9  2 -1</clus>
<clus scale="   91.681">  7  8 -1 -1</clus>
<clus scale="   92.048">  5  6 -1 -1</clus>
<clus scale="  101.910">  1  7  2 -1</clus>
<clus scale="   51.070">  1  5  2 -1</clus>
</clustering>
</event>
<event>
 9    1  0.1321469E-005  0.9537622E+02  0.7546771E-02  0.1291031E+00
          4   -1    0    0  502    0 -0.00000000000E+00  0.00000000000E+00  0.16933597954E+03  0.16933597954E+03  0.00000000000E+00 0. -1.
         21   -1    0    0  501  502  0.00000000000E+00 -0.00000000000E+00 -0.76052404302E+02  0.76052404302E+02  0.00000000000E+00 0.  1.
         23    2    1    2    0    0  0.18950849372E+02 -0.26887513648E+02  0.64289206019E+02  0.11651115619E+03  0.91431255184E+02 0.  0.
         23    2    1    2    0    0 -0.47145298404E+00  0.11571129128E+02  0.41013160032E+02  0.10203451805E+03  0.92708415375E+02 0.  0.
        -13    1    3    3    0    0 -0.29444987723E+01 -0.54908438662E+02  0.17424783251E+02  0.57682144383E+02  0.00000000000E+00 0.  1.
         13    1    3    3    0    0  0.21895348144E+02  0.28020925014E+02  0.46864422768E+02  0.58829011809E+02  0.00000000000E+00 0. -1.
        -13    1    4    4    0    0 -0.70077828086E+01 -0.27699764313E+02 -0.15808529628E+02  0.32654181538E+02  0.00000000000E+00 0.  1.
         13    1    4    4    0    0  0.65363298246E+01  0.39270893441E+02  0.56821689660E+02  0.69380336516E+02  0.00000000000E+00 0. -1.
          4    1    1    2  501    0 -0.18479396388E+02  0.15316384520E+02 -0.12018790816E+02  0.26842709593E+02  0.00000000000E+00 0. -1.
<scales pt_clust_5="13000.00000" pt_clust_6="13000.00000" pt_clust_7="13000.00000" pt_clust_8="13000.00000" pt_clust_9="24.00166"></scales>
<clustering>
<clus scale="   24.002">  2  9  1 -1</clus>
<clus scale="   91.431">  5  6 -1 -1</clus>
<clus scale="   92.708">  7  8 -1 -1</clus>
<clus scale="   94.135">  1  5  2 -1</clus>
<clus scale="   24.002">  2  5  1 -1</clus>
</clustering>
</event>
<event>
 9    1  0.1321469E-005  0.1528057E+03  0.7546771E-02  0.1197195E+00
         -1   -1    0    0    0  501 -0.00000000000E+00  0.00000000000E+00  0.17442808815E+03  0.17442808815E+03  0.00000000000E+00 0.  1.
         21   -1    0    0  501  502  0.00000000000E+00 -0.00000000000E+00 -0.22079720395E+03  0.22079720395E+03  0.00000000000E+00 0.  1.
         23    2    1    2    0    0  0.15835334040E+02 -0.11644215639E+03  0.34087482842E+02  0.15253012754E+03  0.91071124579E+02 0.  0.
         23    2    1    2    0    0 -0.41968489000E+02  0.12414627964E+03 -0.15165343436E+01  0.15918570968E+03  0.90355616714E+02 0.  0.
        -11    1    4    4    0    0 -0.38993086297E+02  0.37182134335E+02  0.35607537122E+02  0.64582262214E+02  0.00000000000E+00 0.  1.
         11    1    4    4    0    0 -0.29754027025E+01  0.86964145305E+02 -0.37124071466E+02  0.94603447464E+02  0.00000000000E+00 0. -1.
        -13    1    3    3    0    0 -0.34001301519E+02 -0.50716557836E+02 -0.49802188861E+01  0.61262225913E+02  0.00000000000E+00 0.  1.
         13    1    3    3    0    0  0.49836635559E+02 -0.65725598553E+02  0.39067701729E+02  0.91267901626E+02  0.00000000000E+00 0. -1.
         -1    1    1    2    0  502  0.26133154959E+02 -0.77041232524E+01 -0.78940064300E+02  0.83509454883E+02  0.00000000000E+00 0.  1.
<scales pt_clust_5="13000.00000" pt_clust_6="13000.00000" pt_clust_7="13000.00000" pt_clust_8="13000.00000" pt_clust_9="27.24510"></scales>
<clustering>
<clus scale="   27.245">  2  9  1 -1</clus>
<clus scale="   90.356">  5  6 -1 -1</clus>
<clus scale="   91.071">  7  8 -1 -1</clus>
<clus scale="  152.380">  2  5  1 -1</clus>
<clus scale="   27.245">  2  5  1 -1</clus>
</clustering>
</event>
<event>
 9    1  0.1321469E-005  0.1127725E+03  0.7546771E-02  0.1256778E+00
          1   -1    0    0  502    0 -0.00000000000E+00  0.00000000000E+00  0.31918326363E+03  0.31918326363E+03  0.00000000000E+00 0. -1.
         21   -1    0    0  501  502  0.00000000000E+00 -0.00000000000E+00 -0.16349441132E+03  0.16349441132E+03  0.00000000000E+00 0. -1.
         23    2    1    2    0    0 -0.43203935928E+01 -0.56830453653E+02  0.14064253680E+03  0.17860632955E+03  0.94188807914E+02 0.  0.
         23    2    1    2    0    0  0.25996473076E+02  0.63930628004E+02  0.13797912460E+03  0.17904038745E+03  0.90853066562E+02 0.  0.
        -11    1    4    4    0    0 -0.25947188083E+02 -0.57803931883E+01  0.25066414008E+02  0.36537578273E+02  0.00000000000E+00 0. -1.
         11    1    4    4    0    0  0.51943661159E+02  0.69711021192E+02  0.11291271059E+03  0.14250280917E+03  0.00000000000E+00 0.  1.
        -13    1    3    3    0    0  0.25901719615E+02  0.13383896050E+02  0.18545262953E+02  0.34553647137E+02  0.00000000000E+00 0.  1.
         13    1    3    3    0    0 -0.30222113207E+02 -0.70214349702E+02  0.12209727385E+03  0.14405268242E+03  0.00000000000E+00 0. -1.
          1    1    1    2  501    0 -0.21676079483E+02 -0.71001743510E+01 -0.12293280908E+03  0.12503095795E+03  0.00000000000E+00 0. -1.
<scales pt_clust_5="13000.00000" pt_clust_6="13000.00000" pt_clust_7="13000.00000" pt_clust_8="13000.00000" pt_clust_9="22.80932"></scales>
<clustering>
<clus scale="   22.809">  2  9  1 -1</clus>
<clus scale="   90.853">  5  6 -1 -1</clus>
<clus scale="   94.189">  7  8 -1 -1</clus>
<clus scale="  110.002">  2  5  1 -1</clus>
<clus scale="   22.809">  2  5  1 -1</clus>
</clustering>
</event>
<event>
 9    1  0.1321469E-005  0.1122832E+03  0.7546771E-02  0.1257076E+00
          1   -1    0    0  502    0 -0.00000000000E+00  0.00000000000E+00  0.32280537046E+03  0.32280537046E+03  0.00000000000E+00 0. -1.
         21   -1    0    0  501  502  0.00000000000E+00 -0.00000000000E+00 -0.12009611041E+03  0.12009611041E+03  0.00000000000E+00 0. -1.
         23    2    1    2    0    0 -0.33782676153E+02 -0.53328545756E+02  0.20744868834E+03  0.23474708076E+03  0.89922358904E+02 0.  0.
         23    2    1    2    0    0  0.80242312999E+02  0.25136866603E+02  0.47079769161E+02  0.13306446833E+03  0.91754875675E+02 0.  0.
        -11    1    4    4    0    0  0.53233872076E+02 -0.77516126136E+01 -0.16755128879E+02  0.56344183178E+02  0.00000000000E+00 0.  1.
         11    1    4    4    0    0  0.27008440924E+02  0.32888479217E+02  0.63834898040E+02  0.76720285154E+02  0.00000000000E+00 0. -1.
        -13    1    3    3    0    0 -0.30850364670E+02  0.33929892050E+01  0.15282815666E+03  0.15594775678E+03  0.00000000000E+00 0. -1.
         13    1    3    3    0    0 -0.29323114832E+01 -0.56721534961E+02  0.54620531681E+02  0.78799323982E+02  0.00000000000E+00 0.  1.
          1    1    1    2  501    0 -0.46459636847E+02  0.28191679153E+02 -0.51819197451E+02  0.75089931774E+02  0.00000000000E+00 0. -1.
<scales pt_clust_5="13000.00000" pt_clust_6="13000.00000" pt_clust_7="13000.00000" pt_clust_8="13000.00000" pt_clust_9="54.34398"></scales>
<clustering>
<clus scale="   54.344">  2  9  1 -1</clus>
<clus scale="   89.922">  7  8 -1 -1</clus>
<clus scale="   91.755">  5  6 -1 -1</clus>
<clus scale="  110.791">  1  7  2 -1</clus>
<clus scale="   54.344">  2  5  1 -1</clus>
</clustering>
</event>
<event>
 9    1  0.1321469E-005  0.1001941E+03  0.7546771E-02  0.1282894E+00
         -2   -1    0    0    0  501 -0.00000000000E+00  0.00000000000E+00  0.74859352242E+02  0.74859352242E+02  0.00000000000E+00 0.  1.
         21   -1    0    0  501  502  0.00000000000E+00 -0.00000000000E+00 -0.24959103863E+03  0.24959103863E+03  0.00000000000E+00 0. -1.
         23    2    1    2    0    0 -0.48441606636E+02 -0.21809599317E+01  0.17899748240E+02  0.98572398663E+02  0.83933133812E+02 0.  0.
         23    2    1    2    0    0  0.25188588177E+02  0.32204122214E+01 -0.14139690215E+03  0.16960401379E+03  0.90153211411E+02 0.  0.
        -13    1    3    3    0    0 -0.14826651625E+02  0.25809982222E+02  0.39763100742E+02  0.49669799288E+02  0.00000000000E+00 0.  1.
         13    1    3    3    0    0 -0.33614955011E+02 -0.27990942154E+02 -0.21863352501E+02  0.48902599375E+02  0.00000000000E+00 0. -1.
        -13    1    4    4    0    0 -0.27375429795E+02  0.24616680431E+02 -0.51959322506E+02  0.63680187714E+02  0.00000000000E+00 0.  1.
         13    1    4    4    0    0  0.52564017972E+02 -0.21396268210E+02 -0.89437579641E+02  0.10592382608E+03  0.00000000000E+00 0. -1.
         -2    1    1    2    0  502  0.23253018459E+02 -0.10394522897E+01 -0.51234532480E+02  0.56273978418E+02  0.00000000000E+00 0.  1.
<scales pt_clust_5="13000.00000" pt_clust_6="13000.00000" pt_clust_7="13000.00000" pt_clust_8="13000.00000" pt_clust_9="23.27624"></scales>
<clustering>
<clus scale="   23.276">  2  9  1 -1</clus>
<clus scale="   83.933">  5  6 -1 -1</clus>
<clus scale="   90.153">  7  8 -1 -1</clus>
<clus scale="   94.636">  1  5  2 -1</clus>
<clus scale="   23.276">  2  5  1 -1</clus>
</clustering>
</event>
<event>
 9    1  0.1321469E-005  0.9841654E+02  0.7546771E-02  0.1284705E+00
         -2   -1    0    0    0  501 -0.00000000000E+00  0.00000000000E+00  0.33460177059E+03  0.33460177059E+03  0.00000000000E+00 0.  1.
         21   -1    0    0  501  502  0.00000000000E+00 -0.00000000000E+00 -0.73676663495E+02  0.73676663495E+02  0.00000000000E+00 0.  1.
         23    2    1    2    0    0  0.15480410331E+02  0.37683983891E+02  0.21498823475E+03  0.23598212537E+03  0.88362303413E+02 0.  0.
         23    2    1    2    0    0  0.10837125576E+02 -0.38926485536E+02  0.81325550974E+02  0.12817698096E+03  0.90458712355E+02 0.  0.
        -11    1    4    4    0    0  0.40456404945E+01 -0.67960218489E+02  0.47102682261E+02  0.82786600246E+02  0.00000000000E+00 0.  1.
         11    1    4    4    0    0  0.67914850819E+01  0.29033732953E+02  0.34222868713E+02  0.45390380718E+02  0.00000000000E+00 0. -1.
        -11    1    3    3    0    0 -0.24407206366E+02  0.48785989649E+02  0.10243058405E+03  0.11605088995E+03  0.00000000000E+00 0. -1.
         11    1    3    3    0    0  0.39887616697E+02 -0.11102005758E+02  0.11255765070E+03  0.11993123542E+03  0.00000000000E+00 0.  1.
         -2    1    1    2    0  502 -0.26317535908E+02  0.12425016455E+01 -0.35388678629E+02  0.44119327757E+02  0.00000000000E+00 0.  1.
<scales pt_clust_5="13000.00000" pt_clust_6="13000.00000" pt_clust_7="13000.00000" pt_clust_8="13000.00000" pt_clust_9="26.34685"></scales>
<clustering>
<clus scale="   26.347">  2  9  1 -1</clus>
<clus scale="   88.362">  7  8 -1 -1</clus>
<clus scale="   90.459">  5  6 -1 -1</clus>
<clus scale="   96.493">  1  7  2 -1</clus>
<clus scale="   26.347">  2  5  1 -1</clus>
</clustering>
</event>
<event>
 9    1  0.1321469E-005  0.1392325E+03  0.7546771E-02  0.1232224E+00
         21   -1    0    0  501  502  0.00000000000E+00  0.00000000000E+00  0.16768371680E+03  0.16768371680E+03  0.00000000000E+00 0.  1.
         -2   -1    0    0    0  501 -0.00000000000E+00 -0.00000000000E+00 -0.23799895915E+03  0.23799895915E+03  0.00000000000E+00 0.  1.
         23    2    1    2    0    0 -0.37935785731E+01 -0.26614165486E+02  0.74553859240E+02  0.12146304460E+03  0.92045033726E+02 0.  0.
         23    2    1    2    0    0  0.55045252871E+02 -0.73834057524E+02 -0.74374331449E+02  0.15123056322E+03  0.94115323717E+02 0.  0.
        -11    1    3    3    0    0  0.35519210493E+02 -0.11070862082E+02  0.69573824476E+02  0.78896738548E+02  0.00000000000E+00 0.  1.
         11    1    3    3    0    0 -0.39312789066E+02 -0.15543303404E+02  0.49800347644E+01  0.42566306055E+02  0.00000000000E+00 0. -1.
        -13    1    4    4    0    0  0.64355388275E+02 -0.11260561657E+02 -0.21494355674E+02  0.68778074811E+02  0.00000000000E+00 0. -1.
         13    1    4    4    0    0 -0.93101354047E+01 -0.62573495867E+02 -0.52879975775E+02  0.82452488405E+02  0.00000000000E+00 0.  1.
         -2    1    1    2    0  502 -0.51251674297E+02  0.10044822301E+03 -0.70494770144E+02  0.13298906813E+03  0.00000000000E+00 0.  1.
<scales pt_clust_5="13000.00000" pt_clust_6="13000.00000" pt_clust_7="13000.00000" pt_clust_8="13000.00000" pt_clust_9="102.60602"></scales>
<clustering>
<clus scale="   92.045">  5  6 -1 -1</clus>
<clus scale="   94.115">  7  8 -1 -1</clus>
<clus scale="   95.891">  2  5  1 -1</clus>
<clus scale="  102.606">  1  9  2 -1</clus>
<clus scale="  102.606">  1  5  2 -1</clus>
</clustering>
</event>
<event>
 9    1  0.1321469E-005  0.1297777E+03  0.7546771E-02  0.1232104E+00
         21   -1    0    0  501  502  0.00000000000E+00  0.00000000000E+00  0.45488822248E+02  0.45488822248E+02  0.00000000000E+00 0.  1.
          2   -1    0    0  502    0 -0.00000000000E+00 -0.00000000000E+00 -0.55623383769E+03  0.55623383769E+03  0.00000000000E+00 0. -1.
         23    2    1    2    0    0 -0.18096783350E+02  0.78166482391E+02 -0.27295637050E+03  0.29867712577E+03  0.90913985315E+02 0.  0.
         23    2    1    2    0    0 -0.10290729008E+02 -0.69722828415E+02 -0.97476395415E+02  0.15964165166E+03  0.10496017043E+03 0.  0.
        -11    1    3    3    0    0 -0.14349769242E+02  0.19171621951E+02 -0.52422455852E+01  0.24514242887E+02  0.00000000000E+00 0.  1.
         11    1    3    3    0    0 -0.37470141083E+01  0.58994860440E+02 -0.26771412491E+03  0.27416288288E+03  0.00000000000E+00 0. -1.
        -11    1    4    4    0    0  0.43035461837E+02 -0.24886803838E+02 -0.67414668439E+02  0.83762411029E+02  0.00000000000E+00 0. -1.
         11    1    4    4    0    0 -0.53326190844E+02 -0.44836024578E+02 -0.30061726976E+02  0.75879240631E+02  0.00000000000E+00 0.  1.
          2    1    1    2  501    0  0.28387512358E+02 -0.84436539760E+01 -0.14031224953E+03  0.14340388250E+03  0.00000000000E+00 0. -1.
<scales pt_clust_5="13000.00000" pt_clust_6="13000.00000" pt_clust_7="13000.00000" pt_clust_8="13000.00000" pt_clust_9="29.61667"></scales>
<clustering>
<clus scale="   29.617">  1  9  2 -1</clus>
<clus scale="   90.914">  5  6 -1 -1</clus>
<clus scale="  104.960">  7  8 -1 -1</clus>
<clus scale="  118.705">  2  5  1 -1</clus>
<clus scale="   29.617">  1  5  2 -1</clus>
</clustering>
</event>
<event>
 9    1  0.1321469E-005  0.1210004E+03  0.7546771E-02  0.1241999E+00
         21   -1    0    0  501  502  0.00000000000E+00  0.00000000000E+00  0.87086167701E+02  0.87086167701E+02  0.00000000000E+00 0. -1.
          3   -1    0    0  502    0 -0.00000000000E+00 -0.00000000000E+00 -0.37225508581E+03  0.37225508581E+03  0.00000000000E+00 0. -1.
         23    2    1    2    0    0 -0.93366824900E+02  0.17222841106E+01 -0.24770658289E+03  0.28021009455E+03  0.91863026433E+02 0.  0.
         23    2    1    2    0    0  0.44755926436E+02 -0.36528761044E+02 -0.49842548599E+02  0.11807561073E+03  0.90111746536E+02 0.  0.
        -11    1    4    4    0    0  0.32251105499E+02  0.20136793912E+02  0.48563242799E+01  0.38330251245E+02  0.00000000000E+00 0.  1.
         11    1    4    4    0    0  0.12504820936E+02 -0.56665554956E+02 -0.54698872879E+02  0.79745359484E+02  0.00000000000E+00 0. -1.
        -13    1    3    3    0    0 -0.46381816392E+02  0.38707265336E+02 -0.68714449796E+02  0.91494266992E+02  0.00000000000E+00 0.  1.
         13    1    3    3    0    0 -0.46985008508E+02 -0.36984981226E+02 -0.17899213310E+03  0.18871582756E+03  0.00000000000E+00 0. -1.
          3    1    1    2  501    0  0.48610898464E+02  0.34806476933E+02  0.12380213385E+02  0.61055548228E+02  0.00000000000E+00 0. -1.
<scales pt_clust_5="13000.00000" pt_clust_6="13000.00000" pt_clust_7="13000.00000" pt_clust_8="13000.00000" pt_clust_9="59.78721"></scales>
<clustering>
<clus scale="   59.787">  1  9  2 -1</clus>
<clus scale="   90.112">  5  6 -1 -1</clus>
<clus scale="   91.863">  7  8 -1 -1</clus>
<clus scale="  119.676">  1  5  2 -1</clus>
<clus scale="   59.787">  1  5  2 -1</clus>
</clustering>
</event>
<event>
 9    1  0.1321469E-005  0.1762290E+03  0.7546771E-02  0.1184688E+00
         21   -1    0    0  501  502  0.00000000000E+00  0.00000000000E+00  0.75324205211E+02  0.75324205211E+02  0.00000000000E+00 0. -1.
          2   -1    0    0  502    0 -0.00000000000E+00 -0.00000000000E+00 -0.87286344301E+03  0.87286344301E+03  0.00000000000E+00 0. -1.
         23    2    1    2    0    0  0.44341814437E+02 -0.81269455723E+02 -0.30790579957E+03  0.33457502004E+03  0.92539406112E+02 0.  0.
         23    2    1    2    0    0  0.31532856874E+02  0.19692316949E+03 -0.37423486295E+03  0.43347496296E+03  0.89865205312E+02 0.  0.
        -11    1    4    4    0    0 -0.30053387886E+02  0.53344886071E+02 -0.12747057371E+03  0.14141297732E+03  0.00000000000E+00 0. -1.
         11    1    4    4    0    0  0.61586244760E+02  0.14357828342E+03 -0.24676428924E+03  0.29206198564E+03  0.00000000000E+00 0.  1.
        -13    1    3    3    0    0 -0.27743503718E+02 -0.16745715825E+02 -0.10302152237E+03  0.10799794011E+03  0.00000000000E+00 0.  1.
         13    1    3    3    0    0  0.72085318155E+02 -0.64523739899E+02 -0.20488427720E+03  0.22657707993E+03  0.00000000000E+00 0. -1.
          2    1    1    2  501    0 -0.75874671311E+02 -0.11565371377E+03 -0.11539857528E+03  0.18013766522E+03  0.00000000000E+00 0. -1.
<scales pt_clust_5="13000.00000" pt_clust_6="13000.00000" pt_clust_7="13000.00000" pt_clust_8="13000.00000" pt_clust_9="151.59460"></scales>
<clustering>
<clus scale="   89.865">  5  6 -1 -1</clus>
<clus scale="   92.539">  7  8 -1 -1</clus>
<clus scale="  130.899">  2  7  1 -1</clus>
<clus scale="  151.595">  1  9  2 -1</clus>
<clus scale="  151.595">  1  5  2 -1</clus>
</clustering>
</event>
<event>
 9    1  0.1321469E-005  0.1075210E+03  0.7546771E-02  0.1265963E+00
          1   -1    0    0  502    0 -0.00000000000E+00  0.00000000000E+00  0.71805289491E+02  0.71805289491E+02  0.00000000000E+00 0. -1.
         21   -1    0    0  501  502  0.00000000000E+00 -0.00000000000E+00 -0.36721540838E+03  0.36721540838E+03  0.00000000000E+00 0. -1.
         23    2    1    2    0    0 -0.44300729898E+02 -0.29317204014E+02 -0.29262808279E+01  0.10749008147E+03  0.93399686155E+02 0.  0.
         23    2    1    2    0    0  0.32758886492E+02  0.45895495706E+02 -0.13442451743E+03  0.17218569887E+03  0.91642909379E+02 0.  0.
        -11    1    4    4    0    0  0.23015793994E+02 -0.17465007354E+02 -0.89122912302E+02  0.93689096229E+02  0.00000000000E+00 0.  1.
         11    1    4    4    0    0  0.97430924987E+01  0.63360503060E+02 -0.45301605131E+02  0.78496602646E+02  0.00000000000E+00 0. -1.
        -11    1    3    3    0    0 -0.30496382256E+02  0.32231619798E+02 -0.12289479490E+01  0.44389378894E+02  0.00000000000E+00 0. -1.
         11    1    3    3    0    0 -0.13804347642E+02 -0.61548823812E+02 -0.16973328789E+01  0.63100702575E+02  0.00000000000E+00 0.  1.
          1    1    1    2  501    0  0.11541843406E+02 -0.16578291692E+02 -0.15805932063E+03  0.15934491753E+03  0.00000000000E+00 0. -1.
<scales pt_clust_5="13000.00000" pt_clust_6="13000.00000" pt_clust_7="13000.00000" pt_clust_8="13000.00000" pt_clust_9="20.20034"></scales>
<clustering>
<clus scale="   20.200">  2  9  1 -1</clus>
<clus scale="   91.643">  5  6 -1 -1</clus>
<clus scale="   93.400">  7  8 -1 -1</clus>
<clus scale="  105.999">  2  5  1 -1</clus>
<clus scale="   20.200">  2  5  1 -1</clus>
</clustering>
</event>
<event>
 9    1  0.1321469E-005  0.1229785E+03  0.7546771E-02  0.1238473E+00
          1   -1    0    0  502    0 -0.00000000000E+00  0.00000000000E+00  0.20956291446E+03  0.20956291446E+03  0.00000000000E+00 0. -1.
         21   -1    0    0  501  502  0.00000000000E+00 -0.00000000000E+00 -0.17332059957E+03  0.17332059957E+03  0.00000000000E+00 0. -1.
         23    2    1    2    0    0 -0.57372744599E+02 -0.49813868252E+02  0.12577986444E+03  0.17332114391E+03  0.91905339000E+02 0.  0.
         23    2    1    2    0    0  0.74303696674E+02  0.85877888889E+02 -0.86969364829E+02  0.16963911505E+03  0.91201468174E+02 0.  0.
        -11    1    3    3    0    0 -0.26507013955E+02  0.13833663931E+02  0.10367064236E+01  0.29917667135E+02  0.00000000000E+00 0.  1.
         11    1    3    3    0    0 -0.30865730644E+02 -0.63647532183E+02  0.12474315801E+03  0.14340347678E+03  0.00000000000E+00 0. -1.
        -13    1    4    4    0    0  0.35741695665E+02  0.12326211387E+02  0.12720059544E+02  0.39889901115E+02  0.00000000000E+00 0.  1.
         13    1    4    4    0    0  0.38562001010E+02  0.73551677502E+02 -0.99689424373E+02  0.12974921394E+03  0.00000000000E+00 0. -1.
          1    1    1    2  501    0 -0.16930952075E+02 -0.36064020636E+02 -0.25681847194E+01  0.39923255070E+02  0.00000000000E+00 0. -1.
<scales pt_clust_5="13000.00000" pt_clust_6="13000.00000" pt_clust_7="13000.00000" pt_clust_8="13000.00000" pt_clust_9="39.84057"></scales>
<clustering>
<clus scale="   39.841">  2  9  1 -1</clus>
<clus scale="   91.201">  7  8 -1 -1</clus>
<clus scale="   91.905">  5  6 -1 -1</clus>
<clus scale="  122.453">  2  7  1 -1</clus>
<clus scale="   39.841">  2  5  1 -1</clus>
</clustering>
</event>
<event>
 9    1  0.1321469E-005  0.9953994E+02  0.7546771E-02  0.1281973E+00
         21   -1    0    0  501  502  0.00000000000E+00  0.00000000000E+00  0.38880513572E+02  0.38880513572E+02  0.00000000000E+00 0.  1.
          4   -1    0    0  502    0 -0.00000000000E+00 -0.00000000000E+00 -0.64323433288E+03  0.64323433288E+03  0.00000000000E+00 0. -1.
         23    2    1    2    0    0 -0.21804402240E+02 -0.59114341970E+00 -0.29199808975E+03  0.30662192696E+03  0.90985384902E+02 0.  0.
         23    2    1    2    0    0  0.58621316384E+02  0.69901452825E+02 -0.19046954345E+03  0.23052517646E+03  0.92415032099E+02 0.  0.
        -11    1    3    3    0    0  0.34061904079E+02  0.45950031554E+00 -0.15436356703E+03  0.15807762421E+03  0.00000000000E+00 0.  1.
         11    1    3    3    0    0 -0.55866306319E+02 -0.10506437352E+01 -0.13763452272E+03  0.14854430275E+03  0.00000000000E+00 0. -1.
        -11    1    4    4    0    0  0.53952684239E+02  0.91910166852E+02 -0.14688241919E+03  0.18147400909E+03  0.00000000000E+00 0.  1.
         11    1    4    4    0    0  0.46686321443E+01 -0.22008714027E+02 -0.43587124259E+02  0.49051167370E+02  0.00000000000E+00 0. -1.
          4    1    1    2  501    0 -0.36816914144E+02 -0.69310309406E+02 -0.12188618611E+03  0.14496774303E+03  0.00000000000E+00 0. -1.
<scales pt_clust_5="13000.00000" pt_clust_6="13000.00000" pt_clust_7="13000.00000" pt_clust_8="13000.00000" pt_clust_9="78.48187"></scales>
<clustering>
<clus scale="   78.482">  1  9  2 -1</clus>
<clus scale="   90.985">  5  6 -1 -1</clus>
<clus scale="   92.415">  7  8 -1 -1</clus>
<clus scale="   98.214">  2  5  1 -1</clus>
<clus scale="   78.482">  1  5  2 -1</clus>
</clustering>
</event>
<event>
 9    1  0.1321469E-005  0.1722087E+03  0.7546771E-02  0.1179549E+00
         21   -1    0    0  501  502  0.00000000000E+00  0.00000000000E+00  0.32464258253E+03  0.32464258253E+03  0.00000000000E+00 0. -1.
          2   -1    0    0  502    0 -0.00000000000E+00 -0.00000000000E+00 -0.13656907410E+03  0.13656907410E+03  0.00000000000E+00 0. -1.
         23    2    1    2    0    0 -0.12319929780E+03  0.67962640433E+02  0.74822486395E+01  0.18273078809E+03  0.11635106102E+03 0.  0.
         23    2    1    2    0    0  0.11084403146E+03 -0.20465093634E+02  0.80136269906E+02  0.16667803069E+03  0.93029698445E+02 0.  0.
        -11    1    4    4    0    0  0.23694094056E+01  0.27269745950E+02  0.11211327048E+02  0.29579503026E+02  0.00000000000E+00 0. -1.
         11    1    4    4    0    0  0.10847462205E+03 -0.47734839584E+02  0.68924942858E+02  0.13709852766E+03  0.00000000000E+00 0.  1.
        -13    1    3    3    0    0 -0.12972838689E+01 -0.26272726905E+02  0.11240520789E+02  0.28605741243E+02  0.00000000000E+00 0.  1.
         13    1    3    3    0    0 -0.12190201393E+03  0.94235367337E+02 -0.37582721499E+01  0.15412504685E+03  0.00000000000E+00 0. -1.
          2    1    1    2  501    0  0.12355266338E+02 -0.47497546798E+02  0.10045498988E+03  0.11180283785E+03  0.00000000000E+00 0. -1.
<scales pt_clust_5="13000.00000" pt_clust_6="13000.00000" pt_clust_7="13000.00000" pt_clust_8="13000.00000" pt_clust_9="49.07820"></scales>
<clustering>
<clus scale="   49.078">  1  9  2 -1</clus>
<clus scale="   93.030">  5  6 -1 -1</clus>
<clus scale="  116.351">  7  8 -1 -1</clus>
<clus scale="  157.394">  1  5  2 -1</clus>
<clus scale="   49.078">  1  5  2 -1</clus>
</clustering>
</event>
<event>
 9    1  0.1321469E-005  0.2429823E+03  0.7546771E-02  0.1150290E+00
         21   -1    0    0  501  502  0.00000000000E+00  0.00000000000E+00  0.13447126860E+03  0.13447126860E+03  0.00000000000E+00 0. -1.
          1   -1    0    0  502    0 -0.00000000000E+00 -0.00000000000E+00 -0.89835584448E+03  0.89835584448E+03  0.00000000000E+00 0. -1.
         23    2    1    2    0    0 -0.38557275610E+02 -0.53618336900E+02 -0.43959706435E+03  0.45317136261E+03  0.88074487478E+02 0.  0.
         23    2    1    2    0    0  0.21007741835E+03  0.13674861351E+03 -0.99988667506E+02  0.28530940059E+03  0.92579778778E+02 0.  0.
        -11    1    3    3    0    0  0.27270839859E+02 -0.25182841305E+02 -0.18395803988E+03  0.18766575244E+03  0.00000000000E+00 0.  1.
         11    1    3    3    0    0 -0.65828115469E+02 -0.28435495595E+02 -0.25563902448E+03  0.26550561017E+03  0.00000000000E+00 0. -1.
        -13    1    4    4    0    0  0.21195926347E+03  0.11642980651E+03 -0.75309596055E+02  0.25328672384E+03  0.00000000000E+00 0. -1.
         13    1    4    4    0    0 -0.18818451156E+01  0.20318807002E+02 -0.24679071452E+02  0.32022676758E+02  0.00000000000E+00 0.  1.
          1    1    1    2  501    0 -0.17152014274E+03 -0.83130276613E+02 -0.22429884402E+03  0.29434634988E+03  0.00000000000E+00 0. -1.
<scales pt_clust_5="13000.00000" pt_clust_6="13000.00000" pt_clust_7="13000.00000" pt_clust_8="13000.00000" pt_clust_9="224.65407"></scales>
<clustering>
<clus scale="   88.074">  5  6 -1 -1</clus>
<clus scale="   92.580">  7  8 -1 -1</clus>
<clus scale="  110.085">  2  5  1 -1</clus>
<clus scale="  224.654">  1  9  2 -1</clus>
<clus scale="  224.654">  1  5  2 -1</clus>
</clustering>
</event>
<event>
 9    1  0.1321469E-005  0.9836580E+02  0.7546771E-02  0.1287231E+00
         -3   -1    0    0    0  501 -0.00000000000E+00  0.00000000000E+00  0.29966471815E+03  0.29966471815E+03  0.00000000000E+00 0.  1.
         21   -1    0    0  501  502  0.00000000000E+00 -0.00000000000E+00 -0.53141573641E+02  0.53141573641E+02  0.00000000000E+00 0. -1.
         23    2    1    2    0    0 -0.17671207827E+02 -0.28175675686E+02  0.14940249793E+03  0.17755134488E+03  0.89984628658E+02 0.  0.
         23    2    1    2    0    0  0.38008972270E+02  0.31073129631E+02  0.11347591084E+03  0.14899633745E+03  0.83143880557E+02 0.  0.
        -11    1    4    4    0    0  0.46617414048E+02 -0.42643621139E+00  0.21390570973E+02  0.51292510827E+02  0.00000000000E+00 0. -1.
         11    1    4    4    0    0 -0.86084417783E+01  0.31499565842E+02  0.92085339866E+02  0.97703826621E+02  0.00000000000E+00 0.  1.
        -11    1    3    3    0    0  0.33107776742E+02  0.72145904751E+01  0.48107267053E+02  0.58842878412E+02  0.00000000000E+00 0. -1.
         11    1    3    3    0    0 -0.50778984569E+02 -0.35390266161E+02  0.10129523088E+03  0.11870846647E+03  0.00000000000E+00 0.  1.
         -3    1    1    2    0  502 -0.20337764443E+02 -0.28974539446E+01 -0.16355264260E+02  0.26258609463E+02  0.00000000000E+00 0.  1.
<scales pt_clust_5="13000.00000" pt_clust_6="13000.00000" pt_clust_7="13000.00000" pt_clust_8="13000.00000" pt_clust_9="20.54312"></scales>
<clustering>
<clus scale="   20.543">  2  9  1 -1</clus>
<clus scale="   83.144">  5  6 -1 -1</clus>
<clus scale="   89.985">  7  8 -1 -1</clus>
<clus scale="   92.149">  2  5  1 -1</clus>
<clus scale="   20.543">  2  5  1 -1</clus>
</clustering>
</event>
<event>
 9    1  0.1321469E-005  0.1569354E+03  0.7546771E-02  0.1194373E+00
         21   -1    0    0  501  502  0.00000000000E+00  0.00000000000E+00  0.23843913221E+03  0.23843913221E+03  0.00000000000E+00 0. -1.
          2   -1    0    0  502    0 -0.00000000000E+00 -0.00000000000E+00 -0.28240794856E+03  0.28240794856E+03  0.00000000000E+00 0. -1.
         23    2    1    2    0    0 -0.13595246266E+03  0.12917541592E+02 -0.18327824182E+03  0.24377546375E+03  0.84768082551E+02 0.  0.
         23    2    1    2    0    0  0.91720154782E+02 -0.16175116838E+02  0.39166060560E+01  0.13459942883E+03  0.97095032006E+02 0.  0.
        -11    1    4    4    0    0 -0.16313880376E+02 -0.17018438696E+02 -0.10118032802E+02  0.25654327829E+02  0.00000000000E+00 0. -1.
         11    1    4    4    0    0  0.10803403516E+03  0.84332185770E+00  0.14034638858E+02  0.10894510100E+03  0.00000000000E+00 0.  1.
        -13    1    3    3    0    0 -0.30942701040E+02  0.14641998349E+02 -0.11132067864E+03  0.11646515512E+03  0.00000000000E+00 0.  1.
         13    1    3    3    0    0 -0.10500976162E+03 -0.17244567571E+01 -0.71957563181E+02  0.12731030864E+03  0.00000000000E+00 0. -1.
          2    1    1    2  501    0  0.44232307878E+02  0.32575752457E+01  0.13539281941E+03  0.14247218818E+03  0.00000000000E+00 0. -1.
<scales pt_clust_5="13000.00000" pt_clust_6="13000.00000" pt_clust_7="13000.00000" pt_clust_8="13000.00000" pt_clust_9="44.35210"></scales>
<clustering>
<clus scale="   44.352">  1  9  2 -1</clus>
<clus scale="   84.768">  7  8 -1 -1</clus>
<clus scale="   97.095">  5  6 -1 -1</clus>
<clus scale="  149.622">  2  7  1 -1</clus>
<clus scale="   44.352">  1  5  2 -1</clus>
</clustering>
</event>
<event>
 9    1  0.1321469E-005  0.9935981E+02  0.7546771E-02  0.1282393E+00
         21   -1    0    0  501  502  0.00000000000E+00  0.00000000000E+00  0.40915108608E+03  0.40915108608E+03  0.00000000000E+00 0. -1.
          2   -1    0    0  502    0 -0.00000000000E+00 -0.00000000000E+00 -0.48641489403E+02  0.48641489403E+02  0.00000000000E+00 0. -1.
         23    2    1    2    0    0 -0.75066564866E+00  0.99247031697E+01  0.12582864261E+03  0.15485497082E+03  0.89711490099E+02 0.  0.
         23    2    1    2    0    0  0.17224455555E+02 -0.77008570973E+02  0.16888993607E+03  0.20754321739E+03  0.91232530967E+02 0.  0.
        -11    1    4    4    0    0  0.49342967238E+02 -0.19508623995E+02  0.92886910502E+02  0.10697332831E+03  0.00000000000E+00 0. -1.
         11    1    4    4    0    0 -0.32118511683E+02 -0.57499946978E+02  0.76003025572E+02  0.10056988909E+03  0.00000000000E+00 0.  1.
        -11    1    3    3    0    0  0.23937102061E+02  0.22819855715E+02  0.83358813036E+01  0.34105975826E+02  0.00000000000E+00 0. -1.
         11    1    3    3    0    0 -0.24687767710E+02 -0.12895152545E+02  0.11749276130E+03  0.12074899500E+03  0.00000000000E+00 0.  1.
          2    1    1    2  501    0 -0.16473789906E+02  0.67083867803E+02  0.65791017997E+02  0.95394387269E+02  0.00000000000E+00 0. -1.
<scales pt_clust_5="13000.00000" pt_clust_6="13000.00000" pt_clust_7="13000.00000" pt_clust_8="13000.00000" pt_clust_9="69.07703"></scales>
<clustering>
<clus scale="   69.077">  1  9  2 -1</clus>
<clus scale="   89.711">  7  8 -1 -1</clus>
<clus scale="   91.233">  5  6 -1 -1</clus>
<clus scale="   97.965">  2  7  1 -1</clus>
<clus scale="   69.077">  1  5  2 -1</clus>
</clustering>
</event>
<event>
 9    1  0.1321469E-005  0.1230845E+03  0.7546771E-02  0.1245686E+00
         21   -1    0    0  501  502  0.00000000000E+00  0.00000000000E+00  0.78822986566E+02  0.78822986566E+02  0.00000000000E+00 0.  1.
         -1   -1    0    0    0  501 -0.00000000000E+00 -0.00000000000E+00 -0.32297639367E+03  0.32297639367E+03  0.00000000000E+00 0.  1.
         23    2    1    2    0    0  0.39248111895E+02 -0.26329762346E+02 -0.20195855153E+03  0.23505389427E+03  0.11058664479E+03 0.  0.
         23    2    1    2    0    0 -0.66857515751E+02  0.19577795614E+02 -0.63901416946E+02  0.13098177472E+03  0.90662101932E+02 0.  0.
        -11    1    4    4    0    0 -0.19683501665E+01  0.42026705124E+02 -0.88944610262E+01  0.43002671811E+02  0.00000000000E+00 0. -1.
         11    1    4    4    0    0 -0.64889165584E+02 -0.22448909510E+02 -0.55006955920E+02  0.87979102905E+02  0.00000000000E+00 0.  1.
        -11    1    3    3    0    0 -0.33054142785E+02 -0.33684142519E+02 -0.88943010077E+02  0.10068791811E+03  0.00000000000E+00 0.  1.
         11    1    3    3    0    0  0.72302254680E+02  0.73543801735E+01 -0.11301554145E+03  0.13436597616E+03  0.00000000000E+00 0. -1.
         -1    1    1    2    0  502  0.27609403856E+02  0.67519667317E+01  0.21706561366E+02  0.35763711250E+02  0.00000000000E+00 0.  1.
<scales pt_clust_5="13000.00000" pt_clust_6="13000.00000" pt_clust_7="13000.00000" pt_clust_8="13000.00000" pt_clust_9="28.42302"></scales>
<clustering>
<clus scale="   28.423">  1  9  2 -1</clus>
<clus scale="   90.662">  5  6 -1 -1</clus>
<clus scale="  105.546">  1  5  2 -1</clus>
<clus scale="  110.587">  7  8 -1 -1</clus>
<clus scale="   28.423">  1  5  2 -1</clus>
</clustering>
</event>
<event>
 9    1  0.1321469E-005  0.2528771E+03  0.7546771E-02  0.1113064E+00
          3   -1    0    0  502    0 -0.00000000000E+00  0.00000000000E+00  0.14194406185E+03  0.14194406185E+03  0.00000000000E+00 0. -1.
         21   -1    0    0  501  502  0.00000000000E+00 -0.00000000000E+00 -0.10828208208E+04  0.10828208208E+04  0.00000000000E+00 0. -1.
         23    2    1    2    0    0 -0.16671340293E+03  0.19642017853E+03 -0.28970880011E+03  0.39794618071E+03  0.89753710958E+02 0.  0.
         23    2    1    2    0    0 -0.62787269763E+02 -0.24144838534E+03 -0.38247149323E+03  0.47059420981E+03  0.11373171563E+03 0.  0.
        -13    1    4    4    0    0 -0.15584736486E+02 -0.46807198147E+02 -0.17664532167E+03  0.18340492762E+03  0.00000000000E+00 0.  1.
         13    1    4    4    0    0 -0.47202533276E+02 -0.19464118719E+03 -0.20582617157E+03  0.28718928219E+03  0.00000000000E+00 0. -1.
        -13    1    3    3    0    0 -0.13753892825E+03  0.11038463486E+03 -0.22745633533E+03  0.28781610254E+03  0.00000000000E+00 0. -1.
         13    1    3    3    0    0 -0.29174474688E+02  0.86035543670E+02 -0.62252464773E+02  0.11013007817E+03  0.00000000000E+00 0.  1.
          3    1    1    2  501    0  0.22950067270E+03  0.45028206817E+02 -0.26869646565E+03  0.35622449219E+03  0.00000000000E+00 0. -1.
<scales pt_clust_5="13000.00000" pt_clust_6="13000.00000" pt_clust_7="13000.00000" pt_clust_8="13000.00000" pt_clust_9="233.87636"></scales>
<clustering>
<clus scale="   89.754">  7  8 -1 -1</clus>
<clus scale="  113.732">  5  6 -1 -1</clus>
<clus scale="  233.876">  2  9  1 -1</clus>
<clus scale="  243.038">  1  7  2 -1</clus>
<clus scale="  233.876">  2  5  1 -1</clus>
</clustering>
</event>
<event>
 9    1  0.1321469E-005  0.1057356E+03  0.7546771E-02  0.1268857E+00
         21   -1    0    0  501  502  0.00000000000E+00  0.00000000000E+00  0.23786315566E+03  0.23786315566E+03  0.00000000000E+00 0. -1.
          2   -1    0    0  502    0 -0.00000000000E+00 -0.00000000000E+00 -0.11494777916E+03  0.11494777916E+03  0.00000000000E+00 0. -1.
         23    2    1    2    0    0 -0.59872930518E+02 -0.19881251718E+02 -0.18167696623E+02  0.11212555790E+03  0.90895784032E+02 0.  0.
         23    2    1    2    0    0  0.39428837454E+02  0.16031651042E+02  0.27436140231E+01  0.10079046526E+03  0.91321100578E+02 0.  0.
        -11    1    4    4    0    0 -0.12004384596E+02 -0.29107535427E+02 -0.51523502319E+01  0.31904554237E+02  0.00000000000E+00 0.  1.
         11    1    4    4    0    0  0.51433222050E+02  0.45139186469E+02  0.78959642551E+01  0.68885911020E+02  0.00000000000E+00 0. -1.
        -13    1    3    3    0    0  0.47571330961E+01  0.24113634272E+02 -0.23176274325E+02  0.33782204852E+02  0.00000000000E+00 0. -1.
         13    1    3    3    0    0 -0.64630063614E+02 -0.43994885990E+02  0.50085777016E+01  0.78343353046E+02  0.00000000000E+00 0.  1.
          2    1    1    2  501    0  0.20444093063E+02  0.38496006759E+01  0.13833945910E+03  0.13989491167E+03  0.00000000000E+00 0. -1.
<scales pt_clust_5="13000.00000" pt_clust_6="13000.00000" pt_clust_7="13000.00000" pt_clust_8="13000.00000" pt_clust_9="20.80337"></scales>
<clustering>
<clus scale="   20.803">  1  9  2 -1</clus>
<clus scale="   90.896">  7  8 -1 -1</clus>
<clus scale="   91.321">  5  6 -1 -1</clus>
<clus scale="  105.368">  2  7  1 -1</clus>
<clus scale="   20.803">  1  5  2 -1</clus>
</clustering>
</event>
<event>
 9    1  0.1321469E-005  0.9604436E+02  0.7546771E-02  0.1289323E+00
          2   -1    0    0  502    0 -0.00000000000E+00  0.00000000000E+00  0.49383134642E+03  0.49383134642E+03  0.00000000000E+00 0. -1.
         21   -1    0    0  501  502  0.00000000000E+00 -0.00000000000E+00 -0.12077721290E+03  0.12077721290E+03  0.00000000000E+00 0. -1.
         23    2    1    2    0    0 -0.32119607021E+02  0.24420635890E+02  0.26406789174E+03  0.28254384899E+03  0.92038788250E+02 0.  0.
         23    2    1    2    0    0  0.16038985908E+02 -0.33218504418E+00  0.20866484094E+03  0.22826363630E+03  0.91136778512E+02 0.  0.
        -11    1    4    4    0    0  0.11375659860E+02 -0.36249495208E+02  0.17410418762E+03  0.17820128980E+03  0.00000000000E+00 0. -1.
         11    1    4    4    0    0  0.46633260476E+01  0.35917310164E+02  0.34560653321E+02  0.50062346501E+02  0.00000000000E+00 0.  1.
        -13    1    3    3    0    0 -0.11269141752E+02  0.58674454663E+02  0.14198226174E+03  0.15404105892E+03  0.00000000000E+00 0. -1.
         13    1    3    3    0    0 -0.20850465270E+02 -0.34253818773E+02  0.12208563000E+03  0.12850279007E+03  0.00000000000E+00 0.  1.
          2    1    1    2  501    0  0.16080621114E+02 -0.24088450845E+02 -0.99678599153E+02  0.10380107402E+03  0.00000000000E+00 0. -1.
<scales pt_clust_5="13000.00000" pt_clust_6="13000.00000" pt_clust_7="13000.00000" pt_clust_8="13000.00000" pt_clust_9="28.96273"></scales>
<clustering>
<clus scale="   28.963">  2  9  1 -1</clus>
<clus scale="   91.137">  5  6 -1 -1</clus>
<clus scale="   92.039">  7  8 -1 -1</clus>
<clus scale="   95.180">  2  5  1 -1</clus>
<clus scale="   28.963">  2  5  1 -1</clus>
</clustering>
</event>
<event>
 9    1  0.1321469E-005  0.1007115E+03  0.7546771E-02  0.1279280E+00
         21   -1    0    0  501  502  0.00000000000E+00  0.00000000000E+00  0.95149114259E+02  0.95149114259E+02  0.00000000000E+00 0.  1.
          2   -1    0    0  502    0 -0.00000000000E+00 -0.00000000000E+00 -0.25342760747E+03  0.25342760747E+03  0.00000000000E+00 0. -1.
         23    2    1    2    0    0  0.29010213087E+02 -0.70080856063E+01 -0.14824778354E+03  0.17743186854E+03  0.92811405117E+02 0.  0.
         23    2    1    2    0    0 -0.57358064971E+02  0.27158225638E+02 -0.46343422569E+02  0.12086322665E+03  0.91829678774E+02 0.  0.
        -11    1    4    4    0    0 -0.55608937741E+02  0.63777788454E+01  0.13425201451E+02  0.57560976830E+02  0.00000000000E+00 0.  1.
         11    1    4    4    0    0 -0.17491272302E+01  0.20780446793E+02 -0.59768624020E+02  0.63302249820E+02  0.00000000000E+00 0. -1.
        -13    1    3    3    0    0  0.16846517705E+02 -0.29499396991E+02 -0.80370322265E+01  0.34908644612E+02  0.00000000000E+00 0.  1.
         13    1    3    3    0    0  0.12163695382E+02  0.22491311385E+02 -0.14021075132E+03  0.14252322392E+03  0.00000000000E+00 0. -1.
          2    1    1    2  501    0  0.28347851884E+02 -0.20150140032E+02  0.36312712900E+02  0.50281626544E+02  0.00000000000E+00 0. -1.
<scales pt_clust_5="13000.00000" pt_clust_6="13000.00000" pt_clust_7="13000.00000" pt_clust_8="13000.00000" pt_clust_9="34.77972"></scales>
<clustering>
<clus scale="   34.780">  1  9  2 -1</clus>
<clus scale="   91.830">  5  6 -1 -1</clus>
<clus scale="   92.811">  7  8 -1 -1</clus>
<clus scale="   99.807">  1  5  2 -1</clus>
<clus scale="   34.780">  1  5  2 -1</clus>
</clustering>
</event>
<event>
 9    1  0.1321469E-005  0.1092747E+03  0.7546771E-02  0.1262131E+00
         21   -1    0    0  501  502  0.00000000000E+00  0.00000000000E+00  0.12533895190E+03  0.12533895190E+03  0.00000000000E+00 0. -1.
          4   -1    0    0  502    0 -0.00000000000E+00 -0.00000000000E+00 -0.39457162397E+03  0.39457162397E+03  0.00000000000E+00 0. -1.
         23    2    1    2    0    0  0.61987489047E+02  0.79083790756E+01 -0.34360544144E+03  0.36085967550E+03  0.90829591820E+02 0.  0.
         23    2    1    2    0    0 -0.41495547951E+02 -0.15944546526E+01  0.22409698562E+02  0.10283750321E+03  0.91372505120E+02 0.  0.
        -13    1    4    4    0    0  0.61604077170E+01  0.37409840152E+02  0.20212093066E+01  0.37967513094E+02  0.00000000000E+00 0. -1.
         13    1    4    4    0    0 -0.47655955668E+02 -0.39004294805E+02  0.20388489255E+02  0.64869990119E+02  0.00000000000E+00 0.  1.
        -13    1    3    3    0    0  0.25851927169E+02  0.46199713095E+02 -0.12033988035E+03  0.13147023401E+03  0.00000000000E+00 0. -1.
         13    1    3    3    0    0  0.36135561878E+02 -0.38291334019E+02 -0.22326556110E+03  0.22938944149E+03  0.00000000000E+00 0.  1.
          4    1    1    2  501    0 -0.20491941095E+02 -0.63139244230E+01  0.51963070813E+02  0.56213397156E+02  0.00000000000E+00 0. -1.
<scales pt_clust_5="13000.00000" pt_clust_6="13000.00000" pt_clust_7="13000.00000" pt_clust_8="13000.00000" pt_clust_9="21.44260"></scales>
<clustering>
<clus scale="   21.443">  1  9  2 -1</clus>
<clus scale="   90.830">  7  8 -1 -1</clus>
<clus scale="   91.373">  5  6 -1 -1</clus>
<clus scale="  108.821">  2  7  1 -1</clus>
<clus scale="   21.443">  1  5  2 -1</clus>
</clustering>
</event>
<event>
 9    1  0.1321469E-005  0.1193065E+03  0.7546771E-02  0.1244381E+00
         21   -1    0    0  501  502  0.00000000000E+00  0.00000000000E+00  0.38804226853E+03  0.38804226853E+03  0.00000000000E+00 0. -1.
         -4   -1    0    0    0  501 -0.00000000000E+00 -0.00000000000E+00 -0.58339836523E+02  0.58339836523E+02  0.00000000000E+00 0.  1.
         23    2    1    2    0    0  0.69522959560E+02  0.23657131599E+02  0.71356911742E+02  0.13837364988E+03  0.93071780618E+02 0.  0.
         23    2    1    2    0    0 -0.81507006576E+02  0.38262053411E+01  0.24665336305E+03  0.27582681859E+03  0.92652686864E+02 0.  0.
        -11    1    4    4    0    0 -0.52622172527E+02  0.45292201801E+02  0.17387122660E+03  0.18722093907E+03  0.00000000000E+00 0.  1.
         11    1    4    4    0    0 -0.28884834049E+02 -0.41465996460E+02  0.72782136445E+02  0.88605879523E+02  0.00000000000E+00 0. -1.
        -13    1    3    3    0    0 -0.16941403667E+02  0.21417581139E+02  0.17746066160E+01  0.27365547111E+02  0.00000000000E+00 0.  1.
         13    1    3    3    0    0  0.86464363227E+02  0.22395504596E+01  0.69582305126E+02  0.11100810277E+03  0.00000000000E+00 0. -1.
         -4    1    1    2    0  502  0.11984047016E+02 -0.27483336940E+02  0.11692157212E+02  0.32181636573E+02  0.00000000000E+00 0.  1.
<scales pt_clust_5="13000.00000" pt_clust_6="13000.00000" pt_clust_7="13000.00000" pt_clust_8="13000.00000" pt_clust_9="29.98253"></scales>
<clustering>
<clus scale="   29.983">  1  9  2 -1</clus>
<clus scale="   92.653">  5  6 -1 -1</clus>
<clus scale="   93.072">  7  8 -1 -1</clus>
<clus scale="  118.980">  1  5  2 -1</clus>
<clus scale="   29.983">  1  5  2 -1</clus>
</clustering>
</event>
<event>
 9    1  0.1321469E-005  0.1322284E+03  0.7546771E-02  0.1225108E+00
         21   -1    0    0  501  502  0.00000000000E+00  0.00000000000E+00  0.16435721092E+03  0.16435721092E+03  0.00000000000E+00 0. -1.
          1   -1    0    0  502    0 -0.00000000000E+00 -0.00000000000E+00 -0.39671528069E+03  0.39671528069E+03  0.00000000000E+00 0. -1.
         23    2    1    2    0    0  0.84128767597E+02 -0.22234220309E+02 -0.27417793167E+03  0.30103696863E+03  0.88756454308E+02 0.  0.
         23    2    1    2    0    0 -0.13528579076E+03  0.26767998245E+01 -0.33173739541E+02  0.16717232266E+03  0.92394144981E+02 0.  0.
        -11    1    4    4    0    0 -0.13463028994E+03 -0.19886426538E+02 -0.42756696361E+02  0.14264964077E+03  0.00000000000E+00 0. -1.
         11    1    4    4    0    0 -0.65550082537E+00  0.22563226362E+02  0.95829568201E+01  0.24522681881E+02  0.00000000000E+00 0.  1.
        -13    1    3    3    0    0  0.63019000479E+02 -0.46196234515E+02 -0.24712595752E+03  0.25918473216E+03  0.00000000000E+00 0.  1.
         13    1    3    3    0    0  0.21109767118E+02  0.23962014206E+02 -0.27051974144E+02  0.41852236471E+02  0.00000000000E+00 0. -1.
          1    1    1    2  501    0  0.51157023168E+02  0.19557420485E+02  0.74993601443E+02  0.92863200316E+02  0.00000000000E+00 0. -1.
<scales pt_clust_5="13000.00000" pt_clust_6="13000.00000" pt_clust_7="13000.00000" pt_clust_8="13000.00000" pt_clust_9="54.76800"></scales>
<clustering>
<clus scale="   54.768">  1  9  2 -1</clus>
<clus scale="   88.756">  7  8 -1 -1</clus>
<clus scale="   92.394">  5  6 -1 -1</clus>
<clus scale="  129.713">  2  7  1 -1</clus>
<clus scale="   54.768">  1  5  2 -1</clus>
</clustering>
</event>
<event>
 9    1  0.1321469E-005  0.9851744E+02  0.7546771E-02  0.1285072E+00
          2   -1    0    0  502    0 -0.00000000000E+00  0.00000000000E+00  0.53419394761E+03  0.53419394761E+03  0.00000000000E+00 0. -1.
         21   -1    0    0  501  502  0.00000000000E+00 -0.00000000000E+00 -0.36598860708E+02  0.36598860708E+02  0.00000000000E+00 0.  1.
         23    2    1    2    0    0 -0.38591360256E+02  0.17914056748E+02  0.28433235661E+03  0.30108482097E+03  0.89425801017E+02 0.  0.
         23    2    1    2    0    0  0.43446786505E+02  0.68709010583E+01  0.22266391603E+03  0.24275893187E+03  0.86126923557E+02 0.  0.
        -11    1    3    3    0    0 -0.60153548089E+02  0.30026508493E+02  0.24927297694E+03  0.25818028118E+03  0.00000000000E+00 0.  1.
         11    1    3    3    0    0  0.21562187833E+02 -0.12112451745E+02  0.35059379678E+02  0.42904539793E+02  0.00000000000E+00 0. -1.
        -11    1    4    4    0    0  0.57849234556E+02  0.25547767486E+02  0.20107420363E+03  0.21078438682E+03  0.00000000000E+00 0. -1.
         11    1    4    4    0    0 -0.14402448051E+02 -0.18676866428E+02  0.21589712395E+02  0.31974545043E+02  0.00000000000E+00 0.  1.
          2    1    1    2  501    0 -0.48554262497E+01 -0.24784957806E+02 -0.94011857431E+01  0.26949055473E+02  0.00000000000E+00 0. -1.
<scales pt_clust_5="13000.00000" pt_clust_6="13000.00000" pt_clust_7="13000.00000" pt_clust_8="13000.00000" pt_clust_9="25.25607"></scales>
<clustering>
<clus scale="   25.256">  2  9  1 -1</clus>
<clus scale="   86.127">  7  8 -1 -1</clus>
<clus scale="   89.426">  5  6 -1 -1</clus>
<clus scale="   95.533">  2  7  1 -1</clus>
<clus scale="   25.256">  2  5  1 -1</clus>
</clustering>
</event>
<event>
 9    1  0.1321469E-005  0.1017608E+03  0.7546771E-02  0.1276748E+00
         -1   -1    0    0    0  501 -0.00000000000E+00  0.00000000000E+00  0.22282427139E+03  0.22282427139E+03  0.00000000000E+00 0.  1.
         21   -1    0    0  501  502  0.00000000000E+00 -0.00000000000E+00 -0.76599628378E+02  0.76599628378E+02  0.00000000000E+00 0.  1.
         23    2    1    2    0    0 -0.17738804634E+02  0.34013478955E+02  0.82278617447E+02  0.12750674183E+03  0.89535559321E+02 0.  0.
         23    2    1    2    0    0  0.82277521578E+01 -0.61181728497E+02  0.83642490635E+02  0.13703844468E+03  0.89289245010E+02 0.  0.
        -11    1    3    3    0    0  0.25474505753E+02  0.35987190467E+02  0.69667696614E+02  0.82447657775E+02  0.00000000000E+00 0. -1.
         11    1    3    3    0    0 -0.43213310387E+02 -0.19737115119E+01  0.12610920833E+02  0.45059084056E+02  0.00000000000E+00 0.  1.
        -11    1    4    4    0    0 -0.24574138771E+02 -0.15861317072E+02 -0.74094772103E+01  0.30172338791E+02  0.00000000000E+00 0. -1.
         11    1    4    4    0    0  0.32801890929E+02 -0.45320411425E+02  0.91051967846E+02  0.10686610589E+03  0.00000000000E+00 0.  1.
         -1    1    1    2    0  502  0.95110524758E+01  0.27168249543E+02 -0.19696465065E+02  0.34878713257E+02  0.00000000000E+00 0.  1.
<scales pt_clust_5="13000.00000" pt_clust_6="13000.00000" pt_clust_7="13000.00000" pt_clust_8="13000.00000" pt_clust_9="28.78496"></scales>
<clustering>
<clus scale="   28.785">  2  9  1 -1</clus>
<clus scale="   89.289">  7  8 -1 -1</clus>
<clus scale="   89.536">  5  6 -1 -1</clus>
<clus scale="  101.544">  2  7  1 -1</clus>
<clus scale="   28.785">  2  5  1 -1</clus>
</clustering>
</event>
<event>
 9    1  0.1321469E-005  0.8983016E+02  0.7546771E-02  0.1303374E+00
          2   -1    0    0  502    0 -0.00000000000E+00  0.00000000000E+00  0.42046663530E+03  0.42046663530E+03  0.00000000000E+00 0. -1.
         21   -1    0    0  501  502  0.00000000000E+00 -0.00000000000E+00 -0.50815747006E+02  0.50815747006E+02  0.00000000000E+00 0.  1.
         23    2    1    2    0    0 -0.11574419191E+02  0.11333004374E+02  0.29832793690E+03  0.31163677672E+03  0.88631362960E+02 0.  0.
         23    2    1    2    0    0  0.19382911047E+02  0.11603112077E+02  0.90652281260E+02  0.12865107421E+03  0.88447347877E+02 0.  0.
        -11    1    3    3    0    0 -0.28927414224E+02 -0.28543808069E+02  0.20051269401E+03  0.20458955186E+03  0.00000000000E+00 0. -1.
         11    1    3    3    0    0  0.17352995033E+02  0.39876812443E+02  0.97815242888E+02  0.10704722485E+03  0.00000000000E+00 0.  1.
        -13    1    4    4    0    0  0.33638098988E+02 -0.29151003409E+02  0.28080235617E+02  0.52628911594E+02  0.00000000000E+00 0.  1.
         13    1    4    4    0    0 -0.14255187941E+02  0.40754115486E+02  0.62572045643E+02  0.76022162613E+02  0.00000000000E+00 0. -1.
          2    1    1    2  501    0 -0.78084918556E+01 -0.22936116451E+02 -0.19329329862E+02  0.30994531386E+02  0.00000000000E+00 0. -1.
<scales pt_clust_5="13000.00000" pt_clust_6="13000.00000" pt_clust_7="13000.00000" pt_clust_8="13000.00000" pt_clust_9="24.22887"></scales>
<clustering>
<clus scale="   24.229">  2  9  1 -1</clus>
<clus scale="   88.447">  7  8 -1 -1</clus>
<clus scale="   88.631">  5  6 -1 -1</clus>
<clus scale="   89.649">  2  7  1 -1</clus>
<clus scale="   24.229">  2  5  1 -1</clus>
</clustering>
</event>
<event>
 9    1  0.1321469E-005  0.1105288E+03  0.7546771E-02  0.1260366E+00
         21   -1    0    0  501  502  0.00000000000E+00  0.00000000000E+00  0.26944776962E+03  0.26944776962E+03  0.00000000000E+00 0.  1.
         -1   -1    0    0    0  501 -0.00000000000E+00 -0.00000000000E+00 -0.71158018573E+02  0.71158018573E+02  0.00000000000E+00 0.  1.
         23    2    1    2    0    0 -0.35304013882E+02  0.65890289401E+02  0.27676126519E+02  0.12045745933E+03  0.90311283323E+02 0.  0.
         23    2    1    2    0    0  0.29039020621E+02 -0.37408053166E+02  0.90885539721E+02  0.13525395079E+03  0.88265637219E+02 0.  0.
        -11    1    3    3    0    0 -0.25683870055E+02  0.61126923280E+01 -0.27799824998E+02  0.38338707051E+02  0.00000000000E+00 0.  1.
         11    1    3    3    0    0 -0.96201438271E+01  0.59777597073E+02  0.55475951516E+02  0.82118752278E+02  0.00000000000E+00 0. -1.
        -13    1    4    4    0    0  0.33815667422E+02  0.12235249468E+02  0.55124983650E+01  0.36381153513E+02  0.00000000000E+00 0.  1.
         13    1    4    4    0    0 -0.47766468006E+01 -0.49643302633E+02  0.85373041356E+02  0.98872797277E+02  0.00000000000E+00 0. -1.
         -1    1    1    2    0  502  0.62649932603E+01 -0.28482236236E+02  0.79728084809E+02  0.84894378076E+02  0.00000000000E+00 0.  1.
<scales pt_clust_5="13000.00000" pt_clust_6="13000.00000" pt_clust_7="13000.00000" pt_clust_8="13000.00000" pt_clust_9="29.16313"></scales>
<clustering>
<clus scale="   29.163">  1  9  2 -1</clus>
<clus scale="   88.266">  7  8 -1 -1</clus>
<clus scale="   90.311">  5  6 -1 -1</clus>
<clus scale="  108.864">  1  7  2 -1</clus>
<clus scale="   29.163">  1  5  2 -1</clus>
</clustering>
</event>
<event>
 9    1  0.1321469E-005  0.1929911E+03  0.7546771E-02  0.1156614E+00
          1   -1    0    0  502    0 -0.00000000000E+00  0.00000000000E+00  0.19391581433E+03  0.19391581433E+03  0.00000000000E+00 0. -1.
         21   -1    0    0  501  502  0.00000000000E+00 -0.00000000000E+00 -0.21870755853E+03  0.21870755853E+03  0.00000000000E+00 0. -1.
         23    2    1    2    0    0  0.12105101939E+03  0.95433544539E+02 -0.48947605714E+01  0.18509787174E+03  0.10235405572E+03 0.  0.
         23    2    1    2    0    0 -0.14509514508E+03 -0.98441883237E+02 -0.29034468103E+02  0.20162832552E+03  0.95223819569E+02 0.  0.
        -11    1    4    4    0    0 -0.75932113878E+02 -0.23803600337E+02  0.28749153911E+02  0.84609758052E+02  0.00000000000E+00 0. -1.
         11    1    4    4    0    0 -0.69163031198E+02 -0.74638282900E+02 -0.57783622014E+02  0.11701856747E+03  0.00000000000E+00 0.  1.
        -13    1    3    3    0    0 -0.27398158441E+01  0.42251147855E+02 -0.24546690248E+02  0.48940842739E+02  0.00000000000E+00 0.  1.
         13    1    3    3    0    0  0.12379083524E+03  0.53182396684E+02  0.19651929676E+02  0.13615702900E+03  0.00000000000E+00 0. -1.
          1    1    1    2  501    0  0.24044125684E+02  0.30083386984E+01  0.91374844785E+01  0.25897175603E+02  0.00000000000E+00 0. -1.
<scales pt_clust_5="13000.00000" pt_clust_6="13000.00000" pt_clust_7="13000.00000" pt_clust_8="13000.00000" pt_clust_9="24.23160"></scales>
<clustering>
<clus scale="   24.232">  2  9  1 -1</clus>
<clus scale="   95.224">  5  6 -1 -1</clus>
<clus scale="  102.354">  7  8 -1 -1</clus>
<clus scale="  189.306">  2  5  1 -1</clus>
<clus scale="   24.232">  2  5  1 -1</clus>
</clustering>
</event>
<event>
 9    1  0.1321469E-005  0.1064621E+03  0.7546771E-02  0.1268172E+00
         21   -1    0    0  501  502  0.00000000000E+00  0.00000000000E+00  0.38019002513E+03  0.38019002513E+03  0.00000000000E+00 0.  1.
          3   -1    0    0  502    0 -0.00000000000E+00 -0.00000000000E+00 -0.53653458818E+02  0.53653458818E+02  0.00000000000E+00 0. -1.
         23    2    1    2    0    0 -0.34314503951E+02  0.51479148757E+02  0.46573723317E+02  0.11932224349E+03  0.90780494327E+02 0.  0.
         23    2    1    2    0    0  0.93598090506E+01 -0.33155550214E+02  0.14220164427E+03  0.17332407712E+03  0.92914108399E+02 0.  0.
        -11    1    4    4    0    0  0.28773427627E+02 -0.27901258994E+02  0.14723417494E+03  0.15259191545E+03  0.00000000000E+00 0.  1.
         11    1    4    4    0    0 -0.19413618576E+02 -0.52542912201E+01 -0.50325306674E+01  0.20732161667E+02  0.00000000000E+00 0. -1.
        -11    1    3    3    0    0  0.51274528549E+01  0.67049969148E+02  0.32113824496E+02  0.74520378819E+02  0.00000000000E+00 0. -1.
         11    1    3    3    0    0 -0.39441956806E+02 -0.15570820391E+02  0.14459898821E+02  0.44801864674E+02  0.00000000000E+00 0.  1.
          3    1    1    2  501    0  0.24954694901E+02 -0.18323598544E+02  0.13776119872E+03  0.14119716334E+03  0.00000000000E+00 0. -1.
<scales pt_clust_5="13000.00000" pt_clust_6="13000.00000" pt_clust_7="13000.00000" pt_clust_8="13000.00000" pt_clust_9="30.95951"></scales>
<clustering>
<clus scale="   30.960">  1  9  2 -1</clus>
<clus scale="   90.780">  7  8 -1 -1</clus>
<clus scale="   92.914">  5  6 -1 -1</clus>
<clus scale="  104.605">  2  7  1 -1</clus>
<clus scale="   30.960">  1  5  2 -1</clus>
</clustering>
</event>
<event>
 9    1  0.1321469E-005  0.2393697E+03  0.7546771E-02  0.1120482E+00
          2   -1    0    0  502    0 -0.00000000000E+00  0.00000000000E+00  0.97667321524E+03  0.97667321524E+03  0.00000000000E+00 0. -1.
         21   -1    0    0  501  502  0.00000000000E+00 -0.00000000000E+00 -0.95253263308E+02  0.95253263308E+02  0.00000000000E+00 0.  1.
         23    2    1    2    0    0  0.25418040086E+03 -0.23676668352E+02  0.57235619679E+03  0.63346735908E+03  0.92309361494E+02 0.  0.
         23    2    1    2    0    0 -0.18119239413E+03 -0.40147585137E+02  0.25498575943E+03  0.32744013875E+03  0.88072666967E+02 0.  0.
        -11    1    3    3    0    0  0.23916578982E+03 -0.38194854504E+02  0.55750065206E+03  0.60783723067E+03  0.00000000000E+00 0. -1.
         11    1    3    3    0    0  0.15014611036E+02  0.14518186152E+02  0.14855544724E+02  0.25630128419E+02  0.00000000000E+00 0.  1.
        -13    1    4    4    0    0 -0.15439343460E+03 -0.47239708950E+02  0.15549618755E+03  0.22416062788E+03  0.00000000000E+00 0.  1.
         13    1    4    4    0    0 -0.26798959535E+02  0.70921238131E+01  0.99489571879E+02  0.10327951087E+03  0.00000000000E+00 0. -1.
          2    1    1    2  501    0 -0.72988006722E+02  0.63824253488E+02  0.54077995710E+02  0.11101898071E+03  0.00000000000E+00 0. -1.
<scales pt_clust_5="13000.00000" pt_clust_6="13000.00000" pt_clust_7="13000.00000" pt_clust_8="13000.00000" pt_clust_9="96.95764"></scales>
<clustering>
<clus scale="   88.073">  7  8 -1 -1</clus>
<clus scale="   92.309">  5  6 -1 -1</clus>
<clus scale="   96.958">  2  9  1 -1</clus>
<clus scale="  237.768">  2  7  1 -1</clus>
<clus scale="   96.958">  2  5  1 -1</clus>
</clustering>
</event>
<event>
 9    1  0.1321469E-005  0.1036234E+03  0.7546771E-02  0.1272929E+00
          1   -1    0    0  502    0 -0.00000000000E+00  0.00000000000E+00  0.20937225892E+03  0.20937225892E+03  0.00000000000E+00 0. -1.
         21   -1    0    0  501  502  0.00000000000E+00 -0.00000000000E+00 -0.16111520607E+03  0.16111520607E+03  0.00000000000E+00 0. -1.
         23    2    1    2    0    0 -0.20816286779E+02 -0.60735197712E+02  0.14856648912E+03  0.18514451020E+03  0.89913324560E+02 0.  0.
         23    2    1    2    0    0 -0.80723285102E+00 -0.10190650578E+01 -0.49488253338E+02  0.10249394631E+03  0.89745371428E+02 0.  0.
        -11    1    3    3    0    0  0.29863866768E+02 -0.60410094061E+01  0.72425373911E+02  0.78573399565E+02  0.00000000000E+00 0.  1.
         11    1    3    3    0    0 -0.50680153547E+02 -0.54694188306E+02  0.76141115206E+02  0.10657111064E+03  0.00000000000E+00 0. -1.
        -13    1    4    4    0    0 -0.13321163250E+02 -0.36749243538E+02 -0.51414855355E+02  0.64586745096E+02  0.00000000000E+00 0. -1.
         13    1    4    4    0    0  0.12513930399E+02  0.35730178480E+02  0.19266020174E+01  0.37907201211E+02  0.00000000000E+00 0.  1.
          1    1    1    2  501    0  0.21623519630E+02  0.61754262770E+02 -0.50821182929E+02  0.82849008478E+02  0.00000000000E+00 0. -1.
<scales pt_clust_5="13000.00000" pt_clust_6="13000.00000" pt_clust_7="13000.00000" pt_clust_8="13000.00000" pt_clust_9="65.43062"></scales>
<clustering>
<clus scale="   65.431">  2  9  1 -1</clus>
<clus scale="   89.745">  7  8 -1 -1</clus>
<clus scale="   89.913">  5  6 -1 -1</clus>
<clus scale="  103.478">  2  7  1 -1</clus>
<clus scale="   65.431">  2  5  1 -1</clus>
</clustering>
</event>
<event>
 9    1  0.1321469E-005  0.1704900E+03  0.7546771E-02  0.1177509E+00
         21   -1    0    0  501  502  0.00000000000E+00  0.00000000000E+00  0.19263597788E+03  0.19263597788E+03  0.00000000000E+00 0. -1.
          2   -1    0    0  502    0 -0.00000000000E+00 -0.00000000000E+00 -0.24128529748E+03  0.24128529748E+03  0.00000000000E+00 0. -1.
         23    2    1    2    0    0 -0.69143095271E+02 -0.11258318406E+03 -0.42397027660E+02  0.16530424454E+03  0.89845669621E+02 0.  0.
         23    2    1    2    0    0  0.11447133019E+03  0.11054449859E+03 -0.64866098711E+02  0.19449292231E+03  0.91083008635E+02 0.  0.
        -11    1    3    3    0    0 -0.91029422418E+02 -0.86062241013E+02 -0.35851418731E+02  0.13030114849E+03  0.00000000000E+00 0.  1.
         11    1    3    3    0    0  0.21886327147E+02 -0.26520943052E+02 -0.65456089289E+01  0.35003096043E+02  0.00000000000E+00 0. -1.
        -13    1    4    4    0    0  0.77129687729E+02  0.18354169681E+02 -0.50485679059E+02  0.93992914966E+02  0.00000000000E+00 0.  1.
         13    1    4    4    0    0  0.37341642457E+02  0.92190328911E+02 -0.14380419652E+02  0.10050000734E+03  0.00000000000E+00 0. -1.
          2    1    1    2  501    0 -0.45328234915E+02  0.20386854725E+01  0.58613806767E+02  0.74124108512E+02  0.00000000000E+00 0. -1.
<scales pt_clust_5="13000.00000" pt_clust_6="13000.00000" pt_clust_7="13000.00000" pt_clust_8="13000.00000" pt_clust_9="45.37406"></scales>
<clustering>
<clus scale="   45.374">  1  9  2 -1</clus>
<clus scale="   89.846">  5  6 -1 -1</clus>
<clus scale="   91.083">  7  8 -1 -1</clus>
<clus scale="  169.832">  2  5  1 -1</clus>
<clus scale="   45.374">  1  5  2 -1</clus>
</clustering>
</event>
<event>
 9    1  0.1321469E-005  0.1238372E+03  0.7546771E-02  0.1239791E+00
         -2   -1    0    0    0  501 -0.00000000000E+00  0.00000000000E+00  0.32260007163E+03  0.32260007163E+03  0.00000000000E+00 0. -1.
         21   -1    0    0  501  502  0.00000000000E+00 -0.00000000000E+00 -0.69309978568E+02  0.69309978568E+02  0.00000000000E+00 0.  1.
         23    2    1    2    0    0 -0.25724954266E+02 -0.64448630853E+02  0.16150920087E+03  0.20089889252E+03  0.97261214058E+02 0.  0.
         23    2    1    2    0    0  0.44390156415E+02  0.82955699669E+02  0.43453189259E+02  0.13599781168E+03  0.88062994668E+02 0.  0.
        -11    1    3    3    0    0 -0.36880474745E+02  0.52960552637E+01  0.18948154200E+02  0.41800121607E+02  0.00000000000E+00 0.  1.
         11    1    3    3    0    0  0.11155520479E+02 -0.69744686117E+02  0.14256104667E+03  0.15909877092E+03  0.00000000000E+00 0. -1.
        -11    1    4    4    0    0  0.69976424379E+02  0.51141713010E+02  0.20132272557E+02  0.88980240373E+02  0.00000000000E+00 0.  1.
         11    1    4    4    0    0 -0.25586267964E+02  0.31813986659E+02  0.23320916702E+02  0.47017571304E+02  0.00000000000E+00 0. -1.
         -2    1    1    2    0  502 -0.18665202149E+02 -0.18507068815E+02  0.48327702930E+02  0.55013345998E+02  0.00000000000E+00 0. -1.
<scales pt_clust_5="13000.00000" pt_clust_6="13000.00000" pt_clust_7="13000.00000" pt_clust_8="13000.00000" pt_clust_9="26.28502"></scales>
<clustering>
<clus scale="   26.285">  2  9  1 -1</clus>
<clus scale="   88.063">  7  8 -1 -1</clus>
<clus scale="   97.261">  5  6 -1 -1</clus>
<clus scale="  116.752">  2  7  1 -1</clus>
<clus scale="   26.285">  2  5  1 -1</clus>
</clustering>
</event>
<event>
 9    1  0.1321469E-005  0.9898475E+02  0.7546771E-02  0.1282613E+00
          1   -1    0    0  502    0 -0.00000000000E+00  0.00000000000E+00  0.51448998371E+03  0.51448998371E+03  0.00000000000E+00 0. -1.
         21   -1    0    0  501  502  0.00000000000E+00 -0.00000000000E+00 -0.28164396777E+02  0.28164396777E+02  0.00000000000E+00 0. -1.
         23    2    1    2    0    0 -0.36285468897E+02  0.59782321059E+01  0.31334858455E+03  0.32866104936E+03  0.92078094109E+02 0.  0.
         23    2    1    2    0    0  0.26658583052E+02 -0.26554321685E+02  0.15770482673E+03  0.18662013726E+03  0.92414561653E+02 0.  0.
        -11    1    4    4    0    0 -0.16491542382E+02 -0.40247471795E+02  0.34993587560E+02  0.55824556661E+02  0.00000000000E+00 0. -1.
         11    1    4    4    0    0  0.43150125434E+02  0.13693150110E+02  0.12271123917E+03  0.13079558060E+03  0.00000000000E+00 0.  1.
        -11    1    3    3    0    0  0.65424282077E+01  0.28102053145E+02  0.31489881290E+02  0.42709968175E+02  0.00000000000E+00 0.  1.
         11    1    3    3    0    0 -0.42827897105E+02 -0.22123821039E+02  0.28185870326E+03  0.28595108118E+03  0.00000000000E+00 0. -1.
          1    1    1    2  501    0  0.96268858448E+01  0.20576089580E+02  0.15272175654E+02  0.27373193870E+02  0.00000000000E+00 0. -1.
<scales pt_clust_5="13000.00000" pt_clust_6="13000.00000" pt_clust_7="13000.00000" pt_clust_8="13000.00000" pt_clust_9="22.71679"></scales>
<clustering>
<clus scale="   22.717">  2  9  1 -1</clus>
<clus scale="   92.078">  7  8 -1 -1</clus>
<clus scale="   92.415">  5  6 -1 -1</clus>
<clus scale="   98.671">  1  7  2 -1</clus>
<clus scale="   22.717">  2  5  1 -1</clus>
</clustering>
</event>
<event>
 9    1  0.1321469E-005  0.1071125E+03  0.7546771E-02  0.1267580E+00
          1   -1    0    0  502    0 -0.00000000000E+00  0.00000000000E+00  0.65276149808E+02  0.65276149808E+02  0.00000000000E+00 0. -1.
         21   -1    0    0  501  502  0.00000000000E+00 -0.00000000000E+00 -0.46262233725E+03  0.46262233725E+03  0.00000000000E+00 0. -1.
         23    2    1    2    0    0 -0.21313699113E+02  0.45215758753E+02 -0.57496978587E+01  0.10704543192E+03  0.94482415616E+02 0.  0.
         23    2    1    2    0    0  0.55391835865E+02 -0.29000147401E+02 -0.23220001884E+03  0.25704981847E+03  0.90821233186E+02 0.  0.
        -11    1    4    4    0    0 -0.76117352377E+01 -0.42989652177E+02 -0.70212022283E+02  0.82678756526E+02  0.00000000000E+00 0.  1.
         11    1    4    4    0    0  0.63003571102E+02  0.13989504776E+02 -0.16198799655E+03  0.17437106194E+03  0.00000000000E+00 0. -1.
        -13    1    3    3    0    0 -0.27839944473E+02 -0.28348858129E+01 -0.39179616054E+02  0.48147080908E+02  0.00000000000E+00 0.  1.
         13    1    3    3    0    0  0.65262453603E+01  0.48050644566E+02  0.33429918195E+02  0.58898351014E+02  0.00000000000E+00 0. -1.
          1    1    1    2  501    0 -0.34078136752E+02 -0.16215611352E+02 -0.15939647075E+03  0.16380323667E+03  0.00000000000E+00 0. -1.
<scales pt_clust_5="13000.00000" pt_clust_6="13000.00000" pt_clust_7="13000.00000" pt_clust_8="13000.00000" pt_clust_9="37.73944"></scales>
<clustering>
<clus scale="   37.739">  2  9  1 -1</clus>
<clus scale="   90.821">  5  6 -1 -1</clus>
<clus scale="   94.482">  7  8 -1 -1</clus>
<clus scale="  103.897">  2  5  1 -1</clus>
<clus scale="   37.739">  2  5  1 -1</clus>
</clustering>
</event>
<event>
 9    1  0.1321469E-005  0.1014086E+03  0.7546771E-02  0.1281022E+00
         -1   -1    0    0    0  501 -0.00000000000E+00  0.00000000000E+00  0.13767949069E+03  0.13767949069E+03  0.00000000000E+00 0.  1.
         21   -1    0    0  501  502  0.00000000000E+00 -0.00000000000E+00 -0.97005829036E+02  0.97005829036E+02  0.00000000000E+00 0. -1.
         23    2    1    2    0    0 -0.42453665675E+01 -0.27373459262E+02  0.56898558107E+02  0.11777663694E+03  0.99330563703E+02 0.  0.
         23    2    1    2    0    0  0.70624513315E+01  0.55027255818E+01 -0.18939465021E+02  0.94690810676E+02  0.92344399308E+02 0.  0.
        -13    1    4    4    0    0  0.16396909346E+02  0.43702651595E+02 -0.27871296276E+02  0.54365334071E+02  0.00000000000E+00 0. -1.
         13    1    4    4    0    0 -0.93344580150E+01 -0.38199926013E+02  0.89318312548E+01  0.40325476605E+02  0.00000000000E+00 0.  1.
        -13    1    3    3    0    0 -0.50873035298E+02 -0.14401578044E+02  0.18567002640E+02  0.56037529903E+02  0.00000000000E+00 0.  1.
         13    1    3    3    0    0  0.46627668730E+02 -0.12971881218E+02  0.38331555467E+02  0.61739107040E+02  0.00000000000E+00 0. -1.
         -1    1    1    2    0  502 -0.28170847640E+01  0.21870733680E+02  0.27145685649E+01  0.22217872103E+02  0.00000000000E+00 0.  1.
<scales pt_clust_5="13000.00000" pt_clust_6="13000.00000" pt_clust_7="13000.00000" pt_clust_8="13000.00000" pt_clust_9="22.05142"></scales>
<clustering>
<clus scale="   22.051">  2  9  1 -1</clus>
<clus scale="   92.344">  5  6 -1 -1</clus>
<clus scale="   94.576">  2  5  1 -1</clus>
<clus scale="   99.331">  7  8 -1 -1</clus>
<clus scale="   22.051">  2  5  1 -1</clus>
</clustering>
</event>
<event>
 9    1  0.1321469E-005  0.9723730E+02  0.7546771E-02  0.1288708E+00
         21   -1    0    0  501  502  0.00000000000E+00  0.00000000000E+00  0.15274223026E+03  0.15274223026E+03  0.00000000000E+00 0.  1.
         -2   -1    0    0    0  501 -0.00000000000E+00 -0.00000000000E+00 -0.11358376403E+03  0.11358376403E+03  0.00000000000E+00 0.  1.
         23    2    1    2    0    0 -0.39006996790E+02 -0.23978229818E+02 -0.16795106169E+02  0.10090098822E+03  0.88331379070E+02 0.  0.
         23    2    1    2    0    0 -0.16403972793E+02  0.22728667840E+02  0.19448129831E+02  0.99057963853E+02  0.92997676227E+02 0.  0.
        -11    1    4    4    0    0  0.36488128880E+02  0.12685489117E+02  0.23248969652E+02  0.45086802650E+02  0.00000000000E+00 0. -1.
         11    1    4    4    0    0 -0.52892101673E+02  0.10043178723E+02 -0.38008398213E+01  0.53971161203E+02  0.00000000000E+00 0.  1.
        -11    1    3    3    0    0  0.98872722634E+01  0.25874333222E+02 -0.13953994464E+02  0.31015370931E+02  0.00000000000E+00 0. -1.
         11    1    3    3    0    0 -0.48894269054E+02 -0.49852563039E+02 -0.28411117044E+01  0.69885617287E+02  0.00000000000E+00 0.  1.
         -2    1    1    2    0  502  0.55410969583E+02  0.12495619774E+01  0.36505442568E+02  0.66367042215E+02  0.00000000000E+00 0.  1.
<scales pt_clust_5="13000.00000" pt_clust_6="13000.00000" pt_clust_7="13000.00000" pt_clust_8="13000.00000" pt_clust_9="55.42506"></scales>
<clustering>
<clus scale="   55.425">  1  9  2 -1</clus>
<clus scale="   88.331">  7  8 -1 -1</clus>
<clus scale="   92.784">  2  7  1 -1</clus>
<clus scale="   92.998">  5  6 -1 -1</clus>
<clus scale="   55.425">  1  5  2 -1</clus>
</clustering>
</event>
<event>
 9    1  0.1321469E-005  0.1785258E+03  0.7546771E-02  0.1169251E+00
         21   -1    0    0  501  502  0.00000000000E+00  0.00000000000E+00  0.51466391457E+02  0.51466391457E+02  0.00000000000E+00 0. -1.
          2   -1    0    0  502    0 -0.00000000000E+00 -0.00000000000E+00 -0.80694890847E+03  0.80694890847E+03  0.00000000000E+00 0. -1.
         23    2    1    2    0    0 -0.14678679006E+03  0.59419677123E+02 -0.47469599365E+03  0.50849155628E+03  0.90279104198E+02 0.  0.
         23    2    1    2    0    0  0.12287812840E+03 -0.83974099767E+02 -0.24244495499E+03  0.29849787818E+03  0.90392163420E+02 0.  0.
        -13    1    4    4    0    0  0.93300473820E+02 -0.59925964694E+02 -0.94412280076E+02  0.14563577270E+03  0.00000000000E+00 0. -1.
         13    1    4    4    0    0  0.29577654575E+02 -0.24048135073E+02 -0.14803267491E+03  0.15286210548E+03  0.00000000000E+00 0.  1.
        -13    1    3    3    0    0 -0.10079997546E+03  0.78017048275E+02 -0.28123847282E+03  0.30877560374E+03  0.00000000000E+00 0.  1.
         13    1    3    3    0    0 -0.45986814599E+02 -0.18597371152E+02 -0.19345752083E+03  0.19971595254E+03  0.00000000000E+00 0. -1.
          2    1    1    2  501    0  0.23908661663E+02  0.24554422644E+02 -0.38341568372E+02  0.51425865468E+02  0.00000000000E+00 0. -1.
<scales pt_clust_5="13000.00000" pt_clust_6="13000.00000" pt_clust_7="13000.00000" pt_clust_8="13000.00000" pt_clust_9="34.27162"></scales>
<clustering>
<clus scale="   34.272">  1  9  2 -1</clus>
<clus scale="   90.279">  7  8 -1 -1</clus>
<clus scale="   90.392">  5  6 -1 -1</clus>
<clus scale="  178.469">  2  7  1 -1</clus>
<clus scale="   34.272">  1  5  2 -1</clus>
</clustering>
</event>
<event>
 9    1  0.1321469E-005  0.1020310E+03  0.7546771E-02  0.1276208E+00
         21   -1    0    0  501  502  0.00000000000E+00  0.00000000000E+00  0.74518607897E+02  0.74518607897E+02  0.00000000000E+00 0.  1.
         -1   -1    0    0    0  501 -0.00000000000E+00 -0.00000000000E+00 -0.34383755483E+03  0.34383755483E+03  0.00000000000E+00 0.  1.
         23    2    1    2    0    0  0.21308477547E+02 -0.32748239413E+02 -0.21934739531E+03  0.24020972335E+03  0.89782698571E+02 0.  0.
         23    2    1    2    0    0 -0.47639061607E+02  0.62036020614E+02 -0.65175875218E+02  0.13592979289E+03  0.90061455914E+02 0.  0.
        -11    1    3    3    0    0  0.39793116789E+02  0.15069835171E+02 -0.66074072125E+02  0.78589917185E+02  0.00000000000E+00 0. -1.
         11    1    3    3    0    0 -0.18484639242E+02 -0.47818074584E+02 -0.15327332318E+03  0.16161980616E+03  0.00000000000E+00 0.  1.
        -13    1    4    4    0    0 -0.66162125490E+02  0.18601946583E+02 -0.54006106107E+02  0.87407772898E+02  0.00000000000E+00 0.  1.
         13    1    4    4    0    0  0.18523063883E+02  0.43434074030E+02 -0.11169769111E+02  0.48522019996E+02  0.00000000000E+00 0. -1.
         -1    1    1    2    0  502  0.26330584060E+02 -0.29287781201E+02  0.15204323593E+02  0.42216646486E+02  0.00000000000E+00 0.  1.
<scales pt_clust_5="13000.00000" pt_clust_6="13000.00000" pt_clust_7="13000.00000" pt_clust_8="13000.00000" pt_clust_9="39.38367"></scales>
<clustering>
<clus scale="   39.384">  1  9  2 -1</clus>
<clus scale="   89.783">  5  6 -1 -1</clus>
<clus scale="   90.061">  7  8 -1 -1</clus>
<clus scale="  101.785">  2  5  1 -1</clus>
<clus scale="   39.384">  1  5  2 -1</clus>
</clustering>
</event>
<event>
 9    1  0.1321469E-005  0.9208074E+02  0.7546771E-02  0.1298252E+00
          1   -1    0    0  502    0 -0.00000000000E+00  0.00000000000E+00  0.20199847916E+03  0.20199847916E+03  0.00000000000E+00 0. -1.
         21   -1    0    0  501  502  0.00000000000E+00 -0.00000000000E+00 -0.70475043449E+02  0.70475043449E+02  0.00000000000E+00 0.  1.
         23    2    1    2    0    0 -0.15663250464E+02  0.11229809967E+02  0.10358996153E+03  0.13923779372E+03  0.91021080108E+02 0.  0.
         23    2    1    2    0    0 -0.17349614580E+02 -0.19645948633E+01  0.32186980620E+02  0.98684523603E+02  0.91639318626E+02 0.  0.
        -11    1    3    3    0    0 -0.27852326601E+02 -0.35278901370E+02  0.48964909460E+02  0.66467400561E+02  0.00000000000E+00 0.  1.
         11    1    3    3    0    0  0.12189076136E+02  0.46508711337E+02  0.54625052069E+02  0.72770393161E+02  0.00000000000E+00 0. -1.
        -13    1    4    4    0    0  0.17550688441E+02  0.12708238986E+02  0.51725520649E+02  0.56080794299E+02  0.00000000000E+00 0. -1.
         13    1    4    4    0    0 -0.34900303020E+02 -0.14672833849E+02 -0.19538540029E+02  0.42603729303E+02  0.00000000000E+00 0.  1.
          1    1    1    2  501    0  0.33012865044E+02 -0.92652151036E+01 -0.42535064409E+01  0.34551205281E+02  0.00000000000E+00 0. -1.
<scales pt_clust_5="13000.00000" pt_clust_6="13000.00000" pt_clust_7="13000.00000" pt_clust_8="13000.00000" pt_clust_9="34.28839"></scales>
<clustering>
<clus scale="   34.288">  2  9  1 -1</clus>
<clus scale="   91.021">  5  6 -1 -1</clus>
<clus scale="   91.465">  1  5  2 -1</clus>
<clus scale="   91.639">  7  8 -1 -1</clus>
<clus scale="   34.288">  2  5  1 -1</clus>
</clustering>
</event>
<event>
 9    1  0.1321469E-005  0.1130507E+03  0.7546771E-02  0.1260096E+00
         21   -1    0    0  501  502  0.00000000000E+00  0.00000000000E+00  0.61917130926E+02  0.61917130926E+02  0.00000000000E+00 0.  1.
         -1   -1    0    0    0  501 -0.00000000000E+00 -0.00000000000E+00 -0.36722540712E+03  0.36722540712E+03  0.00000000000E+00 0.  1.
         23    2    1    2    0    0  0.46315434154E+02  0.28195581083E+02 -0.18085847292E+03  0.20968718362E+03  0.91207551843E+02 0.  0.
         23    2    1    2    0    0 -0.41431807165E+02  0.55850651005E+01 -0.14252840548E+03  0.18083129810E+03  0.10313982940E+03 0.  0.
        -11    1    4    4    0    0  0.40460266260E+01 -0.36879262569E+02 -0.96646168826E+02  0.10352261728E+03  0.00000000000E+00 0.  1.
         11    1    4    4    0    0 -0.45477833791E+02  0.42464327669E+02 -0.45882236655E+02  0.77308680827E+02  0.00000000000E+00 0. -1.
        -13    1    3    3    0    0  0.34278458081E+02  0.60326134090E+02 -0.14061887840E+03  0.15680537014E+03  0.00000000000E+00 0. -1.
         13    1    3    3    0    0  0.12036976073E+02 -0.32130553007E+02 -0.40239594528E+02  0.52881813483E+02  0.00000000000E+00 0.  1.
         -1    1    1    2    0  502 -0.48836269894E+01 -0.33780646183E+02  0.18078602207E+02  0.38624056324E+02  0.00000000000E+00 0.  1.
<scales pt_clust_5="13000.00000" pt_clust_6="13000.00000" pt_clust_7="13000.00000" pt_clust_8="13000.00000" pt_clust_9="34.13183"></scales>
<clustering>
<clus scale="   34.132">  1  9  2 -1</clus>
<clus scale="   91.208">  7  8 -1 -1</clus>
<clus scale="  102.281">  2  7  1 -1</clus>
<clus scale="  103.140">  5  6 -1 -1</clus>
<clus scale="   34.132">  1  5  2 -1</clus>
</clustering>
</event>
<event>
 9    1  0.1321469E-005  0.1232727E+03  0.7546771E-02  0.1238070E+00
          2   -1    0    0  502    0 -0.00000000000E+00  0.00000000000E+00  0.44260533881E+03  0.44260533881E+03  0.00000000000E+00 0. -1.
         21   -1    0    0  501  502  0.00000000000E+00 -0.00000000000E+00 -0.67289908791E+02  0.67289908791E+02  0.00000000000E+00 0.  1.
         23    2    1    2    0    0  0.24898412905E+02  0.74447464041E+02  0.32152501868E+03  0.34343520524E+03  0.91689948718E+02 0.  0.
         23    2    1    2    0    0 -0.34807913626E+02 -0.93938466360E+02  0.41645244298E+02  0.14144799609E+03  0.90758927459E+02 0.  0.
        -11    1    3    3    0    0  0.51093576000E+02  0.73760794672E+02  0.28267110744E+03  0.29657067171E+03  0.00000000000E+00 0. -1.
         11    1    3    3    0    0 -0.26195163095E+02  0.68666936943E+00  0.38853911244E+02  0.46864533534E+02  0.00000000000E+00 0.  1.
        -13    1    4    4    0    0 -0.57992931112E+02 -0.95481434563E+02  0.37537622108E+02  0.11785142120E+03  0.00000000000E+00 0.  1.
         13    1    4    4    0    0  0.23185017486E+02  0.15429682031E+01  0.41076221896E+01  0.23596574895E+02  0.00000000000E+00 0. -1.
          2    1    1    2  501    0  0.99095007204E+01  0.19491002319E+02  0.12145167045E+02  0.25012046267E+02  0.00000000000E+00 0. -1.
<scales pt_clust_5="13000.00000" pt_clust_6="13000.00000" pt_clust_7="13000.00000" pt_clust_8="13000.00000" pt_clust_9="21.86544"></scales>
<clustering>
<clus scale="   21.865">  2  9  1 -1</clus>
<clus scale="   90.759">  7  8 -1 -1</clus>
<clus scale="   91.690">  5  6 -1 -1</clus>
<clus scale="  122.582">  2  7  1 -1</clus>
<clus scale="   21.865">  2  5  1 -1</clus>
</clustering>
</event>
<event>
 9    1  0.1321469E-005  0.1224641E+03  0.7546771E-02  0.1240081E+00
          2   -1    0    0  502    0 -0.00000000000E+00  0.00000000000E+00  0.85783492181E+03  0.85783492181E+03  0.00000000000E+00 0. -1.
         21   -1    0    0  501  502  0.00000000000E+00 -0.00000000000E+00 -0.39838407731E+02  0.39838407731E+02  0.00000000000E+00 0.  1.
         23    2    1    2    0    0 -0.83199869617E+02 -0.69249292463E+02  0.40640583803E+03  0.42980448614E+03  0.88591807209E+02 0.  0.
         23    2    1    2    0    0 -0.17696023215E+02  0.75384960850E+02  0.24783076442E+03  0.27542421170E+03  0.91882354326E+02 0.  0.
        -11    1    4    4    0    0  0.17047550230E+02  0.35254348147E+02  0.25233556162E+02  0.46585624271E+02  0.00000000000E+00 0.  1.
         11    1    4    4    0    0 -0.34743573445E+02  0.40130612703E+02  0.22259720826E+03  0.22883858743E+03  0.00000000000E+00 0. -1.
        -13    1    3    3    0    0 -0.18003003807E+02 -0.71008518290E+02  0.24507337676E+03  0.25578756383E+03  0.00000000000E+00 0. -1.
         13    1    3    3    0    0 -0.65196865810E+02  0.17592258274E+01  0.16133246127E+03  0.17401692230E+03  0.00000000000E+00 0.  1.
          2    1    1    2  501    0  0.10089589283E+03 -0.61356683870E+01  0.16375991163E+03  0.19244463171E+03  0.00000000000E+00 0. -1.
<scales pt_clust_5="13000.00000" pt_clust_6="13000.00000" pt_clust_7="13000.00000" pt_clust_8="13000.00000" pt_clust_9="101.08228"></scales>
<clustering>
<clus scale="   88.592">  7  8 -1 -1</clus>
<clus scale="   91.882">  5  6 -1 -1</clus>
<clus scale="  101.082">  2  9  1 -1</clus>
<clus scale="  120.015">  1  7  2 -1</clus>
<clus scale="  101.082">  2  5  1 -1</clus>
</clustering>
</event>
<event>
 9    1  0.1321469E-005  0.9274046E+02  0.7546771E-02  0.1298257E+00
         21   -1    0    0  501  502  0.00000000000E+00  0.00000000000E+00  0.63149708539E+02  0.63149708539E+02  0.00000000000E+00 0.  1.
          1   -1    0    0  502    0 -0.00000000000E+00 -0.00000000000E+00 -0.39145738847E+03  0.39145738847E+03  0.00000000000E+00 0. -1.
         23    2    1    2    0    0 -0.42413823862E+02  0.54487208566E+01 -0.19420973564E+03  0.21690708581E+03  0.86617789419E+02 0.  0.
         23    2    1    2    0    0 -0.40500832930E+02  0.15664697262E+02 -0.32848809249E+02  0.10514057516E+03  0.89943293622E+02 0.  0.
        -11    1    3    3    0    0 -0.20366722967E+02  0.45086125151E+02 -0.12181039526E+03  0.13147370261E+03  0.00000000000E+00 0.  1.
         11    1    3    3    0    0 -0.22047100895E+02 -0.39637404294E+02 -0.72399340383E+02  0.85433383200E+02  0.00000000000E+00 0. -1.
        -13    1    4    4    0    0 -0.69326290307E+02  0.14423783126E+02 -0.20185516720E+02  0.73631753562E+02  0.00000000000E+00 0.  1.
         13    1    4    4    0    0  0.28825457376E+02  0.12409141360E+01 -0.12663292530E+02  0.31508821599E+02  0.00000000000E+00 0. -1.
          1    1    1    2  501    0  0.82914656792E+02 -0.21113418118E+02 -0.10124913504E+03  0.13255943603E+03  0.00000000000E+00 0. -1.
<scales pt_clust_5="13000.00000" pt_clust_6="13000.00000" pt_clust_7="13000.00000" pt_clust_8="13000.00000" pt_clust_9="85.56065"></scales>
<clustering>
<clus scale="   85.561">  1  9  2 -1</clus>
<clus scale="   86.618">  5  6 -1 -1</clus>
<clus scale="   89.519">  2  5  1 -1</clus>
<clus scale="   89.943">  7  8 -1 -1</clus>
<clus scale="   85.561">  1  5  2 -1</clus>
</clustering>
</event>
<event>
 9    1  0.1321469E-005  0.2395470E+03  0.7546771E-02  0.1120454E+00
         21   -1    0    0  501  502  0.00000000000E+00  0.00000000000E+00  0.22072342390E+03  0.22072342390E+03  0.00000000000E+00 0. -1.
          1   -1    0    0  502    0 -0.00000000000E+00 -0.00000000000E+00 -0.85471915464E+03  0.85471915464E+03  0.00000000000E+00 0. -1.
         23    2    1    2    0    0 -0.32051396826E+02  0.20294346669E+03 -0.53357614157E+03  0.57999460502E+03  0.97349372337E+02 0.  0.
         23    2    1    2    0    0  0.10498435419E+03 -0.24280993294E+03 -0.21558096443E+03  0.35342440592E+03  0.91952598195E+02 0.  0.
        -11    1    3    3    0    0 -0.45971904880E+02  0.18769697005E+03 -0.52132312657E+03  0.55598684417E+03  0.00000000000E+00 0.  1.
         11    1    3    3    0    0  0.13920508053E+02  0.15246496640E+02 -0.12253015003E+02  0.24007760848E+02  0.00000000000E+00 0. -1.
        -13    1    4    4    0    0  0.11986246612E+03 -0.19454981464E+03 -0.18784312876E+03  0.29580683255E+03  0.00000000000E+00 0. -1.
         13    1    4    4    0    0 -0.14878111931E+02 -0.48260118305E+02 -0.27737835667E+02  0.57617573369E+02  0.00000000000E+00 0.  1.
          1    1    1    2  501    0 -0.72932957363E+02  0.39866466254E+02  0.11516137526E+03  0.14202356760E+03  0.00000000000E+00 0. -1.
<scales pt_clust_5="13000.00000" pt_clust_6="13000.00000" pt_clust_7="13000.00000" pt_clust_8="13000.00000" pt_clust_9="83.11770"></scales>
<clustering>
<clus scale="   83.118">  1  9  2 -1</clus>
<clus scale="   91.953">  7  8 -1 -1</clus>
<clus scale="   97.349">  5  6 -1 -1</clus>
<clus scale="  237.405">  1  7  2 -1</clus>
<clus scale="   83.118">  1  5  2 -1</clus>
</clustering>
</event>
<event>
 9    1  0.1321469E-005  0.1016715E+03  0.7546771E-02  0.1277977E+00
         21   -1    0    0  501  502  0.00000000000E+00  0.00000000000E+00  0.48834855207E+02  0.48834855207E+02  0.00000000000E+00 0. -1.
          1   -1    0    0  502    0 -0.00000000000E+00 -0.00000000000E+00 -0.53028205346E+03  0.53028205346E+03  0.00000000000E+00 0. -1.
         23    2    1    2    0    0  0.27578302348E+02 -0.20095484620E+02 -0.23858397414E+03  0.25797789343E+03  0.92010268573E+02 0.  0.
         23    2    1    2    0    0  0.85888509563E+01  0.55178952295E+02 -0.24732174441E+03  0.27055452072E+03  0.94409842114E+02 0.  0.
        -13    1    4    4    0    0  0.27440889539E+02  0.70385980320E+02 -0.12660099819E+03  0.14742795321E+03  0.00000000000E+00 0.  1.
         13    1    4    4    0    0 -0.18852038583E+02 -0.15207028025E+02 -0.12072074621E+03  0.12312656751E+03  0.00000000000E+00 0. -1.
        -13    1    3    3    0    0 -0.29609671326E+02 -0.26707606232E+02 -0.82916935099E+02  0.92006776886E+02  0.00000000000E+00 0. -1.
         13    1    3    3    0    0  0.57187973675E+02  0.66121216116E+01 -0.15566703904E+03  0.16597111655E+03  0.00000000000E+00 0.  1.
          1    1    1    2  501    0 -0.36167153305E+02 -0.35083467675E+02  0.44585202891E+01  0.50584494516E+02  0.00000000000E+00 0. -1.
<scales pt_clust_5="13000.00000" pt_clust_6="13000.00000" pt_clust_7="13000.00000" pt_clust_8="13000.00000" pt_clust_9="50.38762"></scales>
<clustering>
<clus scale="   50.388">  1  9  2 -1</clus>
<clus scale="   92.010">  7  8 -1 -1</clus>
<clus scale="   94.410">  5  6 -1 -1</clus>
<clus scale="   99.447">  2  7  1 -1</clus>
<clus scale="   50.388">  1  5  2 -1</clus>
</clustering>
</event>
<event>
 9    1  0.1321469E-005  0.1444134E+03  0.7546771E-02  0.1208229E+00
         -3   -1    0    0    0  501 -0.00000000000E+00  0.00000000000E+00  0.15608803983E+03  0.15608803983E+03  0.00000000000E+00 0.  1.
         21   -1    0    0  501  502  0.00000000000E+00 -0.00000000000E+00 -0.28790132997E+03  0.28790132997E+03  0.00000000000E+00 0.  1.
         23    2    1    2    0    0 -0.11428723004E+03 -0.44381415497E+02  0.25659273561E+02  0.15415676465E+03  0.89858938194E+02 0.  0.
         23    2    1    2    0    0  0.96033710758E+02  0.17488664361E+02 -0.62773832827E+01  0.13518334517E+03  0.93310258208E+02 0.  0.
        -13    1    3    3    0    0 -0.57769983524E+02 -0.18635608805E+02  0.58155352200E+02  0.84063677658E+02  0.00000000000E+00 0.  1.
         13    1    3    3    0    0 -0.56517246520E+02 -0.25745806692E+02 -0.32496078639E+02  0.70093086987E+02  0.00000000000E+00 0. -1.
        -13    1    4    4    0    0  0.15684090288E+02  0.34107142657E+02  0.27414744446E+02  0.46485009212E+02  0.00000000000E+00 0. -1.
         13    1    4    4    0    0  0.80349620470E+02 -0.16618478296E+02 -0.33692127728E+02  0.88698335956E+02  0.00000000000E+00 0.  1.
         -3    1    1    2    0  502  0.18253519286E+02  0.26892751136E+02 -0.15119518043E+03  0.15464925999E+03  0.00000000000E+00 0.  1.
<scales pt_clust_5="13000.00000" pt_clust_6="13000.00000" pt_clust_7="13000.00000" pt_clust_8="13000.00000" pt_clust_9="32.50248"></scales>
<clustering>
<clus scale="   32.502">  2  9  1 -1</clus>
<clus scale="   89.859">  5  6 -1 -1</clus>
<clus scale="   93.310">  7  8 -1 -1</clus>
<clus scale="  142.208">  1  5  2 -1</clus>
<clus scale="   32.502">  2  5  1 -1</clus>
</clustering>
</event>
<event>
 9    1  0.1321469E-005  0.1342966E+03  0.7546771E-02  0.1222443E+00
          2   -1    0    0  502    0 -0.00000000000E+00  0.00000000000E+00  0.18805740068E+03  0.18805740068E+03  0.00000000000E+00 0. -1.
         21   -1    0    0  501  502  0.00000000000E+00 -0.00000000000E+00 -0.21132279821E+03  0.21132279821E+03  0.00000000000E+00 0. -1.
         23    2    1    2    0    0  0.77262711449E+02  0.34755867232E+02  0.35046451882E+02  0.12965858217E+03  0.91682044333E+02 0.  0.
         23    2    1    2    0    0 -0.11283010785E+03  0.23482833435E+02  0.34801999820E+02  0.15427909916E+03  0.96482042591E+02 0.  0.
        -11    1    4    4    0    0 -0.10441997657E+03  0.51786906110E+02  0.41990504249E+02  0.12388953789E+03  0.00000000000E+00 0. -1.
         11    1    4    4    0    0 -0.84101312748E+01 -0.28304072675E+02 -0.71885044297E+01  0.30389561267E+02  0.00000000000E+00 0.  1.
        -13    1    3    3    0    0 -0.34534209040E+01  0.36519765820E+02  0.32300011221E+02  0.48876478355E+02  0.00000000000E+00 0. -1.
         13    1    3    3    0    0  0.80716132354E+02 -0.17638985883E+01  0.27464406615E+01  0.80782103814E+02  0.00000000000E+00 0.  1.
          2    1    1    2  501    0  0.35567396398E+02 -0.58238700667E+02 -0.93113849234E+02  0.11544251756E+03  0.00000000000E+00 0. -1.
<scales pt_clust_5="13000.00000" pt_clust_6="13000.00000" pt_clust_7="13000.00000" pt_clust_8="13000.00000" pt_clust_9="68.24065"></scales>
<clustering>
<clus scale="   68.241">  2  9  1 -1</clus>
<clus scale="   91.682">  7  8 -1 -1</clus>
<clus scale="   96.482">  5  6 -1 -1</clus>
<clus scale="  130.891">  1  7  2 -1</clus>
<clus scale="   68.241">  2  5  1 -1</clus>
</clustering>
</event>
<event>
 9    1  0.1321469E-005  0.1016435E+03  0.7546771E-02  0.1277409E+00
          2   -1    0    0  502    0 -0.00000000000E+00  0.00000000000E+00  0.49379477082E+03  0.49379477082E+03  0.00000000000E+00 0. -1.
         21   -1    0    0  501  502  0.00000000000E+00 -0.00000000000E+00 -0.34690246719E+02  0.34690246719E+02  0.00000000000E+00 0.  1.
         23    2    1    2    0    0 -0.44068115387E+02  0.24718736752E+02  0.35063220762E+03  0.36577645336E+03  0.91084872928E+02 0.  0.
         23    2    1    2    0    0  0.31390560318E+02 -0.87723844782E+01  0.10500078791E+03  0.14204318094E+03  0.89937632748E+02 0.  0.
        -11    1    3    3    0    0  0.12865482681E+01  0.47645020591E+02  0.22982538898E+03  0.23471559942E+03  0.00000000000E+00 0. -1.
         11    1    3    3    0    0 -0.45354663656E+02 -0.22926283838E+02  0.12080681864E+03  0.13106085394E+03  0.00000000000E+00 0.  1.
        -13    1    4    4    0    0  0.49487001849E+02  0.64637689562E+01  0.19921827233E+02  0.53736606344E+02  0.00000000000E+00 0.  1.
         13    1    4    4    0    0 -0.18096441530E+02 -0.15236153434E+02  0.85078960677E+02  0.88306574599E+02  0.00000000000E+00 0. -1.
          2    1    1    2  501    0  0.12677555069E+02 -0.15946352274E+02  0.34715285697E+01  0.20665383229E+02  0.00000000000E+00 0. -1.
<scales pt_clust_5="13000.00000" pt_clust_6="13000.00000" pt_clust_7="13000.00000" pt_clust_8="13000.00000" pt_clust_9="20.37171"></scales>
<clustering>
<clus scale="   20.372">  2  9  1 -1</clus>
<clus scale="   89.938">  7  8 -1 -1</clus>
<clus scale="   91.085">  5  6 -1 -1</clus>
<clus scale="  100.617">  2  7  1 -1</clus>
<clus scale="   20.372">  2  5  1 -1</clus>
</clustering>
</event>
<event>
 9    1  0.1321469E-005  0.4839702E+03  0.7546771E-02  0.1018279E+00
         21   -1    0    0  501  502  0.00000000000E+00  0.00000000000E+00  0.95132501745E+03  0.95132501745E+03  0.00000000000E+00 0. -1.
          1   -1    0    0  502    0 -0.00000000000E+00 -0.00000000000E+00 -0.36886235822E+03  0.36886235822E+03  0.00000000000E+00 0. -1.
         23    2    1    2    0    0  0.46886228205E+03 -0.13261140743E+02  0.56908214450E+02  0.48135737921E+03  0.91971105626E+02 0.  0.
         23    2    1    2    0    0 -0.47349441777E+03  0.54051934620E+02  0.22941976618E+03  0.53986328693E+03  0.10816822157E+03 0.  0.
        -11    1    3    3    0    0  0.35715866363E+03  0.49754763911E+01  0.59766101273E+01  0.35724331518E+03  0.00000000000E+00 0. -1.
         11    1    3    3    0    0  0.11170361841E+03 -0.18236617134E+02  0.50931604323E+02  0.12411406403E+03  0.00000000000E+00 0.  1.
        -13    1    4    4    0    0 -0.19457387579E+03  0.75960127785E+02  0.94825218810E+02  0.22939214519E+03  0.00000000000E+00 0. -1.
         13    1    4    4    0    0 -0.27892054198E+03 -0.21908193165E+02  0.13459454737E+03  0.31047114173E+03  0.00000000000E+00 0.  1.
          1    1    1    2  501    0  0.46321357268E+01 -0.40790793877E+02  0.29613467859E+03  0.29896670954E+03  0.00000000000E+00 0. -1.
<scales pt_clust_5="13000.00000" pt_clust_6="13000.00000" pt_clust_7="13000.00000" pt_clust_8="13000.00000" pt_clust_9="41.05296"></scales>
<clustering>
<clus scale="   41.053">  1  9  2 -1</clus>
<clus scale="   91.971">  5  6 -1 -1</clus>
<clus scale="  108.168">  7  8 -1 -1</clus>
<clus scale="  480.609">  2  5  1 -1</clus>
<clus scale="   41.053">  1  5  2 -1</clus>
</clustering>
</event>
<event>
 9    1  0.1321469E-005  0.1088220E+03  0.7546771E-02  0.1263405E+00
         21   -1    0    0  501  502  0.00000000000E+00  0.00000000000E+00  0.15051941983E+03  0.15051941983E+03  0.00000000000E+00 0. -1.
         -3   -1    0    0    0  501 -0.00000000000E+00 -0.00000000000E+00 -0.12375966570E+03  0.12375966570E+03  0.00000000000E+00 0.  1.
         23    2    1    2    0    0 -0.52993262045E+02 -0.38547800679E+02 -0.45088638174E+02  0.12069453126E+03  0.90774257500E+02 0.  0.
         23    2    1    2    0    0  0.23410026453E+02  0.44074903663E+02  0.69145715414E+02  0.12336831429E+03  0.89151469647E+02 0.  0.
        -11    1    3    3    0    0 -0.67669329747E+02 -0.57758785829E+01 -0.50159415175E+02  0.84430242760E+02  0.00000000000E+00 0.  1.
         11    1    3    3    0    0  0.14676067703E+02 -0.32771922096E+02  0.50707770016E+01  0.36264288501E+02  0.00000000000E+00 0. -1.
        -13    1    4    4    0    0  0.23377644693E+02 -0.17380576268E+02 -0.21879370508E+01  0.29212767266E+02  0.00000000000E+00 0.  1.
         13    1    4    4    0    0  0.32381760184E-01  0.61455479932E+02  0.71333652465E+02  0.94155547028E+02  0.00000000000E+00 0. -1.
         -3    1    1    2    0  502  0.29583235592E+02 -0.55271029846E+01  0.27026768924E+01  0.30216239969E+02  0.00000000000E+00 0.  1.
<scales pt_clust_5="13000.00000" pt_clust_6="13000.00000" pt_clust_7="13000.00000" pt_clust_8="13000.00000" pt_clust_9="30.09514"></scales>
<clustering>
<clus scale="   30.095">  1  9  2 -1</clus>
<clus scale="   89.151">  7  8 -1 -1</clus>
<clus scale="   90.774">  5  6 -1 -1</clus>
<clus scale="  107.472">  1  7  2 -1</clus>
<clus scale="   30.095">  1  5  2 -1</clus>
</clustering>
</event>
<event>
 9    1  0.1321469E-005  0.9544084E+02  0.7546771E-02  0.1292139E+00
         21   -1    0    0  501  502  0.00000000000E+00  0.00000000000E+00  0.29410356121E+03  0.29410356121E+03  0.00000000000E+00 0. -1.
          1   -1    0    0  502    0 -0.00000000000E+00 -0.00000000000E+00 -0.60424444939E+02  0.60424444939E+02  0.00000000000E+00 0. -1.
         23    2    1    2    0    0 -0.65049626919E+01 -0.82224791977E+01  0.37220495326E+02  0.10091914294E+03  0.93216867767E+02 0.  0.
         23    2    1    2    0    0  0.25335067354E+02  0.20534857314E+02  0.54580290967E+02  0.10995779981E+03  0.89711557645E+02 0.  0.
        -11    1    4    4    0    0  0.41066664799E+02 -0.12598398434E+02 -0.14612905483E+01  0.42980530137E+02  0.00000000000E+00 0. -1.
         11    1    4    4    0    0 -0.15731597445E+02  0.33133255749E+02  0.56041581515E+02  0.66977269677E+02  0.00000000000E+00 0.  1.
        -11    1    3    3    0    0  0.39071708032E+02  0.95003155875E+01  0.32665429480E+02  0.51806222096E+02  0.00000000000E+00 0. -1.
         11    1    3    3    0    0 -0.45576670724E+02 -0.17722794785E+02  0.45550658462E+01  0.49112920847E+02  0.00000000000E+00 0.  1.
          1    1    1    2  501    0 -0.18830104662E+02 -0.12312378117E+02  0.14187832997E+03  0.14365106339E+03  0.00000000000E+00 0. -1.
<scales pt_clust_5="13000.00000" pt_clust_6="13000.00000" pt_clust_7="13000.00000" pt_clust_8="13000.00000" pt_clust_9="22.49817"></scales>
<clustering>
<clus scale="   22.498">  1  9  2 -1</clus>
<clus scale="   89.712">  5  6 -1 -1</clus>
<clus scale="   92.020">  1  5  2 -1</clus>
<clus scale="   93.217">  7  8 -1 -1</clus>
<clus scale="   22.498">  1  5  2 -1</clus>
</clustering>
</event>
<event>
 9    1  0.1321469E-005  0.9577577E+02  0.7546771E-02  0.1290432E+00
         21   -1    0    0  501  502  0.00000000000E+00  0.00000000000E+00  0.75798058892E+03  0.75798058892E+03  0.00000000000E+00 0. -1.
          1   -1    0    0  502    0 -0.00000000000E+00 -0.00000000000E+00 -0.22544633900E+02  0.22544633900E+02  0.00000000000E+00 0. -1.
         23    2    1    2    0    0  0.36465093623E+01  0.21393012756E+02  0.23525812547E+03  0.25369208928E+03  0.92424739872E+02 0.  0.
         23    2    1    2    0    0  0.52645588892E+02 -0.19113199331E+01  0.28897306770E+03  0.30738886245E+03  0.90593971835E+02 0.  0.
        -13    1    3    3    0    0  0.26078111078E+02  0.51278113906E+02  0.13887005664E+03  0.15031435551E+03  0.00000000000E+00 0. -1.
         13    1    3    3    0    0 -0.22431601715E+02 -0.29885101149E+02  0.96388068827E+02  0.10337773377E+03  0.00000000000E+00 0.  1.
        -13    1    4    4    0    0  0.78631259359E+02 -0.93988740844E+00  0.20968100109E+03  0.22394169007E+03  0.00000000000E+00 0. -1.
         13    1    4    4    0    0 -0.25985670467E+02 -0.97143252465E+00  0.79292066610E+02  0.83447172380E+02  0.00000000000E+00 0.  1.
          1    1    1    2  501    0 -0.56292098254E+02 -0.19481692823E+02  0.21120476186E+03  0.21944427109E+03  0.00000000000E+00 0. -1.
<scales pt_clust_5="13000.00000" pt_clust_6="13000.00000" pt_clust_7="13000.00000" pt_clust_8="13000.00000" pt_clust_9="59.56792"></scales>
<clustering>
<clus scale="   59.568">  1  9  2 -1</clus>
<clus scale="   90.594">  7  8 -1 -1</clus>
<clus scale="   92.425">  5  6 -1 -1</clus>
<clus scale="   94.010">  1  7  2 -1</clus>
<clus scale="   59.568">  1  5  2 -1</clus>
</clustering>
</event>
<event>
 9    1  0.1321469E-005  0.9912385E+02  0.7546771E-02  0.1283690E+00
         21   -1    0    0  501  502  0.00000000000E+00  0.00000000000E+00  0.65681275238E+02  0.65681275238E+02  0.00000000000E+00 0.  1.
          1   -1    0    0  502    0 -0.00000000000E+00 -0.00000000000E+00 -0.29388965918E+03  0.29388965918E+03  0.00000000000E+00 0. -1.
         23    2    1    2    0    0 -0.17861071833E+02  0.47322709642E+02 -0.16393821492E+03  0.19340115264E+03  0.89273796811E+02 0.  0.
         23    2    1    2    0    0 -0.77988442131E+00  0.26426726621E+01 -0.15055960695E+02  0.93602137607E+02  0.92342223678E+02 0.  0.
        -11    1    3    3    0    0 -0.49528305492E+02  0.51461562598E+01 -0.83207383346E+02  0.96969091016E+02  0.00000000000E+00 0.  1.
         11    1    3    3    0    0  0.31667233659E+02  0.42176553382E+02 -0.80730831571E+02  0.96432061624E+02  0.00000000000E+00 0. -1.
        -13    1    4    4    0    0 -0.11369400850E+02 -0.42209517271E+02 -0.18328327471E+02  0.47400782819E+02  0.00000000000E+00 0.  1.
         13    1    4    4    0    0  0.10589516428E+02  0.44852189933E+02  0.32723667759E+01  0.46201354789E+02  0.00000000000E+00 0. -1.
          1    1    1    2  501    0  0.18640956255E+02 -0.49965382304E+02 -0.49214208326E+02  0.72567644168E+02  0.00000000000E+00 0. -1.
<scales pt_clust_5="13000.00000" pt_clust_6="13000.00000" pt_clust_7="13000.00000" pt_clust_8="13000.00000" pt_clust_9="53.32942"></scales>
<clustering>
<clus scale="   53.329">  1  9  2 -1</clus>
<clus scale="   89.274">  5  6 -1 -1</clus>
<clus scale="   92.342">  7  8 -1 -1</clus>
<clus scale="   96.272">  2  5  1 -1</clus>
<clus scale="   53.329">  1  5  2 -1</clus>
</clustering>
</event>
<event>
 9    1  0.1321469E-005  0.9435417E+02  0.7546771E-02  0.1293001E+00
         -4   -1    0    0    0  501 -0.00000000000E+00  0.00000000000E+00  0.16686363155E+03  0.16686363155E+03  0.00000000000E+00 0.  1.
         21   -1    0    0  501  502  0.00000000000E+00 -0.00000000000E+00 -0.62212918387E+03  0.62212918387E+03  0.00000000000E+00 0. -1.
         23    2    1    2    0    0 -0.23955130410E+02  0.71012123817E+01  0.13257777592E+03  0.16283394530E+03  0.91179776172E+02 0.  0.
         23    2    1    2    0    0 -0.46739790361E+01  0.50801234957E+02 -0.14741030952E+03  0.18101444042E+03  0.91835813997E+02 0.  0.
        -11    1    4    4    0    0  0.31525967062E+02 -0.51587187854E+01 -0.21358705194E+02  0.38427766866E+02  0.00000000000E+00 0.  1.
         11    1    4    4    0    0 -0.36199946099E+02  0.55959953742E+02 -0.12605160433E+03  0.14258667355E+03  0.00000000000E+00 0. -1.
        -13    1    3    3    0    0 -0.56290227328E+02 -0.11003754139E+02  0.76384893163E+02  0.95521328515E+02  0.00000000000E+00 0. -1.
         13    1    3    3    0    0  0.32335096918E+02  0.18104966521E+02  0.56192882761E+02  0.67312616785E+02  0.00000000000E+00 0.  1.
         -4    1    1    2    0  502  0.28629109446E+02 -0.57902447339E+02 -0.44043301872E+03  0.44514442970E+03  0.00000000000E+00 0.  1.
<scales pt_clust_5="13000.00000" pt_clust_6="13000.00000" pt_clust_7="13000.00000" pt_clust_8="13000.00000" pt_clust_9="64.59349"></scales>
<clustering>
<clus scale="   64.593">  2  9  1 -1</clus>
<clus scale="   91.180">  7  8 -1 -1</clus>
<clus scale="   91.836">  5  6 -1 -1</clus>
<clus scale="   93.716">  1  7  2 -1</clus>
<clus scale="   64.593">  2  5  1 -1</clus>
</clustering>
</event>
<event>
 9    1  0.1321469E-005  0.1043694E+03  0.7546771E-02  0.1272491E+00
          2   -1    0    0  502    0 -0.00000000000E+00  0.00000000000E+00  0.39885881798E+02  0.39885881798E+02  0.00000000000E+00 0. -1.
         21   -1    0    0  501  502  0.00000000000E+00 -0.00000000000E+00 -0.45711992193E+03  0.45711992193E+03  0.00000000000E+00 0. -1.
         23    2    1    2    0    0  0.42946077310E+02  0.53270208875E+02 -0.12657114713E+03  0.16988614034E+03  0.90326987573E+02 0.  0.
         23    2    1    2    0    0 -0.24595783489E+02 -0.12217052518E+02 -0.14249978369E+03  0.17228296912E+03  0.92849470433E+02 0.  0.
        -11    1    3    3    0    0 -0.26908408644E+02  0.97175592454E+01 -0.49201638668E+02  0.56914801775E+02  0.00000000000E+00 0.  1.
         11    1    3    3    0    0  0.69854485954E+02  0.43552649629E+02 -0.77369508458E+02  0.11297133856E+03  0.00000000000E+00 0. -1.
        -13    1    4    4    0    0  0.87013607695E+01 -0.47347649509E+02 -0.64486039644E+02  0.80473367658E+02  0.00000000000E+00 0.  1.
         13    1    4    4    0    0 -0.33297144258E+02  0.35130596991E+02 -0.78013744045E+02  0.91809601462E+02  0.00000000000E+00 0. -1.
          2    1    1    2  501    0 -0.18350293821E+02 -0.41053156357E+02 -0.14816310932E+03  0.15483669427E+03  0.00000000000E+00 0. -1.
<scales pt_clust_5="13000.00000" pt_clust_6="13000.00000" pt_clust_7="13000.00000" pt_clust_8="13000.00000" pt_clust_9="44.96771"></scales>
<clustering>
<clus scale="   44.968">  2  9  1 -1</clus>
<clus scale="   90.327">  5  6 -1 -1</clus>
<clus scale="   92.849">  7  8 -1 -1</clus>
<clus scale="  102.132">  1  5  2 -1</clus>
<clus scale="   44.968">  2  5  1 -1</clus>
</clustering>
</event>
<event>
 9    1  0.1321469E-005  0.1085160E+03  0.7546771E-02  0.1263848E+00
         21   -1    0    0  501  502  0.00000000000E+00  0.00000000000E+00  0.36855613045E+02  0.36855613045E+02  0.00000000000E+00 0. -1.
          1   -1    0    0  502    0 -0.00000000000E+00 -0.00000000000E+00 -0.61360584209E+03  0.61360584209E+03  0.00000000000E+00 0. -1.
         23    2    1    2    0    0 -0.30111187783E+02 -0.52511225659E+02 -0.34075200402E+03  0.35808080917E+03  0.91901170824E+02 0.  0.
         23    2    1    2    0    0  0.48349427199E+02  0.31494782632E+02 -0.24121934781E+03  0.26406838047E+03  0.90640759942E+02 0.  0.
        -13    1    3    3    0    0  0.28085166286E+02 -0.16314286805E+02 -0.18624384695E+03  0.18905476203E+03  0.00000000000E+00 0. -1.
         13    1    3    3    0    0 -0.58196354068E+02 -0.36196938854E+02 -0.15450815707E+03  0.16902604714E+03  0.00000000000E+00 0.  1.
        -13    1    4    4    0    0  0.28568972798E+02  0.48789780099E+02 -0.22751343935E+03  0.23443334647E+03  0.00000000000E+00 0.  1.
         13    1    4    4    0    0  0.19780454402E+02 -0.17294997467E+02 -0.13705908453E+02  0.29635034001E+02  0.00000000000E+00 0. -1.
          1    1    1    2  501    0 -0.18238239416E+02  0.21016443027E+02  0.52211227866E+01  0.28312265498E+02  0.00000000000E+00 0. -1.
<scales pt_clust_5="13000.00000" pt_clust_6="13000.00000" pt_clust_7="13000.00000" pt_clust_8="13000.00000" pt_clust_9="27.82668"></scales>
<clustering>
<clus scale="   27.827">  1  9  2 -1</clus>
<clus scale="   90.641">  7  8 -1 -1</clus>
<clus scale="   91.901">  5  6 -1 -1</clus>
<clus scale="  107.451">  1  7  2 -1</clus>
<clus scale="   27.827">  1  5  2 -1</clus>
</clustering>
</event>
<event>
 9    1  0.1321469E-005  0.9375679E+02  0.7546771E-02  0.1295375E+00
          1   -1    0    0  502    0 -0.00000000000E+00  0.00000000000E+00  0.14693204191E+03  0.14693204191E+03  0.00000000000E+00 0. -1.
         21   -1    0    0  501  502  0.00000000000E+00 -0.00000000000E+00 -0.12714188042E+03  0.12714188042E+03  0.00000000000E+00 0. -1.
         23    2    1    2    0    0  0.23450038845E+02 -0.62326002934E+01  0.56208799222E+02  0.10893586963E+03  0.90104633363E+02 0.  0.
         23    2    1    2    0    0  0.11433418090E+02 -0.37020542153E+02 -0.43123469621E+02  0.10916801902E+03  0.92502860246E+02 0.  0.
        -11    1    4    4    0    0  0.51666165929E+02 -0.25816270904E+02 -0.31633804671E+02  0.65852639607E+02  0.00000000000E+00 0. -1.
         11    1    4    4    0    0 -0.40232747839E+02 -0.11204271249E+02 -0.11489664950E+02  0.43315379412E+02  0.00000000000E+00 0.  1.
        -13    1    3    3    0    0  0.52091758284E+02 -0.25266092051E+02  0.42913912798E+02  0.72066154333E+02  0.00000000000E+00 0. -1.
         13    1    3    3    0    0 -0.28641719440E+02  0.19033491757E+02  0.13294886424E+02  0.36869715295E+02  0.00000000000E+00 0.  1.
          1    1    1    2  501    0 -0.34883456935E+02  0.43253142446E+02  0.67048318859E+01  0.55970033677E+02  0.00000000000E+00 0. -1.
<scales pt_clust_5="13000.00000" pt_clust_6="13000.00000" pt_clust_7="13000.00000" pt_clust_8="13000.00000" pt_clust_9="55.56701"></scales>
<clustering>
<clus scale="   55.567">  2  9  1 -1</clus>
<clus scale="   90.105">  7  8 -1 -1</clus>
<clus scale="   91.391">  1  7  2 -1</clus>
<clus scale="   92.503">  5  6 -1 -1</clus>
<clus scale="   55.567">  2  5  1 -1</clus>
</clustering>
</event>
<event>
 9    1  0.1321469E-005  0.1792100E+03  0.7546771E-02  0.1168874E+00
         -3   -1    0    0    0  501 -0.00000000000E+00  0.00000000000E+00  0.67251704261E+03  0.67251704261E+03  0.00000000000E+00 0.  1.
         21   -1    0    0  501  502  0.00000000000E+00 -0.00000000000E+00 -0.11030031584E+03  0.11030031584E+03  0.00000000000E+00 0. -1.
         23    2    1    2    0    0  0.14816887235E+03 -0.27553998078E+02  0.46244308392E+03  0.49506629074E+03  0.92324367402E+02 0.  0.
         23    2    1    2    0    0 -0.16170298466E+03  0.12625953374E+02  0.14685332310E+03  0.23654057066E+03  0.89879214059E+02 0.  0.
        -11    1    4    4    0    0 -0.13114575120E+03  0.14138456894E+02  0.60863767842E+02  0.14527044523E+03  0.00000000000E+00 0. -1.
         11    1    4    4    0    0 -0.30557233452E+02 -0.15125035203E+01  0.85989555255E+02  0.91270125431E+02  0.00000000000E+00 0.  1.
        -13    1    3    3    0    0  0.12452568126E+03 -0.23784470176E+02  0.45109488379E+03  0.46857116908E+03  0.00000000000E+00 0.  1.
         13    1    3    3    0    0  0.23643191088E+02 -0.37695279017E+01  0.11348200135E+02  0.26495121659E+02  0.00000000000E+00 0. -1.
         -3    1    1    2    0  502  0.13534112312E+02  0.14928044705E+02 -0.47079680256E+02  0.51210497047E+02  0.00000000000E+00 0.  1.
<scales pt_clust_5="13000.00000" pt_clust_6="13000.00000" pt_clust_7="13000.00000" pt_clust_8="13000.00000" pt_clust_9="20.14991"></scales>
<clustering>
<clus scale="   20.150">  2  9  1 -1</clus>
<clus scale="   89.879">  5  6 -1 -1</clus>
<clus scale="   92.324">  7  8 -1 -1</clus>
<clus scale="  177.963">  2  5  1 -1</clus>
<clus scale="   20.150">  2  5  1 -1</clus>
</clustering>
</event>
<event>
 9    1  0.1321469E-005  0.2816202E+03  0.7546771E-02  0.1094956E+00
         21   -1    0    0  501  502  0.00000000000E+00  0.00000000000E+00  0.31809392854E+03  0.31809392854E+03  0.00000000000E+00 0. -1.
          1   -1    0    0  502    0 -0.00000000000E+00 -0.00000000000E+00 -0.58042384006E+03  0.58042384006E+03  0.00000000000E+00 0. -1.
         23    2    1    2    0    0  0.25184534425E+03 -0.13453297069E+03 -0.40852939681E+03  0.50575733712E+03  0.85842986770E+02 0.  0.
         23    2    1    2    0    0 -0.17318285825E+03  0.13839533492E+03  0.14690196864E+02  0.23947182295E+03  0.89360958938E+02 0.  0.
        -11    1    4    4    0    0 -0.76563770183E+02  0.10810945807E+03 -0.16556178220E+02  0.13350570350E+03  0.00000000000E+00 0.  1.
         11    1    4    4    0    0 -0.96619088066E+02  0.30285876851E+02  0.31246375084E+02  0.10596611945E+03  0.00000000000E+00 0. -1.
        -13    1    3    3    0    0  0.27820312874E+02  0.15847991878E+01 -0.84474628880E+02  0.88951921403E+02  0.00000000000E+00 0.  1.
         13    1    3    3    0    0  0.22402503137E+03 -0.13611776988E+03 -0.32405476793E+03  0.41680541572E+03  0.00000000000E+00 0. -1.
          1    1    1    2  501    0 -0.78662485996E+02 -0.38623642335E+01  0.13150928843E+03  0.15328860852E+03  0.00000000000E+00 0. -1.
<scales pt_clust_5="13000.00000" pt_clust_6="13000.00000" pt_clust_7="13000.00000" pt_clust_8="13000.00000" pt_clust_9="78.75725"></scales>
<clustering>
<clus scale="   78.757">  1  9  2 -1</clus>
<clus scale="   85.843">  7  8 -1 -1</clus>
<clus scale="   89.361">  5  6 -1 -1</clus>
<clus scale="  280.524">  2  7  1 -1</clus>
<clus scale="   78.757">  1  5  2 -1</clus>
</clustering>
</event>
<event>
 9    1  0.1321469E-005  0.9767284E+02  0.7546771E-02  0.1286276E+00
         21   -1    0    0  501  502  0.00000000000E+00  0.00000000000E+00  0.11885043571E+03  0.11885043571E+03  0.00000000000E+00 0.  1.
          2   -1    0    0  502    0 -0.00000000000E+00 -0.00000000000E+00 -0.11264147662E+03  0.11264147662E+03  0.00000000000E+00 0. -1.
         23    2    1    2    0    0 -0.30638204274E+02 -0.31115011021E+02 -0.21083595498E+02  0.10442578418E+03  0.92484501031E+02 0.  0.
         23    2    1    2    0    0  0.11003785957E+02  0.13173604837E+02  0.48729159405E+01  0.92280432304E+02  0.90538973413E+02 0.  0.
        -11    1    4    4    0    0  0.21987849151E+02  0.49150129092E+02 -0.26914032631E+01  0.53911449170E+02  0.00000000000E+00 0.  1.
         11    1    4    4    0    0 -0.10984063194E+02 -0.35976524256E+02  0.75643192036E+01  0.38368983134E+02  0.00000000000E+00 0. -1.
        -13    1    3    3    0    0  0.27331333283E+02 -0.34270932152E+02 -0.45995771848E+01  0.44075556490E+02  0.00000000000E+00 0.  1.
         13    1    3    3    0    0 -0.57969537557E+02  0.31559211317E+01 -0.16484018313E+02  0.60350227693E+02  0.00000000000E+00 0. -1.
          2    1    1    2  501    0  0.19634418317E+02  0.17941406184E+02  0.22419638647E+02  0.34785695847E+02  0.00000000000E+00 0. -1.
<scales pt_clust_5="13000.00000" pt_clust_6="13000.00000" pt_clust_7="13000.00000" pt_clust_8="13000.00000" pt_clust_9="26.59708"></scales>
<clustering>
<clus scale="   26.597">  1  9  2 -1</clus>
<clus scale="   90.539">  5  6 -1 -1</clus>
<clus scale="   92.485">  7  8 -1 -1</clus>
<clus scale="   95.833">  1  5  2 -1</clus>
<clus scale="   26.597">  1  5  2 -1</clus>
</clustering>
</event>
<event>
 9    1  0.1321469E-005  0.1202423E+03  0.7546771E-02  0.1243256E+00
         21   -1    0    0  501  502  0.00000000000E+00  0.00000000000E+00  0.82307766960E+03  0.82307766960E+03  0.00000000000E+00 0. -1.
          1   -1    0    0  502    0 -0.00000000000E+00 -0.00000000000E+00 -0.12514437250E+03  0.12514437250E+03  0.00000000000E+00 0. -1.
         23    2    1    2    0    0  0.78142042191E+02 -0.35306020924E+02 -0.60462791975E+02  0.13839876302E+03  0.90253944622E+02 0.  0.
         23    2    1    2    0    0 -0.71783309630E+02 -0.67109300577E+02  0.18540146884E+03  0.22771318092E+03  0.88448212813E+02 0.  0.
        -11    1    3    3    0    0  0.59017810758E+02 -0.65470277408E+02 -0.36579577428E+02  0.95433352112E+02  0.00000000000E+00 0. -1.
         11    1    3    3    0    0  0.19124231433E+02  0.30164256484E+02 -0.23883214547E+02  0.42965410905E+02  0.00000000000E+00 0.  1.
        -13    1    4    4    0    0 -0.75704203356E+01 -0.49997068344E+02  0.13544382324E+03  0.14457540372E+03  0.00000000000E+00 0. -1.
         13    1    4    4    0    0 -0.64212889295E+02 -0.17112232232E+02  0.49957645606E+02  0.83137777202E+02  0.00000000000E+00 0.  1.
          1    1    1    2  501    0 -0.63587325604E+01  0.10241532150E+03  0.57299462024E+03  0.58211009816E+03  0.00000000000E+00 0. -1.
<scales pt_clust_5="13000.00000" pt_clust_6="13000.00000" pt_clust_7="13000.00000" pt_clust_8="13000.00000" pt_clust_9="102.61253"></scales>
<clustering>
<clus scale="   88.448">  7  8 -1 -1</clus>
<clus scale="   90.254">  5  6 -1 -1</clus>
<clus scale="  102.613">  1  9  2 -1</clus>
<clus scale="  118.893">  1  7  2 -1</clus>
<clus scale="  102.613">  1  5  2 -1</clus>
</clustering>
</event>
<event>
 9    1  0.1321469E-005  0.9534757E+02  0.7546771E-02  0.1290566E+00
          2   -1    0    0  502    0 -0.00000000000E+00  0.00000000000E+00  0.22497046535E+03  0.22497046535E+03  0.00000000000E+00 0.  1.
         21   -1    0    0  501  502  0.00000000000E+00 -0.00000000000E+00 -0.64817033271E+02  0.64817033271E+02  0.00000000000E+00 0. -1.
         23    2    1    2    0    0 -0.20700133658E+02  0.20674495279E+02  0.13911227835E+03  0.16944695278E+03  0.92217750625E+02 0.  0.
         23    2    1    2    0    0 -0.37144135743E+01 -0.17227418057E+02  0.13428123288E+02  0.94535300437E+02  0.91902272728E+02 0.  0.
        -11    1    4    4    0    0 -0.41410673932E+02  0.10837051638E+02  0.19703258242E+02  0.47122223940E+02  0.00000000000E+00 0.  1.
         11    1    4    4    0    0  0.37696260357E+02 -0.28064469695E+02 -0.62751349538E+01  0.47413076497E+02  0.00000000000E+00 0. -1.
        -13    1    3    3    0    0  0.17120816615E+02  0.47168749862E+02  0.80014286300E+02  0.94447336316E+02  0.00000000000E+00 0.  1.
         13    1    3    3    0    0 -0.37820950273E+02 -0.26494254583E+02  0.59097992053E+02  0.74999616467E+02  0.00000000000E+00 0. -1.
          2    1    1    2  501    0  0.24414547232E+02 -0.34470772228E+01  0.76130304430E+01  0.25805245406E+02  0.00000000000E+00 0.  1.
<scales pt_clust_5="13000.00000" pt_clust_6="13000.00000" pt_clust_7="13000.00000" pt_clust_8="13000.00000" pt_clust_9="24.65669"></scales>
<clustering>
<clus scale="   24.657">  2  9  1 -1</clus>
<clus scale="   91.902">  5  6 -1 -1</clus>
<clus scale="   92.218">  7  8 -1 -1</clus>
<clus scale="   95.042">  2  5  1 -1</clus>
<clus scale="   24.657">  2  5  1 -1</clus>
</clustering>
</event>
<event>
 9    1  0.1321469E-005  0.9716944E+02  0.7546771E-02  0.1286428E+00
          3   -1    0    0  502    0 -0.00000000000E+00  0.00000000000E+00  0.63746180206E+02  0.63746180206E+02  0.00000000000E+00 0. -1.
         21   -1    0    0  501  502  0.00000000000E+00 -0.00000000000E+00 -0.34799073134E+03  0.34799073134E+03  0.00000000000E+00 0.  1.
         23    2    1    2    0    0  0.27464533604E+02 -0.43675928734E+01 -0.10379628889E+02  0.96603482876E+02  0.91929971904E+02 0.  0.
         23    2    1    2    0    0 -0.33343859128E+02  0.26300340629E+02 -0.10956352192E+03  0.14927034646E+03  0.92054060946E+02 0.  0.
        -13    1    4    4    0    0 -0.10741147089E+02  0.20560184503E+02 -0.12106557179E+03  0.12326786321E+03  0.00000000000E+00 0.  1.
         13    1    4    4    0    0 -0.22602712038E+02  0.57401561262E+01  0.11502049868E+02  0.26002483247E+02  0.00000000000E+00 0. -1.
        -13    1    3    3    0    0  0.38991710084E+02 -0.41468658282E+02 -0.25913662066E+01  0.56979981167E+02  0.00000000000E+00 0. -1.
         13    1    3    3    0    0 -0.11527176481E+02  0.37101065408E+02 -0.77882626822E+01  0.39623501709E+02  0.00000000000E+00 0.  1.
          3    1    1    2  501    0  0.58793255241E+01 -0.21932747756E+02 -0.16430140033E+03  0.16586308222E+03  0.00000000000E+00 0. -1.
<scales pt_clust_5="13000.00000" pt_clust_6="13000.00000" pt_clust_7="13000.00000" pt_clust_8="13000.00000" pt_clust_9="22.70709"></scales>
<clustering>
<clus scale="   22.707">  2  9  1 -1</clus>
<clus scale="   91.930">  7  8 -1 -1</clus>
<clus scale="   92.054">  5  6 -1 -1</clus>
<clus scale="   97.052">  1  7  2 -1</clus>
<clus scale="   22.707">  2  5  1 -1</clus>
</clustering>
</event>
<event>
 9    1  0.1321469E-005  0.1004542E+03  0.7546771E-02  0.1282369E+00
         21   -1    0    0  501  502  0.00000000000E+00  0.00000000000E+00  0.45702162678E+02  0.45702162678E+02  0.00000000000E+00 0.  1.
         -1   -1    0    0    0  501 -0.00000000000E+00 -0.00000000000E+00 -0.54448735680E+03  0.54448735680E+03  0.00000000000E+00 0.  1.
         23    2    1    2    0    0 -0.75277597544E+01  0.93191736771E+01 -0.27924737474E+03  0.29595717804E+03  0.97303857941E+02 0.  0.
         23    2    1    2    0    0  0.31651893074E+02 -0.25818962443E+02 -0.23897534258E+03  0.25913199748E+03  0.91497085207E+02 0.  0.
        -11    1    3    3    0    0  0.43272694923E+02  0.16409801205E+02 -0.14690925653E+03  0.15402641772E+03  0.00000000000E+00 0.  1.
         11    1    3    3    0    0 -0.50800454677E+02 -0.70906275281E+01 -0.13233811821E+03  0.14193076032E+03  0.00000000000E+00 0. -1.
        -13    1    4    4    0    0  0.43594629480E+00  0.33145652467E+02 -0.89555696778E+02  0.95493702159E+02  0.00000000000E+00 0. -1.
         13    1    4    4    0    0  0.31215946779E+02 -0.58964614910E+02 -0.14941964580E+03  0.16363829532E+03  0.00000000000E+00 0.  1.
         -1    1    1    2    0  502 -0.24124133319E+02  0.16499788766E+02  0.19437523197E+02  0.35100343955E+02  0.00000000000E+00 0.  1.
<scales pt_clust_5="13000.00000" pt_clust_6="13000.00000" pt_clust_7="13000.00000" pt_clust_8="13000.00000" pt_clust_9="29.22699"></scales>
<clustering>
<clus scale="   29.227">  1  9  2 -1</clus>
<clus scale="   91.497">  7  8 -1 -1</clus>
<clus scale="   94.841">  1  7  2 -1</clus>
<clus scale="   97.304">  5  6 -1 -1</clus>
<clus scale="   29.227">  1  5  2 -1</clus>
</clustering>
</event>
<event>
 9    1  0.1321469E-005  0.1043687E+03  0.7546771E-02  0.1271933E+00
          1   -1    0    0  502    0 -0.00000000000E+00  0.00000000000E+00  0.17021319855E+03  0.17021319855E+03  0.00000000000E+00 0. -1.
         21   -1    0    0  501  502  0.00000000000E+00 -0.00000000000E+00 -0.12742566820E+03  0.12742566820E+03  0.00000000000E+00 0.  1.
         23    2    1    2    0    0 -0.29153962753E+02 -0.33692671128E+02  0.99185775756E+02  0.14245175610E+03  0.92030076991E+02 0.  0.
         23    2    1    2    0    0  0.47902307279E+02  0.50760965431E+02 -0.60529374886E+02  0.12949872177E+03  0.90745837706E+02 0.  0.
        -11    1    3    3    0    0  0.31154831539E+02 -0.24212602478E+02  0.52093325831E+02  0.65349737897E+02  0.00000000000E+00 0.  1.
         11    1    3    3    0    0 -0.60308794293E+02 -0.94800686497E+01  0.47092449925E+02  0.77102018200E+02  0.00000000000E+00 0. -1.
        -13    1    4    4    0    0  0.63011206735E+02  0.66450137979E+02 -0.55712655603E+02  0.10719110507E+03  0.00000000000E+00 0.  1.
         13    1    4    4    0    0 -0.15108899457E+02 -0.15689172548E+02 -0.48167192829E+01  0.22307616697E+02  0.00000000000E+00 0. -1.
          1    1    1    2  501    0 -0.18748344526E+02 -0.17068294303E+02  0.41311294780E+01  0.25688388887E+02  0.00000000000E+00 0. -1.
<scales pt_clust_5="13000.00000" pt_clust_6="13000.00000" pt_clust_7="13000.00000" pt_clust_8="13000.00000" pt_clust_9="25.35405"></scales>
<clustering>
<clus scale="   25.354">  2  9  1 -1</clus>
<clus scale="   90.746">  7  8 -1 -1</clus>
<clus scale="   92.030">  5  6 -1 -1</clus>
<clus scale="  103.238">  2  7  1 -1</clus>
<clus scale="   25.354">  2  5  1 -1</clus>
</clustering>
</event>
<event>
 9    1  0.1321469E-005  0.1811336E+03  0.7546771E-02  0.1166985E+00
          3   -1    0    0  502    0 -0.00000000000E+00  0.00000000000E+00  0.26881552512E+03  0.26881552512E+03  0.00000000000E+00 0. -1.
         21   -1    0    0  501  502  0.00000000000E+00 -0.00000000000E+00 -0.16476367359E+03  0.16476367359E+03  0.00000000000E+00 0. -1.
         23    2    1    2    0    0  0.88931843848E+02  0.13242250345E+03  0.11122645999E+03  0.21485193546E+03  0.91353360628E+02 0.  0.
         23    2    1    2    0    0 -0.51526797206E+02 -0.14535604949E+03  0.19822336648E+01  0.17810384778E+03  0.89071091761E+02 0.  0.
        -11    1    3    3    0    0  0.46169692610E+02  0.12633871844E+03  0.58469456378E+02  0.14666897975E+03  0.00000000000E+00 0.  1.
         11    1    3    3    0    0  0.42762151238E+02  0.60837850091E+01  0.52757003612E+02  0.68182955705E+02  0.00000000000E+00 0. -1.
        -11    1    4    4    0    0 -0.40675759806E+01 -0.11340599198E+03  0.25396877607E+02  0.11628613668E+03  0.00000000000E+00 0. -1.
         11    1    4    4    0    0 -0.47459221225E+02 -0.31950057515E+02 -0.23414643943E+02  0.61817711098E+02  0.00000000000E+00 0.  1.
          3    1    1    2  501    0 -0.37405046643E+02  0.12933546048E+02 -0.91568421198E+01  0.40623415481E+02  0.00000000000E+00 0. -1.
<scales pt_clust_5="13000.00000" pt_clust_6="13000.00000" pt_clust_7="13000.00000" pt_clust_8="13000.00000" pt_clust_9="39.57795"></scales>
<clustering>
<clus scale="   39.578">  2  9  1 -1</clus>
<clus scale="   89.071">  7  8 -1 -1</clus>
<clus scale="   91.353">  5  6 -1 -1</clus>
<clus scale="  179.993">  2  7  1 -1</clus>
<clus scale="   39.578">  2  5  1 -1</clus>
</clustering>
</event>
<event>
 9    1  0.1321469E-005  0.1200855E+03  0.7546771E-02  0.1243620E+00
         -1   -1    0    0    0  501 -0.00000000000E+00  0.00000000000E+00  0.31035100844E+03  0.31035100844E+03  0.00000000000E+00 0.  1.
         21   -1    0    0  501  502  0.00000000000E+00 -0.00000000000E+00 -0.15780928745E+03  0.15780928745E+03  0.00000000000E+00 0.  1.
         23    2    1    2    0    0 -0.39051151329E+02 -0.58904489361E+02  0.15668031711E+03  0.19613541309E+03  0.94475643493E+02 0.  0.
         23    2    1    2    0    0  0.12594925010E+03 -0.35427805310E+01  0.31157942398E+02  0.15934486363E+03  0.92434859751E+02 0.  0.
        -11    1    3    3    0    0 -0.55459742884E+02 -0.39825944067E+02  0.15674586473E+03  0.17097121106E+03  0.00000000000E+00 0.  1.
         11    1    3    3    0    0  0.16408591555E+02 -0.19078545293E+02 -0.65547624702E-01  0.25164202030E+02  0.00000000000E+00 0. -1.
        -11    1    4    4    0    0  0.71058232269E+02 -0.65009509653E+01  0.63540250225E+02  0.95545267467E+02  0.00000000000E+00 0.  1.
         11    1    4    4    0    0  0.54891017829E+02  0.29581704343E+01 -0.32382307827E+02  0.63799596165E+02  0.00000000000E+00 0. -1.
         -1    1    1    2    0  502 -0.86898098769E+02  0.62447269892E+02 -0.35296538520E+02  0.11268001916E+03  0.00000000000E+00 0.  1.
<scales pt_clust_5="13000.00000" pt_clust_6="13000.00000" pt_clust_7="13000.00000" pt_clust_8="13000.00000" pt_clust_9="107.00907"></scales>
<clustering>
<clus scale="   92.435">  7  8 -1 -1</clus>
<clus scale="   94.476">  5  6 -1 -1</clus>
<clus scale="  107.009">  2  9  1 -1</clus>
<clus scale="  118.487">  2  7  1 -1</clus>
<clus scale="  107.009">  2  5  1 -1</clus>
</clustering>
</event>
<event>
 9    1  0.1321469E-005  0.9671351E+02  0.7546771E-02  0.1288027E+00
         21   -1    0    0  501  502  0.00000000000E+00  0.00000000000E+00  0.36253421477E+03  0.36253421477E+03  0.00000000000E+00 0. -1.
          1   -1    0    0  502    0 -0.00000000000E+00 -0.00000000000E+00 -0.13782094842E+03  0.13782094842E+03  0.00000000000E+00 0. -1.
         23    2    1    2    0    0 -0.46543477192E+02  0.22898964188E+02 -0.73743892407E+02  0.12715298843E+03  0.89660821825E+02 0.  0.
         23    2    1    2    0    0 -0.94145507828E+01 -0.18219612037E+02  0.25078727964E+02  0.94116231633E+02  0.88364780492E+02 0.  0.
        -11    1    3    3    0    0 -0.64035137689E+02  0.78019019305E+01 -0.80425860157E+02  0.10310037592E+03  0.00000000000E+00 0. -1.
         11    1    3    3    0    0  0.17491660497E+02  0.15097062257E+02  0.66819677508E+01  0.24052612514E+02  0.00000000000E+00 0.  1.
        -11    1    4    4    0    0  0.26839320639E+02 -0.40180617963E+02  0.13928359499E+02  0.50287477473E+02  0.00000000000E+00 0. -1.
         11    1    4    4    0    0 -0.36253871422E+02  0.21961005926E+02  0.11150368465E+02  0.43828754160E+02  0.00000000000E+00 0.  1.
          1    1    1    2  501    0  0.55958027975E+02 -0.46793521502E+01  0.27337843079E+03  0.27908594313E+03  0.00000000000E+00 0. -1.
<scales pt_clust_5="13000.00000" pt_clust_6="13000.00000" pt_clust_7="13000.00000" pt_clust_8="13000.00000" pt_clust_9="56.15334"></scales>
<clustering>
<clus scale="   56.153">  1  9  2 -1</clus>
<clus scale="   88.365">  7  8 -1 -1</clus>
<clus scale="   89.661">  5  6 -1 -1</clus>
<clus scale="   95.513">  1  7  2 -1</clus>
<clus scale="   56.153">  1  5  2 -1</clus>
</clustering>
</event>
<event>
 9    1  0.1321469E-005  0.9574970E+02  0.7546771E-02  0.1289612E+00
         -4   -1    0    0    0  501 -0.00000000000E+00  0.00000000000E+00  0.56345300473E+02  0.56345300473E+02  0.00000000000E+00 0.  1.
         21   -1    0    0  501  502  0.00000000000E+00 -0.00000000000E+00 -0.70666367543E+03  0.70666367543E+03  0.00000000000E+00 0.  1.
         23    2    1    2    0    0  0.28804931193E+00  0.33503403195E+02 -0.42341159921E+01  0.96048647411E+02  0.89915815812E+02 0.  0.
         23    2    1    2    0    0 -0.56438782670E+02 -0.22282884289E+02 -0.41896061957E+03  0.43272977439E+03  0.89695004183E+02 0.  0.
        -11    1    3    3    0    0  0.40402526604E+02  0.98834934751E+01 -0.20968564652E+02  0.46580342451E+02  0.00000000000E+00 0.  1.
         11    1    3    3    0    0 -0.40114477292E+02  0.23619909720E+02  0.16734448660E+02  0.49468304960E+02  0.00000000000E+00 0. -1.
        -13    1    4    4    0    0  0.12736031253E+02  0.21207406748E+02 -0.13495502425E+03  0.13720356833E+03  0.00000000000E+00 0. -1.
         13    1    4    4    0    0 -0.69174813923E+02 -0.43490291038E+02 -0.28400559532E+03  0.29552620606E+03  0.00000000000E+00 0.  1.
         -4    1    1    2    0  502  0.56150733358E+02 -0.11220518906E+02 -0.22712363939E+03  0.23423055410E+03  0.00000000000E+00 0.  1.
<scales pt_clust_5="13000.00000" pt_clust_6="13000.00000" pt_clust_7="13000.00000" pt_clust_8="13000.00000" pt_clust_9="57.26085"></scales>
<clustering>
<clus scale="   57.261">  2  9  1 -1</clus>
<clus scale="   89.695">  7  8 -1 -1</clus>
<clus scale="   89.916">  5  6 -1 -1</clus>
<clus scale="   95.542">  2  7  1 -1</clus>
<clus scale="   57.261">  2  5  1 -1</clus>
</clustering>
</event>
<event>
 9    1  0.1321469E-005  0.9778396E+02  0.7546771E-02  0.1285804E+00
         -2   -1    0    0    0  501 -0.00000000000E+00  0.00000000000E+00  0.19953228293E+03  0.19953228293E+03  0.00000000000E+00 0.  1.
         21   -1    0    0  501  502  0.00000000000E+00 -0.00000000000E+00 -0.72789715011E+02  0.72789715011E+02  0.00000000000E+00 0. -1.
         23    2    1    2    0    0  0.38584549570E+02  0.13675257890E+02  0.10865027067E+03  0.14864911980E+03  0.92821868954E+02 0.  0.
         23    2    1    2    0    0 -0.10882056465E+02 -0.12651062925E+01  0.14360345183E+02  0.93089100528E+02  0.91319994944E+02 0.  0.
        -11    1    4    4    0    0 -0.40774376861E+02  0.28313162582E+02  0.41438039252E+01  0.49813212051E+02  0.00000000000E+00 0.  1.
         11    1    4    4    0    0  0.29892320396E+02 -0.29578268875E+02  0.10216541258E+02  0.43275888478E+02  0.00000000000E+00 0. -1.
        -13    1    3    3    0    0  0.48877524991E+02 -0.18599999767E+02  0.10127217635E+03  0.11397818275E+03  0.00000000000E+00 0. -1.
         13    1    3    3    0    0 -0.10292975420E+02  0.32275257657E+02  0.73780943179E+01  0.34670937045E+02  0.00000000000E+00 0.  1.
         -2    1    1    2    0  502 -0.27702493105E+02 -0.12410151598E+02  0.37319520662E+01  0.30583777614E+02  0.00000000000E+00 0.  1.
<scales pt_clust_5="13000.00000" pt_clust_6="13000.00000" pt_clust_7="13000.00000" pt_clust_8="13000.00000" pt_clust_9="30.35523"></scales>
<clustering>
<clus scale="   30.355">  2  9  1 -1</clus>
<clus scale="   91.320">  5  6 -1 -1</clus>
<clus scale="   92.822">  7  8 -1 -1</clus>
<clus scale="   96.359">  2  5  1 -1</clus>
<clus scale="   30.355">  2  5  1 -1</clus>
</clustering>
</event>
<event>
 9    1  0.1321469E-005  0.1142031E+03  0.7546771E-02  0.1262997E+00
         21   -1    0    0  501  502  0.00000000000E+00  0.00000000000E+00  0.31584049034E+02  0.31584049034E+02  0.00000000000E+00 0. -1.
          2   -1    0    0  502    0 -0.00000000000E+00 -0.00000000000E+00 -0.63417013068E+03  0.63417013068E+03  0.00000000000E+00 0. -1.
         23    2    1    2    0    0 -0.45888605917E+02  0.41589744948E+02 -0.24667571863E+03  0.26323539892E+03  0.67885889894E+02 0.  0.
         23    2    1    2    0    0  0.33677267880E+02 -0.67569002482E+02 -0.14055697432E+03  0.18526059194E+03  0.94156759868E+02 0.  0.
        -11    1    3    3    0    0 -0.51897380997E+02  0.38841340440E+01 -0.16627681600E+03  0.17423089333E+03  0.00000000000E+00 0.  1.
         11    1    3    3    0    0  0.60087750804E+01  0.37705610904E+02 -0.80398902624E+02  0.89004505587E+02  0.00000000000E+00 0. -1.
        -13    1    4    4    0    0  0.57937965787E+02 -0.36793194382E+02 -0.12595412465E+03  0.14343984296E+03  0.00000000000E+00 0. -1.
         13    1    4    4    0    0 -0.24260697907E+02 -0.30775808100E+02 -0.14602849674E+02  0.41820748986E+02  0.00000000000E+00 0.  1.
          2    1    1    2  501    0  0.12211338036E+02  0.25979257534E+02 -0.21535338870E+03  0.21725818886E+03  0.00000000000E+00 0. -1.
<scales pt_clust_5="13000.00000" pt_clust_6="13000.00000" pt_clust_7="13000.00000" pt_clust_8="13000.00000" pt_clust_9="28.70609"></scales>
<clustering>
<clus scale="   28.706">  1  9  2 -1</clus>
<clus scale="   67.886">  5  6 -1 -1</clus>
<clus scale="   93.730">  2  5  1 -1</clus>
<clus scale="   94.157">  7  8 -1 -1</clus>
<clus scale="   28.706">  1  5  2 -1</clus>
</clustering>
</event>
<event>
 9    1  0.1321469E-005  0.1036944E+03  0.7546771E-02  0.1276355E+00
         21   -1    0    0  501  502  0.00000000000E+00  0.00000000000E+00  0.13457951918E+03  0.13457951918E+03  0.00000000000E+00 0.  1.
          2   -1    0    0  502    0 -0.00000000000E+00 -0.00000000000E+00 -0.10539719579E+03  0.10539719579E+03  0.00000000000E+00 0. -1.
         23    2    1    2    0    0  0.27431088213E+02  0.30027691595E+02 -0.79499052002E+01  0.10011328388E+03  0.91133647759E+02 0.  0.
         23    2    1    2    0    0 -0.32556079106E+02 -0.50826010856E+02  0.70472968678E+01  0.10293188993E+03  0.83079046130E+02 0.  0.
        -11    1    3    3    0    0 -0.11363625388E+02 -0.27479430223E+02  0.29913444135E+01  0.29886438542E+02  0.00000000000E+00 0.  1.
         11    1    3    3    0    0  0.38794713601E+02  0.57507121819E+02 -0.10941249614E+02  0.70226845340E+02  0.00000000000E+00 0. -1.
        -11    1    4    4    0    0 -0.45205933647E+02 -0.36805423581E+01  0.23930582952E+02  0.51281533025E+02  0.00000000000E+00 0.  1.
         11    1    4    4    0    0  0.12649854541E+02 -0.47145468498E+02 -0.16883286085E+02  0.51650356909E+02  0.00000000000E+00 0. -1.
          2    1    1    2  501    0  0.51249908934E+01  0.20798319261E+02  0.30084931714E+02  0.36931541154E+02  0.00000000000E+00 0. -1.
<scales pt_clust_5="13000.00000" pt_clust_6="13000.00000" pt_clust_7="13000.00000" pt_clust_8="13000.00000" pt_clust_9="21.42045"></scales>
<clustering>
<clus scale="   21.420">  1  9  2 -1</clus>
<clus scale="   83.079">  7  8 -1 -1</clus>
<clus scale="   91.134">  5  6 -1 -1</clus>
<clus scale="   96.692">  1  7  2 -1</clus>
<clus scale="   21.420">  1  5  2 -1</clus>
</clustering>
</event>
<event>
 9    1  0.1321469E-005  0.1393605E+03  0.7546771E-02  0.1231294E+00
          4   -1    0    0  502    0 -0.00000000000E+00  0.00000000000E+00  0.10311543807E+03  0.10311543807E+03  0.00000000000E+00 0. -1.
         21   -1    0    0  501  502  0.00000000000E+00 -0.00000000000E+00 -0.42707396081E+03  0.42707396081E+03  0.00000000000E+00 0.  1.
         23    2    1    2    0    0  0.78201364933E+01 -0.29446333877E+02  0.27033972663E+02  0.10115469668E+03  0.92591553980E+02 0.  0.
         23    2    1    2    0    0  0.18167624485E+02 -0.86697909030E+02 -0.16855265209E+03  0.21120645493E+03  0.91386979758E+02 0.  0.
        -13    1    4    4    0    0  0.51630197225E+02 -0.53891721900E+02 -0.71130270956E+02  0.10309951698E+03  0.00000000000E+00 0.  1.
         13    1    4    4    0    0 -0.33462572740E+02 -0.32806187130E+02 -0.97422381130E+02  0.10810693795E+03  0.00000000000E+00 0. -1.
        -13    1    3    3    0    0  0.30669436012E+02 -0.71661767875E+01 -0.24933446594E+02  0.40170202316E+02  0.00000000000E+00 0.  1.
         13    1    3    3    0    0 -0.22849299518E+02 -0.22280157090E+02  0.51967419257E+02  0.60984494362E+02  0.00000000000E+00 0. -1.
          4    1    1    2  501    0 -0.25987760978E+02  0.11614424291E+03 -0.18243984332E+03  0.21782824728E+03  0.00000000000E+00 0. -1.
<scales pt_clust_5="13000.00000" pt_clust_6="13000.00000" pt_clust_7="13000.00000" pt_clust_8="13000.00000" pt_clust_9="105.21304"></scales>
<clustering>
<clus scale="   91.387">  5  6 -1 -1</clus>
<clus scale="   92.592">  7  8 -1 -1</clus>
<clus scale="   97.475">  1  7  2 -1</clus>
<clus scale="  105.213">  2  9  1 -1</clus>
<clus scale="  105.213">  2  5  1 -1</clus>
</clustering>
</event>
<event>
 9    1  0.1321469E-005  0.1213660E+03  0.7546771E-02  0.1241443E+00
         21   -1    0    0  501  502  0.00000000000E+00  0.00000000000E+00  0.37965045462E+03  0.37965045462E+03  0.00000000000E+00 0.  1.
         -1   -1    0    0    0  501 -0.00000000000E+00 -0.00000000000E+00 -0.10646500710E+03  0.10646500710E+03  0.00000000000E+00 0.  1.
         23    2    1    2    0    0  0.37504294593E+02  0.65111915866E+02 -0.38640393055E+02  0.12445007783E+03  0.91370718482E+02 0.  0.
         23    2    1    2    0    0 -0.51425197093E+02 -0.87010630177E+02  0.16795696031E+03  0.21547509719E+03  0.89468297923E+02 0.  0.
        -13    1    3    3    0    0  0.66029753534E+02  0.54806037393E+02 -0.38664513772E+02  0.94120001656E+02  0.00000000000E+00 0.  1.
         13    1    3    3    0    0 -0.28525458941E+02  0.10305878473E+02  0.24120717577E-01  0.30330076174E+02  0.00000000000E+00 0. -1.
        -13    1    4    4    0    0 -0.19055668343E+02 -0.33766614608E+02  0.14331660322E+03  0.14846868867E+03  0.00000000000E+00 0.  1.
         13    1    4    4    0    0 -0.32369528749E+02 -0.53244015569E+02  0.24640357097E+02  0.67006408523E+02  0.00000000000E+00 0. -1.
         -1    1    1    2    0  502  0.13920902499E+02  0.21898714311E+02  0.14386888026E+03  0.14619028669E+03  0.00000000000E+00 0.  1.
<scales pt_clust_5="13000.00000" pt_clust_6="13000.00000" pt_clust_7="13000.00000" pt_clust_8="13000.00000" pt_clust_9="25.94890"></scales>
<clustering>
<clus scale="   25.949">  1  9  2 -1</clus>
<clus scale="   89.468">  7  8 -1 -1</clus>
<clus scale="   91.371">  5  6 -1 -1</clus>
<clus scale="  119.940">  1  7  2 -1</clus>
<clus scale="   25.949">  1  5  2 -1</clus>
</clustering>
</event>
<event>
 9    1  0.1321469E-005  0.1125843E+03  0.7546771E-02  0.1262802E+00
          1   -1    0    0  502    0 -0.00000000000E+00  0.00000000000E+00  0.28355727027E+03  0.28355727027E+03  0.00000000000E+00 0. -1.
         21   -1    0    0  501  502  0.00000000000E+00 -0.00000000000E+00 -0.57245907103E+02  0.57245907103E+02  0.00000000000E+00 0.  1.
         23    2    1    2    0    0  0.19661090832E+02 -0.37480115585E+02  0.11791701432E+03  0.15587319129E+03  0.92740023390E+02 0.  0.
         23    2    1    2    0    0 -0.28509050113E+02  0.37779689744E+00  0.84140675617E+02  0.13972922170E+03  0.10785032886E+03 0.  0.
        -11    1    3    3    0    0 -0.31017720163E+02  0.25359329525E+01  0.15420580403E+02  0.34732178452E+02  0.00000000000E+00 0. -1.
         11    1    3    3    0    0  0.50678810995E+02 -0.40016048537E+02  0.10249643392E+03  0.12114101284E+03  0.00000000000E+00 0.  1.
        -13    1    4    4    0    0  0.18917761106E+01  0.27473511970E+02  0.93898256670E+02  0.97853233378E+02  0.00000000000E+00 0. -1.
         13    1    4    4    0    0 -0.30400826224E+02 -0.27095715072E+02 -0.97575810527E+01  0.41875988327E+02  0.00000000000E+00 0.  1.
          1    1    1    2  501    0  0.88479592815E+01  0.37102318687E+02  0.24253673222E+02  0.45200764376E+02  0.00000000000E+00 0. -1.
<scales pt_clust_5="13000.00000" pt_clust_6="13000.00000" pt_clust_7="13000.00000" pt_clust_8="13000.00000" pt_clust_9="38.14274"></scales>
<clustering>
<clus scale="   38.143">  2  9  1 -1</clus>
<clus scale="   92.740">  5  6 -1 -1</clus>
<clus scale="   98.205">  1  5  2 -1</clus>
<clus scale="  107.850">  7  8 -1 -1</clus>
<clus scale="   38.143">  2  5  1 -1</clus>
</clustering>
</event>
<event>
 9    1  0.1321469E-005  0.1042778E+03  0.7546771E-02  0.1275386E+00
         21   -1    0    0  501  502  0.00000000000E+00  0.00000000000E+00  0.34204518056E+03  0.34204518056E+03  0.00000000000E+00 0. -1.
         -3   -1    0    0    0  501 -0.00000000000E+00 -0.00000000000E+00 -0.88621374317E+02  0.88621374317E+02  0.00000000000E+00 0.  1.
         23    2    1    2    0    0 -0.44726550042E+02 -0.29824676999E+02 -0.35070124759E+01  0.10953403896E+03  0.95369968637E+02 0.  0.
         23    2    1    2    0    0  0.12592281168E+02  0.27593938720E+02  0.37987475760E+02  0.99832324197E+02  0.87197784610E+02 0.  0.
        -11    1    3    3    0    0  0.32356018635E+00  0.28711898982E+02  0.16355426923E+02  0.33045087746E+02  0.00000000000E+00 0. -1.
         11    1    3    3    0    0 -0.45050110229E+02 -0.58536575980E+02 -0.19862439399E+02  0.76488951215E+02  0.00000000000E+00 0.  1.
        -13    1    4    4    0    0  0.21910357354E+02  0.46448190257E+02  0.53147769792E+02  0.73906586793E+02  0.00000000000E+00 0. -1.
         13    1    4    4    0    0 -0.93180761855E+01 -0.18854251537E+02 -0.15160294032E+02  0.25925737404E+02  0.00000000000E+00 0.  1.
         -3    1    1    2    0  502  0.32134268874E+02  0.22307382790E+01  0.21894334296E+03  0.22130019172E+03  0.00000000000E+00 0.  1.
<scales pt_clust_5="13000.00000" pt_clust_6="13000.00000" pt_clust_7="13000.00000" pt_clust_8="13000.00000" pt_clust_9="32.21160"></scales>
<clustering>
<clus scale="   32.212">  1  9  2 -1</clus>
<clus scale="   87.198">  7  8 -1 -1</clus>
<clus scale="   95.370">  5  6 -1 -1</clus>
<clus scale="   96.860">  1  7  2 -1</clus>
<clus scale="   32.212">  1  5  2 -1</clus>
</clustering>
</event>
<event>
 9    1  0.1321469E-005  0.1002718E+03  0.7546771E-02  0.1281202E+00
          1   -1    0    0  502    0 -0.00000000000E+00  0.00000000000E+00  0.17878423837E+03  0.17878423837E+03  0.00000000000E+00 0. -1.
         21   -1    0    0  501  502  0.00000000000E+00 -0.00000000000E+00 -0.11345454027E+03  0.11345454027E+03  0.00000000000E+00 0.  1.
         23    2    1    2    0    0  0.31058268657E+02 -0.53595580712E+01  0.12187834839E+03  0.15654907221E+03  0.93058794787E+02 0.  0.
         23    2    1    2    0    0 -0.13331646789E+02  0.19354097221E+02 -0.54941565787E+02  0.11304764447E+03  0.95962911505E+02 0.  0.
        -11    1    3    3    0    0  0.63591087562E+02  0.38838640277E+01  0.70324525125E+02  0.94891778628E+02  0.00000000000E+00 0.  1.
         11    1    3    3    0    0 -0.32532818905E+02 -0.92434220989E+01  0.51553823266E+02  0.61657293578E+02  0.00000000000E+00 0. -1.
        -13    1    4    4    0    0  0.36292382344E+02  0.23898544931E+02 -0.44374747596E+02  0.62107935807E+02  0.00000000000E+00 0.  1.
         13    1    4    4    0    0 -0.49624029132E+02 -0.45444477101E+01 -0.10566818191E+02  0.50939708666E+02  0.00000000000E+00 0. -1.
          1    1    1    2  501    0 -0.17726621868E+02 -0.13994539150E+02 -0.16070845030E+01  0.22642061953E+02  0.00000000000E+00 0. -1.
<scales pt_clust_5="13000.00000" pt_clust_6="13000.00000" pt_clust_7="13000.00000" pt_clust_8="13000.00000" pt_clust_9="22.58496"></scales>
<clustering>
<clus scale="   22.585">  2  9  1 -1</clus>
<clus scale="   93.059">  5  6 -1 -1</clus>
<clus scale="   95.963">  7  8 -1 -1</clus>
<clus scale="   97.496">  1  5  2 -1</clus>
<clus scale="   22.585">  2  5  1 -1</clus>
</clustering>
</event>
<event>
 9    1  0.1321469E-005  0.1375468E+03  0.7546771E-02  0.1217021E+00
         21   -1    0    0  501  502  0.00000000000E+00  0.00000000000E+00  0.39712846020E+03  0.39712846020E+03  0.00000000000E+00 0. -1.
          1   -1    0    0  502    0 -0.00000000000E+00 -0.00000000000E+00 -0.32735071252E+03  0.32735071252E+03  0.00000000000E+00 0. -1.
         23    2    1    2    0    0 -0.22203073823E+02 -0.67400403725E+02 -0.11637202605E+03  0.16416998466E+03  0.91507073529E+02 0.  0.
         23    2    1    2    0    0  0.23454210073E+01  0.17673722918E+03 -0.12110096878E+03  0.23358011597E+03  0.93019765431E+02 0.  0.
        -11    1    4    4    0    0  0.26973854668E+01  0.29150483208E+02 -0.72514957122E+02  0.78201314350E+02  0.00000000000E+00 0. -1.
         11    1    4    4    0    0 -0.35196445951E+00  0.14758674597E+03 -0.48586011662E+02  0.15537880162E+03  0.00000000000E+00 0.  1.
        -11    1    3    3    0    0 -0.45615486989E+02 -0.62601168627E+02 -0.11693727981E+03  0.14026405946E+03  0.00000000000E+00 0. -1.
         11    1    3    3    0    0  0.23412413166E+02 -0.47992350973E+01  0.56525375901E+00  0.23905925198E+02  0.00000000000E+00 0.  1.
          1    1    1    2  501    0  0.19857652816E+02 -0.10933682545E+03  0.30725074251E+03  0.32672907209E+03  0.00000000000E+00 0. -1.
<scales pt_clust_5="13000.00000" pt_clust_6="13000.00000" pt_clust_7="13000.00000" pt_clust_8="13000.00000" pt_clust_9="111.12546"></scales>
<clustering>
<clus scale="   91.507">  7  8 -1 -1</clus>
<clus scale="   93.020">  5  6 -1 -1</clus>
<clus scale="  111.125">  1  9  2 -1</clus>
<clus scale="  136.528">  2  7  1 -1</clus>
<clus scale="  111.125">  1  5  2 -1</clus>
</clustering>
</event>
<event>
 9    1  0.1321469E-005  0.9227682E+02  0.7546771E-02  0.1299650E+00
         21   -1    0    0  501  502  0.00000000000E+00  0.00000000000E+00  0.66784568474E+03  0.66784568474E+03  0.00000000000E+00 0.  1.
         -1   -1    0    0    0  501 -0.00000000000E+00 -0.00000000000E+00 -0.12525418377E+03  0.12525418377E+03  0.00000000000E+00 0.  1.
         23    2    1    2    0    0 -0.73803681313E+01 -0.87877963750E+01 -0.79991286658E+02  0.12179119450E+03  0.91119668111E+02 0.  0.
         23    2    1    2    0    0  0.56930043675E+02 -0.30600209256E+02  0.10927242293E+03  0.15411034084E+03  0.87362074503E+02 0.  0.
        -11    1    3    3    0    0 -0.35436117197E+02  0.28099950261E+02 -0.34848175909E+02  0.57093966151E+02  0.00000000000E+00 0. -1.
         11    1    3    3    0    0  0.28055749065E+02 -0.36887746636E+02 -0.45143110749E+02  0.64697228345E+02  0.00000000000E+00 0.  1.
        -13    1    4    4    0    0  0.67591972492E+02  0.48344195918E+01  0.89174977982E+02  0.11200099578E+03  0.00000000000E+00 0.  1.
         13    1    4    4    0    0 -0.10661928817E+02 -0.35434628848E+02  0.20097444945E+02  0.42109345056E+02  0.00000000000E+00 0. -1.
         -1    1    1    2    0  502 -0.49549675543E+02  0.39388005631E+02  0.51331036470E+03  0.51719833318E+03  0.00000000000E+00 0.  1.
<scales pt_clust_5="13000.00000" pt_clust_6="13000.00000" pt_clust_7="13000.00000" pt_clust_8="13000.00000" pt_clust_9="63.29759"></scales>
<clustering>
<clus scale="   63.298">  1  9  2 -1</clus>
<clus scale="   87.362">  7  8 -1 -1</clus>
<clus scale="   88.568">  1  7  2 -1</clus>
<clus scale="   91.120">  5  6 -1 -1</clus>
<clus scale="   63.298">  1  5  2 -1</clus>
</clustering>
</event>
<event>
 9    1  0.1321469E-005  0.1046580E+03  0.7546771E-02  0.1270850E+00
          4   -1    0    0  502    0 -0.00000000000E+00  0.00000000000E+00  0.45407342813E+02  0.45407342813E+02  0.00000000000E+00 0. -1.
         21   -1    0    0  501  502  0.00000000000E+00 -0.00000000000E+00 -0.53139678295E+03  0.53139678295E+03  0.00000000000E+00 0. -1.
         23    2    1    2    0    0 -0.45203717659E+02  0.37334951917E+02 -0.51618024212E+02  0.12055519045E+03  0.91825153391E+02 0.  0.
         23    2    1    2    0    0  0.27978167033E+02 -0.65083600022E+01 -0.23693479171E+03  0.25567919945E+03  0.91698532863E+02 0.  0.
        -11    1    4    4    0    0  0.12378929415E+02 -0.47657182936E+02 -0.15557110429E+03  0.16317724556E+03  0.00000000000E+00 0.  1.
         11    1    4    4    0    0  0.15599237618E+02  0.41148822934E+02 -0.81363687421E+02  0.92501953892E+02  0.00000000000E+00 0. -1.
        -13    1    3    3    0    0 -0.34206985346E+02  0.65030379187E+02 -0.18038127773E+02  0.75660043069E+02  0.00000000000E+00 0. -1.
         13    1    3    3    0    0 -0.10996732313E+02 -0.27695427270E+02 -0.33579896439E+02  0.44895147378E+02  0.00000000000E+00 0.  1.
          4    1    1    2  501    0  0.17225550626E+02 -0.30826591915E+02 -0.19743662422E+03  0.20056973587E+03  0.00000000000E+00 0. -1.
<scales pt_clust_5="13000.00000" pt_clust_6="13000.00000" pt_clust_7="13000.00000" pt_clust_8="13000.00000" pt_clust_9="35.31286"></scales>
<clustering>
<clus scale="   35.313">  2  9  1 -1</clus>
<clus scale="   91.699">  5  6 -1 -1</clus>
<clus scale="   91.825">  7  8 -1 -1</clus>
<clus scale="  104.547">  2  5  1 -1</clus>
<clus scale="   35.313">  2  5  1 -1</clus>
</clustering>
</event>
<event>
 9    1  0.1321469E-005  0.1169932E+03  0.7546771E-02  0.1249194E+00
          1   -1    0    0  502    0 -0.00000000000E+00  0.00000000000E+00  0.93375213016E+03  0.93375213016E+03  0.00000000000E+00 0. -1.
         21   -1    0    0  501  502  0.00000000000E+00 -0.00000000000E+00 -0.34502363716E+02  0.34502363716E+02  0.00000000000E+00 0.  1.
         23    2    1    2    0    0 -0.55636399847E+02  0.15749236726E+02  0.50393249146E+03  0.51559322125E+03  0.92438987514E+02 0.  0.
         23    2    1    2    0    0  0.10239414833E+03  0.12721220060E+01  0.37509112257E+03  0.39894804392E+03  0.89330910696E+02 0.  0.
        -13    1    4    4    0    0  0.30196600389E+02 -0.35663247587E+02  0.77439842475E+02  0.90446841327E+02  0.00000000000E+00 0. -1.
         13    1    4    4    0    0  0.72197547943E+02  0.36935369593E+02  0.29765128010E+03  0.30850120259E+03  0.00000000000E+00 0.  1.
        -13    1    3    3    0    0  0.11920212254E+02 -0.22048510888E+02  0.61028568012E+02  0.65975104442E+02  0.00000000000E+00 0.  1.
         13    1    3    3    0    0 -0.67556612101E+02  0.37797747614E+02  0.44290392344E+03  0.44961811681E+03  0.00000000000E+00 0. -1.
          1    1    1    2  501    0 -0.46757748485E+02 -0.17021358732E+02  0.20226152418E+02  0.53713228707E+02  0.00000000000E+00 0. -1.
<scales pt_clust_5="13000.00000" pt_clust_6="13000.00000" pt_clust_7="13000.00000" pt_clust_8="13000.00000" pt_clust_9="49.75956"></scales>
<clustering>
<clus scale="   49.760">  2  9  1 -1</clus>
<clus scale="   89.331">  5  6 -1 -1</clus>
<clus scale="   92.439">  7  8 -1 -1</clus>
<clus scale="  114.553">  2  5  1 -1</clus>
<clus scale="   49.760">  2  5  1 -1</clus>
</clustering>
</event>
<event>
 9    1  0.1321469E-005  0.1318698E+03  0.7546771E-02  0.1225092E+00
          2   -1    0    0  502    0 -0.00000000000E+00  0.00000000000E+00  0.64962545236E+03  0.64962545236E+03  0.00000000000E+00 0. -1.
         21   -1    0    0  501  502  0.00000000000E+00 -0.00000000000E+00 -0.38994261182E+02  0.38994261182E+02  0.00000000000E+00 0.  1.
         23    2    1    2    0    0  0.98629763206E+02 -0.20599950661E+02  0.39998029062E+03  0.42225691122E+03  0.90357501237E+02 0.  0.
         23    2    1    2    0    0 -0.72983825031E+02  0.46813887772E+02  0.16482563883E+03  0.20767004931E+03  0.91875891074E+02 0.  0.
        -13    1    3    3    0    0  0.86228213082E+02 -0.46149879439E+02  0.36108988247E+03  0.37410027978E+03  0.00000000000E+00 0. -1.
         13    1    3    3    0    0  0.12401550125E+02  0.25549928778E+02  0.38890408142E+02  0.48156631439E+02  0.00000000000E+00 0.  1.
        -13    1    4    4    0    0 -0.26054536586E+02  0.68190927750E+02  0.79163314881E+02  0.10768320169E+03  0.00000000000E+00 0.  1.
         13    1    4    4    0    0 -0.46929288445E+02 -0.21377039977E+02  0.85662323949E+02  0.99986847618E+02  0.00000000000E+00 0. -1.
          2    1    1    2  501    0 -0.25645938176E+02 -0.26213937111E+02  0.45825261732E+02  0.58692753016E+02  0.00000000000E+00 0. -1.
<scales pt_clust_5="13000.00000" pt_clust_6="13000.00000" pt_clust_7="13000.00000" pt_clust_8="13000.00000" pt_clust_9="36.67267"></scales>
<clustering>
<clus scale="   36.673">  2  9  1 -1</clus>
<clus scale="   90.358">  5  6 -1 -1</clus>
<clus scale="   91.876">  7  8 -1 -1</clus>
<clus scale="  130.816">  1  5  2 -1</clus>
<clus scale="   36.673">  2  5  1 -1</clus>
</clustering>
</event>
<event>
 9    1  0.1321469E-005  0.1736437E+03  0.7546771E-02  0.1175142E+00
         21   -1    0    0  501  502  0.00000000000E+00  0.00000000000E+00  0.78152556761E+02  0.78152556761E+02  0.00000000000E+00 0. -1.
          2   -1    0    0  502    0 -0.00000000000E+00 -0.00000000000E+00 -0.85238376626E+03  0.85238376626E+03  0.00000000000E+00 0. -1.
         23    2    1    2    0    0  0.71829644666E+02  0.12280175704E+03 -0.54147112919E+03  0.56878577803E+03  0.10043160937E+03 0.  0.
         23    2    1    2    0    0 -0.14488545658E+03 -0.68876085556E+02 -0.16698244589E+03  0.24962638663E+03  0.93244222228E+02 0.  0.
        -11    1    4    4    0    0 -0.11492116411E+03 -0.50399399125E+01 -0.10280264640E+03  0.15427462222E+03  0.00000000000E+00 0. -1.
         11    1    4    4    0    0 -0.29964292465E+02 -0.63836145644E+02 -0.64179799494E+02  0.95351764413E+02  0.00000000000E+00 0.  1.
        -13    1    3    3    0    0  0.49284925472E+02  0.13774281532E+03 -0.47515888223E+03  0.49717004175E+03  0.00000000000E+00 0. -1.
         13    1    3    3    0    0  0.22544719194E+02 -0.14941058285E+02 -0.66312246952E+02  0.71615736273E+02  0.00000000000E+00 0.  1.
          2    1    1    2  501    0  0.73055811910E+02 -0.53925671480E+02 -0.65777634424E+02  0.11212415836E+03  0.00000000000E+00 0. -1.
<scales pt_clust_5="13000.00000" pt_clust_6="13000.00000" pt_clust_7="13000.00000" pt_clust_8="13000.00000" pt_clust_9="90.80270"></scales>
<clustering>
<clus scale="   90.803">  1  9  2 -1</clus>
<clus scale="   93.244">  5  6 -1 -1</clus>
<clus scale="  100.432">  7  8 -1 -1</clus>
<clus scale="  169.588">  1  5  2 -1</clus>
<clus scale="   90.803">  1  5  2 -1</clus>
</clustering>
</event>
<event>
 9    1  0.1321469E-005  0.9410548E+02  0.7546771E-02  0.1293370E+00
          1   -1    0    0  502    0 -0.00000000000E+00  0.00000000000E+00  0.26162184712E+03  0.26162184712E+03  0.00000000000E+00 0. -1.
         21   -1    0    0  501  502  0.00000000000E+00 -0.00000000000E+00 -0.61538861346E+02  0.61538861346E+02  0.00000000000E+00 0.  1.
         23    2    1    2    0    0 -0.16032461388E+02  0.20794522314E+02  0.17648443325E+03  0.20002266774E+03  0.90403874106E+02 0.  0.
         23    2    1    2    0    0 -0.52426096429E+01 -0.33139601896E+02  0.20932691863E+02  0.98396649288E+02  0.90099971325E+02 0.  0.
        -11    1    4    4    0    0 -0.36531480929E+02  0.10831231098E+02  0.22788245030E+02  0.44397846541E+02  0.00000000000E+00 0.  1.
         11    1    4    4    0    0  0.31288871286E+02 -0.43970832994E+02 -0.18555531668E+01  0.53998802747E+02  0.00000000000E+00 0. -1.
        -13    1    3    3    0    0  0.14625815929E+02 -0.24287427503E+02  0.11222967949E+03  0.11575532206E+03  0.00000000000E+00 0. -1.
         13    1    3    3    0    0 -0.30658277318E+02  0.45081949817E+02  0.64254753761E+02  0.84267345681E+02  0.00000000000E+00 0.  1.
          1    1    1    2  501    0  0.21275071031E+02  0.12345079583E+02  0.26658606600E+01  0.24741391439E+02  0.00000000000E+00 0. -1.
<scales pt_clust_5="13000.00000" pt_clust_6="13000.00000" pt_clust_7="13000.00000" pt_clust_8="13000.00000" pt_clust_9="24.59735"></scales>
<clustering>
<clus scale="   24.597">  2  9  1 -1</clus>
<clus scale="   90.100">  5  6 -1 -1</clus>
<clus scale="   90.404">  7  8 -1 -1</clus>
<clus scale="   93.814">  2  5  1 -1</clus>
<clus scale="   24.597">  2  5  1 -1</clus>
</clustering>
</event>
<event>
 9    1  0.1321469E-005  0.1051215E+03  0.7546771E-02  0.1270033E+00
         21   -1    0    0  501  502  0.00000000000E+00  0.00000000000E+00  0.89289732783E+02  0.89289732783E+02  0.00000000000E+00 0. -1.
          2   -1    0    0  502    0 -0.00000000000E+00 -0.00000000000E+00 -0.28100171966E+03  0.28100171966E+03  0.00000000000E+00 0. -1.
         23    2    1    2    0    0 -0.52585500040E+02 -0.31315756599E+02 -0.12442409686E+03  0.16586239517E+03  0.91011355471E+02 0.  0.
         23    2    1    2    0    0  0.50919136513E+02 -0.32205709790E+02 -0.84873431582E+02  0.13849723847E+03  0.91367496786E+02 0.  0.
        -11    1    3    3    0    0 -0.17754457798E+02 -0.59891583043E+02 -0.55741452230E+02  0.83721753373E+02  0.00000000000E+00 0. -1.
         11    1    3    3    0    0 -0.34831042242E+02  0.28575826444E+02 -0.68682644630E+02  0.82140641792E+02  0.00000000000E+00 0.  1.
        -13    1    4    4    0    0 -0.42994155354E+00  0.20720940600E+02  0.58965605381E+01  0.21547892130E+02  0.00000000000E+00 0.  1.
         13    1    4    4    0    0  0.51349078066E+02 -0.52926650389E+02 -0.90769992120E+02  0.11694934634E+03  0.00000000000E+00 0. -1.
          2    1    1    2  501    0  0.16663635273E+01  0.63521466388E+02  0.17585541564E+02  0.65931818810E+02  0.00000000000E+00 0. -1.
<scales pt_clust_5="13000.00000" pt_clust_6="13000.00000" pt_clust_7="13000.00000" pt_clust_8="13000.00000" pt_clust_9="63.54332"></scales>
<clustering>
<clus scale="   63.543">  1  9  2 -1</clus>
<clus scale="   91.011">  5  6 -1 -1</clus>
<clus scale="   91.367">  7  8 -1 -1</clus>
<clus scale="  104.812">  2  5  1 -1</clus>
<clus scale="   63.543">  1  5  2 -1</clus>
</clustering>
</event>
<event>
 9    1  0.1321469E-005  0.1079155E+03  0.7546771E-02  0.1266053E+00
         21   -1    0    0  501  502  0.00000000000E+00  0.00000000000E+00  0.13066664750E+03  0.13066664750E+03  0.00000000000E+00 0. -1.
          1   -1    0    0  502    0 -0.00000000000E+00 -0.00000000000E+00 -0.19796222513E+03  0.19796222513E+03  0.00000000000E+00 0. -1.
         23    2    1    2    0    0 -0.47673392862E+02  0.16761669684E+02 -0.73077020607E+02  0.12471453918E+03  0.87520051332E+02 0.  0.
         23    2    1    2    0    0  0.66136098216E+02 -0.90434735301E+01 -0.64894551364E+02  0.13046000602E+03  0.91393339331E+02 0.  0.
        -11    1    4    4    0    0  0.51076050843E+02  0.23210413536E+02 -0.74808824429E+02  0.93508536929E+02  0.00000000000E+00 0. -1.
         11    1    4    4    0    0  0.15060047373E+02 -0.32253887066E+02  0.99142730652E+01  0.36951469093E+02  0.00000000000E+00 0.  1.
        -11    1    3    3    0    0 -0.50788964571E+02 -0.12938229521E+02 -0.78752529602E+01  0.52999399190E+02  0.00000000000E+00 0.  1.
         11    1    3    3    0    0  0.31155717088E+01  0.29699899205E+02 -0.65201767647E+02  0.71715139993E+02  0.00000000000E+00 0. -1.
          1    1    1    2  501    0 -0.18462705353E+02 -0.77181961540E+01  0.70675994342E+02  0.73454327422E+02  0.00000000000E+00 0. -1.
<scales pt_clust_5="13000.00000" pt_clust_6="13000.00000" pt_clust_7="13000.00000" pt_clust_8="13000.00000" pt_clust_9="20.01105"></scales>
<clustering>
<clus scale="   20.011">  1  9  2 -1</clus>
<clus scale="   87.520">  7  8 -1 -1</clus>
<clus scale="   91.393">  5  6 -1 -1</clus>
<clus scale="  104.656">  2  7  1 -1</clus>
<clus scale="   20.011">  1  5  2 -1</clus>
</clustering>
</event>
<event>
 9    1  0.1321469E-005  0.9768004E+02  0.7546771E-02  0.1285649E+00
         21   -1    0    0  501  502  0.00000000000E+00  0.00000000000E+00  0.16609793513E+03  0.16609793513E+03  0.00000000000E+00 0. -1.
         -1   -1    0    0    0  501 -0.00000000000E+00 -0.00000000000E+00 -0.11687288537E+03  0.11687288537E+03  0.00000000000E+00 0.  1.
         23    2    1    2    0    0 -0.67077579661E+01 -0.34486161042E+02 -0.62662220611E+02  0.11620423977E+03  0.91337736612E+02 0.  0.
         23    2    1    2    0    0 -0.12130140667E+02  0.25270125800E+02  0.67233685418E+02  0.11743358589E+03  0.92111666308E+02 0.  0.
        -13    1    3    3    0    0  0.22124000091E+02 -0.54861196737E+02 -0.23971070655E+02  0.63826597244E+02  0.00000000000E+00 0. -1.
         13    1    3    3    0    0 -0.28831758057E+02  0.20375035695E+02 -0.38691149956E+02  0.52377642531E+02  0.00000000000E+00 0.  1.
        -13    1    4    4    0    0  0.18693617545E+02 -0.25613171791E+02  0.64060614596E+01  0.32350015913E+02  0.00000000000E+00 0. -1.
         13    1    4    4    0    0 -0.30823758211E+02  0.50883297591E+02  0.60827623959E+02  0.85083569980E+02  0.00000000000E+00 0.  1.
         -1    1    1    2    0  502  0.18837898633E+02  0.92160352419E+01  0.44653584952E+02  0.49332994837E+02  0.00000000000E+00 0.  1.
<scales pt_clust_5="13000.00000" pt_clust_6="13000.00000" pt_clust_7="13000.00000" pt_clust_8="13000.00000" pt_clust_9="20.97145"></scales>
<clustering>
<clus scale="   20.971">  1  9  2 -1</clus>
<clus scale="   91.338">  5  6 -1 -1</clus>
<clus scale="   92.112">  7  8 -1 -1</clus>
<clus scale="   96.951">  2  5  1 -1</clus>
<clus scale="   20.971">  1  5  2 -1</clus>
</clustering>
</event>
<event>
 9    1  0.1321469E-005  0.1061905E+03  0.7546771E-02  0.1267996E+00
          3   -1    0    0  502    0 -0.00000000000E+00  0.00000000000E+00  0.37592654343E+03  0.37592654343E+03  0.00000000000E+00 0. -1.
         21   -1    0    0  501  502  0.00000000000E+00 -0.00000000000E+00 -0.71845501610E+02  0.71845501610E+02  0.00000000000E+00 0.  1.
         23    2    1    2    0    0 -0.60379135985E+02 -0.33918214767E+02  0.12521589319E+03  0.16967658451E+03  0.91186830569E+02 0.  0.
         23    2    1    2    0    0 -0.26209028903E+02  0.66937578936E+02  0.73359549906E+02  0.13767032008E+03  0.91673010191E+02 0.  0.
        -13    1    3    3    0    0 -0.76379678677E+02 -0.14935403248E+01  0.98836397320E+02  0.12491885131E+03  0.00000000000E+00 0.  1.
         13    1    3    3    0    0  0.16000542692E+02 -0.32424674442E+02  0.26379495871E+02  0.44757733203E+02  0.00000000000E+00 0. -1.
        -13    1    4    4    0    0  0.29682572797E+02  0.75017041453E+01  0.37871805277E+02  0.48699120401E+02  0.00000000000E+00 0. -1.
         13    1    4    4    0    0 -0.55891601700E+02  0.59435874790E+02  0.35487744629E+02  0.88971199675E+02  0.00000000000E+00 0.  1.
          3    1    1    2  501    0  0.86588164888E+02 -0.33019364169E+02  0.10550559873E+03  0.14042514045E+03  0.00000000000E+00 0. -1.
<scales pt_clust_5="13000.00000" pt_clust_6="13000.00000" pt_clust_7="13000.00000" pt_clust_8="13000.00000" pt_clust_9="92.67037"></scales>
<clustering>
<clus scale="   91.187">  5  6 -1 -1</clus>
<clus scale="   91.673">  7  8 -1 -1</clus>
<clus scale="   92.670">  2  9  1 -1</clus>
<clus scale="  105.771">  1  5  2 -1</clus>
<clus scale="   92.670">  2  5  1 -1</clus>
</clustering>
</event>
<event>
 9    1  0.1321469E-005  0.2502357E+03  0.7546771E-02  0.1113193E+00
          2   -1    0    0  502    0 -0.00000000000E+00  0.00000000000E+00  0.51654499446E+03  0.51654499446E+03  0.00000000000E+00 0. -1.
         21   -1    0    0  501  502  0.00000000000E+00 -0.00000000000E+00 -0.27352771995E+03  0.27352771995E+03  0.00000000000E+00 0. -1.
         23    2    1    2    0    0  0.18350558082E+03 -0.21349983424E+03  0.25819647526E+03  0.39278296721E+03  0.91414233448E+02 0.  0.
         23    2    1    2    0    0 -0.39286002767E+02  0.18927871386E+03  0.73980382269E+02  0.22601400282E+03  0.90771201253E+02 0.  0.
        -11    1    4    4    0    0  0.17419855403E+02  0.99130844107E+02  0.63483948653E+02  0.11899826617E+03  0.00000000000E+00 0. -1.
         11    1    4    4    0    0 -0.56705858171E+02  0.90147869755E+02  0.10496433616E+02  0.10701573665E+03  0.00000000000E+00 0.  1.
        -13    1    3    3    0    0  0.45993202056E+01 -0.56274087447E+02  0.65041536613E+02  0.86129716993E+02  0.00000000000E+00 0.  1.
         13    1    3    3    0    0  0.17890626061E+03 -0.15722574680E+03  0.19315493865E+03  0.30665325022E+03  0.00000000000E+00 0. -1.
          2    1    1    2  501    0 -0.14421957805E+03  0.24221120382E+02 -0.89159583021E+02  0.17127574437E+03  0.00000000000E+00 0. -1.
<scales pt_clust_5="13000.00000" pt_clust_6="13000.00000" pt_clust_7="13000.00000" pt_clust_8="13000.00000" pt_clust_9="146.23936"></scales>
<clustering>
<clus scale="   90.771">  5  6 -1 -1</clus>
<clus scale="   91.414">  7  8 -1 -1</clus>
<clus scale="  146.239">  2  9  1 -1</clus>
<clus scale="  250.001">  2  5  1 -1</clus>
<clus scale="  146.239">  2  5  1 -1</clus>
</clustering>
</event>
<event>
 9    1  0.1321469E-005  0.1309404E+03  0.7546771E-02  0.1226455E+00
         21   -1    0    0  501  502  0.00000000000E+00  0.00000000000E+00  0.66774593610E+03  0.66774593610E+03  0.00000000000E+00 0.  1.
          2   -1    0    0  502    0 -0.00000000000E+00 -0.00000000000E+00 -0.58187142608E+02  0.58187142608E+02  0.00000000000E+00 0. -1.
         23    2    1    2    0    0  0.65504663672E+02  0.65012474291E+02  0.73175722150E+02  0.14988712954E+03  0.92703735171E+02 0.  0.
         23    2    1    2    0    0 -0.39075774466E+02 -0.91261228186E+02  0.51653495437E+03  0.53383894722E+03  0.91214771629E+02 0.  0.
        -11    1    4    4    0    0 -0.67745480218E+02 -0.67832080426E+02  0.32895534479E+03  0.34264013205E+03  0.00000000000E+00 0.  1.
         11    1    4    4    0    0  0.28669705752E+02 -0.23429147760E+02  0.18757960958E+03  0.19119881517E+03  0.00000000000E+00 0. -1.
        -13    1    3    3    0    0 -0.10229995541E+02  0.49790881818E+02  0.44271994375E+02  0.67407671721E+02  0.00000000000E+00 0.  1.
         13    1    3    3    0    0  0.75734659213E+02  0.15221592473E+02  0.28903727775E+02  0.82479457823E+02  0.00000000000E+00 0. -1.
          2    1    1    2  501    0 -0.26428889205E+02  0.26248753895E+02  0.19848116971E+02  0.42207001943E+02  0.00000000000E+00 0. -1.
<scales pt_clust_5="13000.00000" pt_clust_6="13000.00000" pt_clust_7="13000.00000" pt_clust_8="13000.00000" pt_clust_9="37.24896"></scales>
<clustering>
<clus scale="   37.249">  1  9  2 -1</clus>
<clus scale="   91.215">  5  6 -1 -1</clus>
<clus scale="   92.704">  7  8 -1 -1</clus>
<clus scale="  129.890">  1  5  2 -1</clus>
<clus scale="   37.249">  1  5  2 -1</clus>
</clustering>
</event>
<event>
 9    1  0.1321469E-005  0.1038766E+03  0.7546771E-02  0.1276475E+00
         21   -1    0    0  501  502  0.00000000000E+00  0.00000000000E+00  0.21488732604E+03  0.21488732604E+03  0.00000000000E+00 0.  1.
         -1   -1    0    0    0  501 -0.00000000000E+00 -0.00000000000E+00 -0.10504147925E+03  0.10504147925E+03  0.00000000000E+00 0.  1.
         23    2    1    2    0    0 -0.21806657041E+02  0.12099860917E+01 -0.11517713341E+02  0.10393691234E+03  0.10096152569E+03 0.  0.
         23    2    1    2    0    0  0.21126262187E+02 -0.23351314618E+02  0.56323166769E+01  0.98159715340E+02  0.92800882949E+02 0.  0.
        -11    1    4    4    0    0  0.45155523658E+02  0.16179603518E+02  0.16343726243E+02  0.50674631467E+02  0.00000000000E+00 0.  1.
         11    1    4    4    0    0 -0.24029261471E+02 -0.39530918136E+02 -0.10711409566E+02  0.47485083873E+02  0.00000000000E+00 0. -1.
        -13    1    3    3    0    0  0.15788556242E+02  0.18513470762E+02 -0.44698504185E+02  0.50891879355E+02  0.00000000000E+00 0.  1.
         13    1    3    3    0    0 -0.37595213283E+02 -0.17303484671E+02  0.33180790844E+02  0.53045032987E+02  0.00000000000E+00 0. -1.
         -1    1    1    2    0  502  0.68039485380E+00  0.22141328526E+02  0.11573124346E+03  0.11783217760E+03  0.00000000000E+00 0.  1.
<scales pt_clust_5="13000.00000" pt_clust_6="13000.00000" pt_clust_7="13000.00000" pt_clust_8="13000.00000" pt_clust_9="22.15178"></scales>
<clustering>
<clus scale="   22.152">  1  9  2 -1</clus>
<clus scale="   92.801">  5  6 -1 -1</clus>
<clus scale="   95.964">  1  5  2 -1</clus>
<clus scale="  100.962">  7  8 -1 -1</clus>
<clus scale="   22.152">  1  5  2 -1</clus>
</clustering>
</event>
<event>
 9    1  0.1321469E-005  0.3126797E+03  0.7546771E-02  0.1079320E+00
         21   -1    0    0  501  502  0.00000000000E+00  0.00000000000E+00  0.14773451594E+03  0.14773451594E+03  0.00000000000E+00 0.  1.
          1   -1    0    0  502    0 -0.00000000000E+00 -0.00000000000E+00 -0.11051866941E+04  0.11051866941E+04  0.00000000000E+00 0. -1.
         23    2    1    2    0    0  0.29109929745E+03  0.90611551154E+02 -0.80616331106E+03  0.86655909453E+03  0.89867268991E+02 0.  0.
         23    2    1    2    0    0 -0.26934768753E+03 -0.92555224585E+02 -0.18261965469E+03  0.34817142751E+03  0.82211667521E+02 0.  0.
        -13    1    3    3    0    0  0.17178767833E+03  0.96589988550E+02 -0.53912266871E+03  0.57401557838E+03  0.00000000000E+00 0.  1.
         13    1    3    3    0    0  0.11931161912E+03 -0.59784373962E+01 -0.26704064235E+03  0.29254351614E+03  0.00000000000E+00 0. -1.
        -13    1    4    4    0    0 -0.13125308913E+03 -0.23477029489E+02 -0.43272715617E+02  0.14018228218E+03  0.00000000000E+00 0.  1.
         13    1    4    4    0    0 -0.13809459840E+03 -0.69078195095E+02 -0.13934693907E+03  0.20798914533E+03  0.00000000000E+00 0. -1.
          1    1    1    2  501    0 -0.21751609920E+02  0.19436734307E+01  0.31330787576E+02  0.38190688009E+02  0.00000000000E+00 0. -1.
<scales pt_clust_5="13000.00000" pt_clust_6="13000.00000" pt_clust_7="13000.00000" pt_clust_8="13000.00000" pt_clust_9="21.83828"></scales>
<clustering>
<clus scale="   21.838">  1  9  2 -1</clus>
<clus scale="   82.212">  7  8 -1 -1</clus>
<clus scale="   89.867">  5  6 -1 -1</clus>
<clus scale="  310.566">  1  7  2 -1</clus>
<clus scale="   21.838">  1  5  2 -1</clus>
</clustering>
</event>
<event>
 9    1  0.1321469E-005  0.3018547E+03  0.7546771E-02  0.1084320E+00
         21   -1    0    0  501  502  0.00000000000E+00  0.00000000000E+00  0.74748543640E+02  0.74748543640E+02  0.00000000000E+00 0. -1.
          1   -1    0    0  502    0 -0.00000000000E+00 -0.00000000000E+00 -0.22631400830E+04  0.22631400830E+04  0.00000000000E+00 0. -1.
         23    2    1    2    0    0 -0.24626662981E+02  0.32906672629E+03 -0.15919733475E+04  0.16283310788E+04  0.90507349052E+02 0.  0.
         23    2    1    2    0    0 -0.39887967761E+02 -0.22259424676E+03 -0.48396927536E+03  0.54179794213E+03  0.90440598970E+02 0.  0.
        -11    1    4    4    0    0 -0.12349768504E+02 -0.19257743759E+03 -0.44664260848E+03  0.48654722891E+03  0.00000000000E+00 0. -1.
         11    1    4    4    0    0 -0.27538199257E+02 -0.30016809169E+02 -0.37326666883E+02  0.55250713222E+02  0.00000000000E+00 0.  1.
        -13    1    3    3    0    0  0.14256058147E+00  0.16125332384E+03 -0.56979695124E+03  0.59217499138E+03  0.00000000000E+00 0.  1.
         13    1    3    3    0    0 -0.24769223563E+02  0.16781340246E+03 -0.10221763963E+04  0.10361560874E+04  0.00000000000E+00 0. -1.
          1    1    1    2  501    0  0.64514630742E+02 -0.10647247954E+03 -0.11244891650E+03  0.16775960569E+03  0.00000000000E+00 0. -1.
<scales pt_clust_5="13000.00000" pt_clust_6="13000.00000" pt_clust_7="13000.00000" pt_clust_8="13000.00000" pt_clust_9="124.49308"></scales>
<clustering>
<clus scale="   90.441">  5  6 -1 -1</clus>
<clus scale="   90.507">  7  8 -1 -1</clus>
<clus scale="  124.493">  1  9  2 -1</clus>
<clus scale="  301.835">  1  5  2 -1</clus>
<clus scale="  124.493">  1  5  2 -1</clus>
</clustering>
</event>
<event>
 9    1  0.1321469E-005  0.9134710E+02  0.7546771E-02  0.1301040E+00
         21   -1    0    0  501  502  0.00000000000E+00  0.00000000000E+00  0.11303874515E+03  0.11303874515E+03  0.00000000000E+00 0.  1.
         -3   -1    0    0    0  501 -0.00000000000E+00 -0.00000000000E+00 -0.16768088513E+03  0.16768088513E+03  0.00000000000E+00 0.  1.
         23    2    1    2    0    0 -0.85960340472E+01 -0.12288836572E+02 -0.10057763723E+03  0.13466410528E+03  0.88281667603E+02 0.  0.
         23    2    1    2    0    0  0.11017322388E+02 -0.91573956038E+01 -0.37781905433E+01  0.91859083553E+02  0.90656368891E+02 0.  0.
        -11    1    3    3    0    0  0.29274376258E+02 -0.13835573319E+01 -0.88832161800E+02  0.93541735639E+02  0.00000000000E+00 0.  1.
         11    1    3    3    0    0 -0.37870410306E+02 -0.10905279241E+02 -0.11745475432E+02  0.41122369644E+02  0.00000000000E+00 0. -1.
        -13    1    4    4    0    0 -0.46020126180E+01  0.36778404513E+02 -0.18130836155E+02  0.41262050098E+02  0.00000000000E+00 0.  1.
         13    1    4    4    0    0  0.15619335006E+02 -0.45935800117E+02  0.14352645611E+02  0.50597033455E+02  0.00000000000E+00 0. -1.
         -3    1    1    2    0  502 -0.24212883404E+01  0.21446232176E+02  0.49713687790E+02  0.54196441447E+02  0.00000000000E+00 0.  1.
<scales pt_clust_5="13000.00000" pt_clust_6="13000.00000" pt_clust_7="13000.00000" pt_clust_8="13000.00000" pt_clust_9="21.58248"></scales>
<clustering>
<clus scale="   21.582">  1  9  2 -1</clus>
<clus scale="   88.282">  5  6 -1 -1</clus>
<clus scale="   88.991">  2  5  1 -1</clus>
<clus scale="   90.656">  7  8 -1 -1</clus>
<clus scale="   21.582">  1  5  2 -1</clus>
</clustering>
</event>
<event>
 9    1  0.1321469E-005  0.1025612E+03  0.7546771E-02  0.1277581E+00
         21   -1    0    0  501  502  0.00000000000E+00  0.00000000000E+00  0.35221410637E+02  0.35221410637E+02  0.00000000000E+00 0.  1.
         -2   -1    0    0    0  501 -0.00000000000E+00 -0.00000000000E+00 -0.44241320934E+03  0.44241320934E+03  0.00000000000E+00 0.  1.
         23    2    1    2    0    0 -0.20052466342E+00 -0.28688942090E+02 -0.19798939389E+03  0.22072904241E+03  0.93265290760E+02 0.  0.
         23    2    1    2    0    0  0.39205920373E+00  0.58896026726E+02 -0.19842393325E+03  0.22483253442E+03  0.87799291406E+02 0.  0.
        -13    1    4    4    0    0  0.11466160877E+02 -0.18351970425E+02 -0.17618237733E+02  0.27904658474E+02  0.00000000000E+00 0. -1.
         13    1    4    4    0    0 -0.11074101674E+02  0.77247997152E+02 -0.18080569552E+03  0.19692787595E+03  0.00000000000E+00 0.  1.
        -13    1    3    3    0    0  0.35308894779E+02 -0.12561519271E+02 -0.16631984620E+03  0.17048988550E+03  0.00000000000E+00 0. -1.
         13    1    3    3    0    0 -0.35509419443E+02 -0.16127422819E+02 -0.31669547685E+02  0.50239156905E+02  0.00000000000E+00 0.  1.
         -2    1    1    2    0  502 -0.19153454031E+00 -0.30207084637E+02 -0.10778471560E+02  0.32073043150E+02  0.00000000000E+00 0.  1.
<scales pt_clust_5="13000.00000" pt_clust_6="13000.00000" pt_clust_7="13000.00000" pt_clust_8="13000.00000" pt_clust_9="30.20769"></scales>
<clustering>
<clus scale="   30.208">  1  9  2 -1</clus>
<clus scale="   87.799">  5  6 -1 -1</clus>
<clus scale="   93.265">  7  8 -1 -1</clus>
<clus scale="   97.617">  1  5  2 -1</clus>
<clus scale="   30.208">  1  5  2 -1</clus>
</clustering>
</event>
<event>
 9    1  0.1321469E-005  0.1196560E+03  0.7546771E-02  0.1244829E+00
         21   -1    0    0  501  502  0.00000000000E+00  0.00000000000E+00  0.29870434755E+02  0.29870434755E+02  0.00000000000E+00 0.  1.
          1   -1    0    0  502    0 -0.00000000000E+00 -0.00000000000E+00 -0.98718330740E+03  0.98718330740E+03  0.00000000000E+00 0. -1.
         23    2    1    2    0    0 -0.42396631188E+02 -0.42937223379E+02 -0.30568493697E+03  0.32388726978E+03  0.88422866667E+02 0.  0.
         23    2    1    2    0    0 -0.87748629747E+01  0.10834322663E+03 -0.50445501802E+03  0.52418027540E+03  0.92058910127E+02 0.  0.
        -11    1    4    4    0    0 -0.48330733485E+02  0.38427463185E+02 -0.23806634044E+03  0.24594331090E+03  0.00000000000E+00 0.  1.
         11    1    4    4    0    0  0.39555870511E+02  0.69915763448E+02 -0.26638867758E+03  0.27823696450E+03  0.00000000000E+00 0. -1.
        -13    1    3    3    0    0 -0.66972838503E+02 -0.31307866943E+02 -0.26370342375E+03  0.27387047911E+03  0.00000000000E+00 0.  1.
         13    1    3    3    0    0  0.24576207314E+02 -0.11629356436E+02 -0.41981513214E+02  0.50016790669E+02  0.00000000000E+00 0. -1.
          1    1    1    2  501    0  0.51171494163E+02 -0.65406003254E+02 -0.14717291766E+03  0.16898619698E+03  0.00000000000E+00 0. -1.
<scales pt_clust_5="13000.00000" pt_clust_6="13000.00000" pt_clust_7="13000.00000" pt_clust_8="13000.00000" pt_clust_9="83.04497"></scales>
<clustering>
<clus scale="   83.045">  1  9  2 -1</clus>
<clus scale="   88.423">  7  8 -1 -1</clus>
<clus scale="   92.059">  5  6 -1 -1</clus>
<clus scale="  116.882">  2  7  1 -1</clus>
<clus scale="   83.045">  1  5  2 -1</clus>
</clustering>
</event>
<event>
 9    1  0.1321469E-005  0.1541683E+03  0.7546771E-02  0.1196348E+00
         21   -1    0    0  501  502  0.00000000000E+00  0.00000000000E+00  0.47110483367E+03  0.47110483367E+03  0.00000000000E+00 0.  1.
         -3   -1    0    0    0  501 -0.00000000000E+00 -0.00000000000E+00 -0.63841867965E+02  0.63841867965E+02  0.00000000000E+00 0.  1.
         23    2    1    2    0    0  0.26105971562E+02  0.11198073313E+03  0.11752557372E+03  0.18895635482E+03  0.93118404216E+02 0.  0.
         23    2    1    2    0    0 -0.38188544193E+02 -0.13025679557E+03  0.22129015218E+03  0.27412221997E+03  0.88025350510E+02 0.  0.
        -11    1    4    4    0    0 -0.27050473677E+02 -0.23492597606E+00  0.65696887879E+02  0.71048324353E+02  0.00000000000E+00 0. -1.
         11    1    4    4    0    0 -0.11138070517E+02 -0.13002186959E+03  0.15559326430E+03  0.20307389562E+03  0.00000000000E+00 0.  1.
        -13    1    3    3    0    0 -0.15044771309E+02  0.10428500437E+03  0.75382635151E+02  0.12955403877E+03  0.00000000000E+00 0.  1.
         13    1    3    3    0    0  0.41150742872E+02  0.76957287599E+01  0.42142938571E+02  0.59402316044E+02  0.00000000000E+00 0. -1.
         -3    1    1    2    0  502  0.12082572631E+02  0.18276062438E+02  0.68447239809E+02  0.71868126852E+02  0.00000000000E+00 0.  1.
<scales pt_clust_5="13000.00000" pt_clust_6="13000.00000" pt_clust_7="13000.00000" pt_clust_8="13000.00000" pt_clust_9="21.90897"></scales>
<clustering>
<clus scale="   21.909">  1  9  2 -1</clus>
<clus scale="   88.025">  5  6 -1 -1</clus>
<clus scale="   93.118">  7  8 -1 -1</clus>
<clus scale="  151.147">  1  5  2 -1</clus>
<clus scale="   21.909">  1  5  2 -1</clus>
</clustering>
</event>
<event>
 9    1  0.1321469E-005  0.3333692E+03  0.7546771E-02  0.1069814E+00
          3   -1    0    0  502    0 -0.00000000000E+00  0.00000000000E+00  0.45801332134E+03  0.45801332134E+03  0.00000000000E+00 0. -1.
         21   -1    0    0  501  502  0.00000000000E+00 -0.00000000000E+00 -0.54269832502E+03  0.54269832502E+03  0.00000000000E+00 0. -1.
         23    2    1    2    0    0 -0.24910341977E+03  0.13489195140E+03  0.11843132759E+03  0.32139797163E+03  0.94985917459E+02 0.  0.
         23    2    1    2    0    0  0.36367716373E+03 -0.26560869506E+03 -0.21090104157E+03  0.50531766445E+03  0.89764326728E+02 0.  0.
        -13    1    3    3    0    0 -0.19039600173E+03  0.82100194816E+02  0.12510816610E+03  0.24216344210E+03  0.00000000000E+00 0. -1.
         13    1    3    3    0    0 -0.58707418042E+02  0.52791756586E+02 -0.66768385158E+01  0.79234529525E+02  0.00000000000E+00 0.  1.
        -13    1    4    4    0    0  0.82057308217E+02 -0.26241751020E+02 -0.16533566231E+02  0.87723372830E+02  0.00000000000E+00 0.  1.
         13    1    4    4    0    0  0.28161985552E+03 -0.23936694404E+03 -0.19436747534E+03  0.41759429162E+03  0.00000000000E+00 0. -1.
          3    1    1    2  501    0 -0.11457374396E+03  0.13071674366E+03  0.77847102987E+01  0.17399601028E+03  0.00000000000E+00 0. -1.
<scales pt_clust_5="13000.00000" pt_clust_6="13000.00000" pt_clust_7="13000.00000" pt_clust_8="13000.00000" pt_clust_9="173.82186"></scales>
<clustering>
<clus scale="   89.764">  7  8 -1 -1</clus>
<clus scale="   94.986">  5  6 -1 -1</clus>
<clus scale="  173.822">  2  9  1 -1</clus>
<clus scale="  331.919">  2  7  1 -1</clus>
<clus scale="  173.822">  2  5  1 -1</clus>
</clustering>
</event>
<event>
 9    1  0.1321469E-005  0.1127885E+03  0.7546771E-02  0.1265881E+00
         21   -1    0    0  501  502  0.00000000000E+00  0.00000000000E+00  0.75878322983E+02  0.75878322983E+02  0.00000000000E+00 0. -1.
         -3   -1    0    0    0  501 -0.00000000000E+00 -0.00000000000E+00 -0.26609374401E+03  0.26609374401E+03  0.00000000000E+00 0.  1.
         23    2    1    2    0    0 -0.29349077884E+02 -0.18137744813E+02 -0.13842492308E+03  0.16577172835E+03  0.84430210425E+02 0.  0.
         23    2    1    2    0    0  0.53988915177E+02 -0.20401192460E+02 -0.47349977329E+02  0.13024286382E+03  0.10672474693E+03 0.  0.
        -11    1    4    4    0    0  0.42259988957E+02 -0.57981642885E+02 -0.42565071719E+01  0.71874163867E+02  0.00000000000E+00 0. -1.
         11    1    4    4    0    0  0.11728926220E+02  0.37580450425E+02 -0.43093470158E+02  0.58368699957E+02  0.00000000000E+00 0.  1.
        -11    1    3    3    0    0 -0.59293122035E+02 -0.10806113701E+02 -0.87689839462E+02  0.10640467264E+03  0.00000000000E+00 0.  1.
         11    1    3    3    0    0  0.29944044151E+02 -0.73316311111E+01 -0.50735083614E+02  0.59367055715E+02  0.00000000000E+00 0. -1.
         -3    1    1    2    0  502 -0.24639837293E+02  0.38538937272E+02 -0.44405206171E+01  0.45957474814E+02  0.00000000000E+00 0.  1.
<scales pt_clust_5="13000.00000" pt_clust_6="13000.00000" pt_clust_7="13000.00000" pt_clust_8="13000.00000" pt_clust_9="45.74244"></scales>
<clustering>
<clus scale="   45.742">  1  9  2 -1</clus>
<clus scale="   84.430">  7  8 -1 -1</clus>
<clus scale="   91.976">  2  7  1 -1</clus>
<clus scale="  106.725">  5  6 -1 -1</clus>
<clus scale="   45.742">  1  5  2 -1</clus>
</clustering>
</event>
<event>
 9    1  0.1321469E-005  0.1238794E+03  0.7546771E-02  0.1237601E+00
          1   -1    0    0  502    0 -0.00000000000E+00  0.00000000000E+00  0.35968503795E+03  0.35968503795E+03  0.00000000000E+00 0. -1.
         21   -1    0    0  501  502  0.00000000000E+00 -0.00000000000E+00 -0.16657099398E+03  0.16657099398E+03  0.00000000000E+00 0. -1.
         23    2    1    2    0    0  0.59770668072E+02  0.48473497837E+02  0.21253515379E+03  0.24338026180E+03  0.90224982585E+02 0.  0.
         23    2    1    2    0    0 -0.61293146005E+02 -0.71302089054E+02  0.97204681751E+02  0.16402696798E+03  0.92818416389E+02 0.  0.
        -11    1    4    4    0    0 -0.39011735567E+02 -0.33236193765E+02 -0.61850555485E+01  0.51621846152E+02  0.00000000000E+00 0.  1.
         11    1    4    4    0    0 -0.22281410438E+02 -0.38065895289E+02  0.10338973730E+03  0.11240512183E+03  0.00000000000E+00 0. -1.
        -13    1    3    3    0    0  0.81478917314E+01  0.41567132447E+02  0.25978971217E+02  0.49690256440E+02  0.00000000000E+00 0.  1.
         13    1    3    3    0    0  0.51622776340E+02  0.69063653893E+01  0.18655618257E+03  0.19369000536E+03  0.00000000000E+00 0. -1.
          1    1    1    2  501    0  0.15224779334E+01  0.22828591218E+02 -0.11662579156E+03  0.11884880215E+03  0.00000000000E+00 0. -1.
<scales pt_clust_5="13000.00000" pt_clust_6="13000.00000" pt_clust_7="13000.00000" pt_clust_8="13000.00000" pt_clust_9="22.87930"></scales>
<clustering>
<clus scale="   22.879">  2  9  1 -1</clus>
<clus scale="   90.225">  7  8 -1 -1</clus>
<clus scale="   92.818">  5  6 -1 -1</clus>
<clus scale="  121.948">  1  7  2 -1</clus>
<clus scale="   22.879">  2  5  1 -1</clus>
</clustering>
</event>
<event>
 9    1  0.1321469E-005  0.9985185E+02  0.7546771E-02  0.1282225E+00
         -2   -1    0    0    0  501 -0.00000000000E+00  0.00000000000E+00  0.10199905846E+03  0.10199905846E+03  0.00000000000E+00 0.  1.
         21   -1    0    0  501  502  0.00000000000E+00 -0.00000000000E+00 -0.18889147951E+03  0.18889147951E+03  0.00000000000E+00 0. -1.
         23    2    1    2    0    0  0.37403174022E+02 -0.16077811271E+02  0.33390869161E+02  0.10582778073E+03  0.91799104509E+02 0.  0.
         23    2    1    2    0    0 -0.12885335520E+02  0.46896433500E+02 -0.81258062575E+02  0.12962017187E+03  0.88505417213E+02 0.  0.
        -13    1    4    4    0    0 -0.31434236929E+02 -0.15200339121E+02 -0.38514681716E+02  0.51985981461E+02  0.00000000000E+00 0.  1.
         13    1    4    4    0    0  0.18548901409E+02  0.62096772621E+02 -0.42743380859E+02  0.77634190410E+02  0.00000000000E+00 0. -1.
        -13    1    3    3    0    0  0.67409856926E+02 -0.10337651068E+02  0.13932512336E+02  0.69606542368E+02  0.00000000000E+00 0.  1.
         13    1    3    3    0    0 -0.30006682905E+02 -0.57401602032E+01  0.19458356825E+02  0.36221238362E+02  0.00000000000E+00 0. -1.
         -2    1    1    2    0  502 -0.24517838501E+02 -0.30818622229E+02 -0.39025227634E+02  0.55442585372E+02  0.00000000000E+00 0.  1.
<scales pt_clust_5="13000.00000" pt_clust_6="13000.00000" pt_clust_7="13000.00000" pt_clust_8="13000.00000" pt_clust_9="39.38162"></scales>
<clustering>
<clus scale="   39.382">  2  9  1 -1</clus>
<clus scale="   88.505">  5  6 -1 -1</clus>
<clus scale="   91.799">  7  8 -1 -1</clus>
<clus scale="   96.832">  2  5  1 -1</clus>
<clus scale="   39.382">  2  5  1 -1</clus>
</clustering>
</event>
<event>
 9    1  0.1321469E-005  0.9941966E+02  0.7546771E-02  0.1282473E+00
         21   -1    0    0  501  502  0.00000000000E+00  0.00000000000E+00  0.44102215479E+03  0.44102215479E+03  0.00000000000E+00 0. -1.
         -1   -1    0    0    0  501 -0.00000000000E+00 -0.00000000000E+00 -0.10893763085E+03  0.10893763085E+03  0.00000000000E+00 0.  1.
         23    2    1    2    0    0 -0.58350522941E+01 -0.33065416990E+02 -0.73344468297E+02  0.12189711516E+03  0.91389966733E+02 0.  0.
         23    2    1    2    0    0 -0.13730340834E+02  0.49355191763E+02  0.36573499290E+03  0.38090575207E+03  0.93287993387E+02 0.  0.
        -13    1    3    3    0    0 -0.25055777746E+02  0.60173861163E+01 -0.73979762125E+02  0.78339046064E+02  0.00000000000E+00 0.  1.
         13    1    3    3    0    0  0.19220725452E+02 -0.39082803106E+02  0.63529382742E+00  0.43558069100E+02  0.00000000000E+00 0. -1.
        -13    1    4    4    0    0  0.32652238297E+02  0.24844953385E+02  0.75128895631E+02  0.85602519433E+02  0.00000000000E+00 0. -1.
         13    1    4    4    0    0 -0.46382579131E+02  0.24510238378E+02  0.29060609727E+03  0.29530323263E+03  0.00000000000E+00 0.  1.
         -1    1    1    2    0  502  0.19565393128E+02 -0.16289774773E+02  0.39693999332E+02  0.47156918404E+02  0.00000000000E+00 0.  1.
<scales pt_clust_5="13000.00000" pt_clust_6="13000.00000" pt_clust_7="13000.00000" pt_clust_8="13000.00000" pt_clust_9="25.45901"></scales>
<clustering>
<clus scale="   25.459">  1  9  2 -1</clus>
<clus scale="   91.390">  5  6 -1 -1</clus>
<clus scale="   93.288">  7  8 -1 -1</clus>
<clus scale="   97.641">  2  5  1 -1</clus>
<clus scale="   25.459">  1  5  2 -1</clus>
</clustering>
</event>
<event>
 9    1  0.1321469E-005  0.1808083E+03  0.7546771E-02  0.1173423E+00
         21   -1    0    0  501  502  0.00000000000E+00  0.00000000000E+00  0.21141214839E+03  0.21141214839E+03  0.00000000000E+00 0. -1.
          1   -1    0    0  502    0 -0.00000000000E+00 -0.00000000000E+00 -0.49083209050E+03  0.49083209050E+03  0.00000000000E+00 0. -1.
         23    2    1    2    0    0 -0.12575450551E+03 -0.68480257385E+01 -0.15458037415E+03  0.21975456423E+03  0.92389855049E+02 0.  0.
         23    2    1    2    0    0  0.97660924254E+02 -0.14971828907E+03 -0.21936012533E+03  0.29745887720E+03  0.91704399194E+02 0.  0.
        -11    1    3    3    0    0 -0.12775051167E+03  0.15508645791E+02 -0.14849629405E+03  0.19649900935E+03  0.00000000000E+00 0.  1.
         11    1    3    3    0    0  0.19960061621E+01 -0.22356671530E+02 -0.60840801007E+01  0.23255554888E+02  0.00000000000E+00 0. -1.
        -13    1    4    4    0    0  0.24547246952E+02 -0.35772858782E+02 -0.46561698569E+01  0.43634214512E+02  0.00000000000E+00 0.  1.
         13    1    4    4    0    0  0.73113677302E+02 -0.11394543028E+03 -0.21470395547E+03  0.25382466269E+03  0.00000000000E+00 0. -1.
          1    1    1    2  501    0  0.28093581255E+02  0.15656631480E+03  0.94520557374E+02  0.18503079745E+03  0.00000000000E+00 0. -1.
<scales pt_clust_5="13000.00000" pt_clust_6="13000.00000" pt_clust_7="13000.00000" pt_clust_8="13000.00000" pt_clust_9="155.82666"></scales>
<clustering>
<clus scale="   91.704">  7  8 -1 -1</clus>
<clus scale="   92.390">  5  6 -1 -1</clus>
<clus scale="  156.195">  2  5  1 -1</clus>
<clus scale="  155.827">  1  9  2 -1</clus>
<clus scale="  155.827">  1  5  2 -1</clus>
</clustering>
</event>
<event>
 9    1  0.1321469E-005  0.1651348E+03  0.7546771E-02  0.1183755E+00
         21   -1    0    0  501  502  0.00000000000E+00  0.00000000000E+00  0.54642941340E+03  0.54642941340E+03  0.00000000000E+00 0. -1.
          2   -1    0    0  502    0 -0.00000000000E+00 -0.00000000000E+00 -0.11271039473E+03  0.11271039473E+03  0.00000000000E+00 0. -1.
         23    2    1    2    0    0 -0.13667257268E+03 -0.12545716968E+03  0.65491120011E+02  0.21873194140E+03  0.95580760824E+02 0.  0.
         23    2    1    2    0    0  0.73607585404E+02  0.34553779240E+02  0.13279284849E+03  0.18027274442E+03  0.90842068887E+02 0.  0.
        -11    1    3    3    0    0 -0.54908032428E+02 -0.51365369652E+02  0.77209298234E+02  0.10777090961E+03  0.00000000000E+00 0.  1.
         11    1    3    3    0    0 -0.81764540251E+02 -0.74091800027E+02 -0.11718178223E+02  0.11096103178E+03  0.00000000000E+00 0. -1.
        -13    1    4    4    0    0 -0.38404850058E+01  0.42832357719E+02  0.58738581609E+02  0.72798222247E+02  0.00000000000E+00 0. -1.
         13    1    4    4    0    0  0.77448070410E+02 -0.82785784791E+01  0.74054266883E+02  0.10747452217E+03  0.00000000000E+00 0.  1.
          2    1    1    2  501    0  0.63064987274E+02  0.90903390440E+02  0.23543505017E+03  0.26013512232E+03  0.00000000000E+00 0. -1.
<scales pt_clust_5="13000.00000" pt_clust_6="13000.00000" pt_clust_7="13000.00000" pt_clust_8="13000.00000" pt_clust_9="110.63733"></scales>
<clustering>
<clus scale="   90.842">  7  8 -1 -1</clus>
<clus scale="   95.581">  5  6 -1 -1</clus>
<clus scale="  110.637">  1  9  2 -1</clus>
<clus scale="  162.438">  1  7  2 -1</clus>
<clus scale="  110.637">  1  5  2 -1</clus>
</clustering>
</event>
<event>
 9    1  0.1321469E-005  0.9878375E+02  0.7546771E-02  0.1283219E+00
         21   -1    0    0  501  502  0.00000000000E+00  0.00000000000E+00  0.65841921496E+02  0.65841921496E+02  0.00000000000E+00 0. -1.
          4   -1    0    0  502    0 -0.00000000000E+00 -0.00000000000E+00 -0.21696868409E+03  0.21696868409E+03  0.00000000000E+00 0.  1.
         23    2    1    2    0    0 -0.11894063051E+02  0.35093423624E+02 -0.12063521439E+03  0.15610410745E+03  0.91883732474E+02 0.  0.
         23    2    1    2    0    0  0.29173388111E+02 -0.18420221535E+02 -0.27223635038E+02  0.10247325653E+03  0.92570248260E+02 0.  0.
        -11    1    3    3    0    0  0.30750057419E+02  0.37793108776E+02 -0.33718990058E+02  0.59252471618E+02  0.00000000000E+00 0. -1.
         11    1    3    3    0    0 -0.42644120470E+02 -0.26996851519E+01 -0.86916224335E+02  0.96851635831E+02  0.00000000000E+00 0.  1.
        -11    1    4    4    0    0 -0.72666982728E+01  0.34075675357E+02 -0.81283111586E+01  0.35777450958E+02  0.00000000000E+00 0. -1.
         11    1    4    4    0    0  0.36440086384E+02 -0.52495896892E+02 -0.19095323880E+02  0.66695805567E+02  0.00000000000E+00 0.  1.
          4    1    1    2  501    0 -0.17279325060E+02 -0.16673202089E+02 -0.32679131608E+01  0.24233241609E+02  0.00000000000E+00 0.  1.
<scales pt_clust_5="13000.00000" pt_clust_6="13000.00000" pt_clust_7="13000.00000" pt_clust_8="13000.00000" pt_clust_9="24.01189"></scales>
<clustering>
<clus scale="   24.012">  1  9  2 -1</clus>
<clus scale="   91.884">  5  6 -1 -1</clus>
<clus scale="   92.570">  7  8 -1 -1</clus>
<clus scale="   98.141">  2  5  1 -1</clus>
<clus scale="   24.012">  1  5  2 -1</clus>
</clustering>
</event>
<event>
 9    1  0.1321469E-005  0.1274312E+03  0.7546771E-02  0.1231974E+00
          1   -1    0    0  502    0 -0.00000000000E+00  0.00000000000E+00  0.23954917050E+03  0.23954917050E+03  0.00000000000E+00 0. -1.
         21   -1    0    0  501  502  0.00000000000E+00 -0.00000000000E+00 -0.20723738808E+03  0.20723738808E+03  0.00000000000E+00 0. -1.
         23    2    1    2    0    0  0.97036375222E+02 -0.32548301030E+02  0.12540683482E+03  0.18575836447E+03  0.91125439575E+02 0.  0.
         23    2    1    2    0    0 -0.73300630299E+02  0.15704235039E+01  0.40374442527E+02  0.12197021858E+03  0.88719727114E+02 0.  0.
        -11    1    4    4    0    0 -0.93746768466E+02 -0.12063095755E+01  0.38141077512E+02  0.10121587610E+03  0.00000000000E+00 0.  1.
         11    1    4    4    0    0  0.20446138168E+02  0.27767330794E+01  0.22333650145E+01  0.20754342482E+02  0.00000000000E+00 0. -1.
        -13    1    3    3    0    0  0.10786508848E+03 -0.12698730028E+02  0.79539282747E+02  0.13462032743E+03  0.00000000000E+00 0. -1.
         13    1    3    3    0    0 -0.10828713262E+02 -0.19849571002E+02  0.45867552069E+02  0.51138037044E+02  0.00000000000E+00 0.  1.
          1    1    1    2  501    0 -0.23735744923E+02  0.30977877526E+02 -0.13346949492E+03  0.13905797553E+03  0.00000000000E+00 0. -1.
<scales pt_clust_5="13000.00000" pt_clust_6="13000.00000" pt_clust_7="13000.00000" pt_clust_8="13000.00000" pt_clust_9="39.02582"></scales>
<clustering>
<clus scale="   39.026">  2  9  1 -1</clus>
<clus scale="   88.720">  5  6 -1 -1</clus>
<clus scale="   91.125">  7  8 -1 -1</clus>
<clus scale="  125.722">  2  5  1 -1</clus>
<clus scale="   39.026">  2  5  1 -1</clus>
</clustering>
</event>
<event>
 9    1  0.1321469E-005  0.1466455E+03  0.7546771E-02  0.1206149E+00
         21   -1    0    0  501  502  0.00000000000E+00  0.00000000000E+00  0.78428008856E+02  0.78428008856E+02  0.00000000000E+00 0. -1.
          2   -1    0    0  502    0 -0.00000000000E+00 -0.00000000000E+00 -0.74130551503E+03  0.74130551503E+03  0.00000000000E+00 0. -1.
         23    2    1    2    0    0  0.90548461353E+02 -0.66848945356E+02 -0.63189618210E+03  0.64831213719E+03  0.91367592328E+02 0.  0.
         23    2    1    2    0    0 -0.76219595432E+02  0.42950853251E+02 -0.46346110534E+02  0.13960139505E+03  0.98419434141E+02 0.  0.
        -11    1    4    4    0    0  0.23463647814E+02  0.33632437644E+01 -0.29016747636E+01  0.23880408158E+02  0.00000000000E+00 0.  1.
         11    1    4    4    0    0 -0.99683243246E+02  0.39587609486E+02 -0.43444435770E+02  0.11572098690E+03  0.00000000000E+00 0. -1.
        -11    1    3    3    0    0  0.11557785886E+02  0.22728706082E+02 -0.11702672387E+03  0.11977241166E+03  0.00000000000E+00 0.  1.
         11    1    3    3    0    0  0.78990675467E+02 -0.89577651438E+02 -0.51486945824E+03  0.52853972554E+03  0.00000000000E+00 0. -1.
          2    1    1    2  501    0 -0.14328865920E+02  0.23898092105E+02  0.15364786463E+02  0.31819991639E+02  0.00000000000E+00 0. -1.
<scales pt_clust_5="13000.00000" pt_clust_6="13000.00000" pt_clust_7="13000.00000" pt_clust_8="13000.00000" pt_clust_9="27.86459"></scales>
<clustering>
<clus scale="   27.865">  1  9  2 -1</clus>
<clus scale="   91.368">  7  8 -1 -1</clus>
<clus scale="   98.419">  5  6 -1 -1</clus>
<clus scale="  142.009">  2  7  1 -1</clus>
<clus scale="   27.865">  1  5  2 -1</clus>
</clustering>
</event>
<event>
 9    1  0.1321469E-005  0.9202386E+02  0.7546771E-02  0.1303540E+00
          3   -1    0    0  502    0 -0.00000000000E+00  0.00000000000E+00  0.62806142662E+02  0.62806142662E+02  0.00000000000E+00 0. -1.
         21   -1    0    0  501  502  0.00000000000E+00 -0.00000000000E+00 -0.26093649673E+03  0.26093649673E+03  0.00000000000E+00 0.  1.
         23    2    1    2    0    0  0.29119161980E+01 -0.14661970990E+02 -0.29388686875E+02  0.97640557579E+02  0.91905010303E+02 0.  0.
         23    2    1    2    0    0  0.62601700920E+01 -0.58273379581E+01 -0.34995737077E+02  0.90485295349E+02  0.83004454481E+02 0.  0.
        -13    1    3    3    0    0 -0.32719767575E+02 -0.35523566805E+02 -0.29030313017E+02  0.56349499222E+02  0.00000000000E+00 0. -1.
         13    1    3    3    0    0  0.35631683773E+02  0.20861595815E+02 -0.35837385808E+00  0.41291058357E+02  0.00000000000E+00 0.  1.
        -13    1    4    4    0    0  0.29061885945E+02 -0.26106425933E+02  0.58481705883E+01  0.39501136552E+02  0.00000000000E+00 0.  1.
         13    1    4    4    0    0 -0.22801715853E+02  0.20279087975E+02 -0.40843907665E+02  0.50984158797E+02  0.00000000000E+00 0. -1.
          3    1    1    2  501    0 -0.91720862900E+01  0.20489308949E+02 -0.13374593011E+03  0.13561678646E+03  0.00000000000E+00 0. -1.
<scales pt_clust_5="13000.00000" pt_clust_6="13000.00000" pt_clust_7="13000.00000" pt_clust_8="13000.00000" pt_clust_9="22.44858"></scales>
<clustering>
<clus scale="   22.449">  2  9  1 -1</clus>
<clus scale="   83.004">  7  8 -1 -1</clus>
<clus scale="   83.136">  2  7  1 -1</clus>
<clus scale="   91.905">  5  6 -1 -1</clus>
<clus scale="   22.449">  2  5  1 -1</clus>
</clustering>
</event>
<event>
 9    1  0.1321469E-005  0.1163627E+03  0.7546771E-02  0.1249981E+00
          2   -1    0    0  502    0 -0.00000000000E+00  0.00000000000E+00  0.38411917045E+03  0.38411917045E+03  0.00000000000E+00 0. -1.
         21   -1    0    0  501  502  0.00000000000E+00 -0.00000000000E+00 -0.75861089741E+02  0.75861089741E+02  0.00000000000E+00 0. -1.
         23    2    1    2    0    0  0.27201709299E+02  0.89255141622E+02  0.24267271331E+03  0.27620534357E+03  0.93235898324E+02 0.  0.
         23    2    1    2    0    0 -0.11442356349E+02 -0.34450479377E+02  0.78185636940E+02  0.12537393202E+03  0.91037717235E+02 0.  0.
        -11    1    3    3    0    0  0.48737738024E+02  0.24005658183E+02  0.15847494800E+03  0.16752894638E+03  0.00000000000E+00 0.  1.
         11    1    3    3    0    0 -0.21536028724E+02  0.65249483439E+02  0.84197765311E+02  0.10867639719E+03  0.00000000000E+00 0. -1.
        -11    1    4    4    0    0 -0.47269522550E+02 -0.43527317928E+01  0.56520423872E+02  0.73809974603E+02  0.00000000000E+00 0. -1.
         11    1    4    4    0    0  0.35827166202E+02 -0.30097747584E+02  0.21665213069E+02  0.51563957422E+02  0.00000000000E+00 0.  1.
          2    1    1    2  501    0 -0.15759352951E+02 -0.54804662245E+02 -0.12600269543E+02  0.58400984596E+02  0.00000000000E+00 0. -1.
<scales pt_clust_5="13000.00000" pt_clust_6="13000.00000" pt_clust_7="13000.00000" pt_clust_8="13000.00000" pt_clust_9="57.02550"></scales>
<clustering>
<clus scale="   57.026">  2  9  1 -1</clus>
<clus scale="   91.038">  7  8 -1 -1</clus>
<clus scale="   93.236">  5  6 -1 -1</clus>
<clus scale="  114.609">  2  7  1 -1</clus>
<clus scale="   57.026">  2  5  1 -1</clus>
</clustering>
</event>
<event>
 9    1  0.1321469E-005  0.1060902E+03  0.7546771E-02  0.1270557E+00
         21   -1    0    0  501  502  0.00000000000E+00  0.00000000000E+00  0.60346670125E+02  0.60346670125E+02  0.00000000000E+00 0.  1.
         -4   -1    0    0    0  501 -0.00000000000E+00 -0.00000000000E+00 -0.37242084127E+03  0.37242084127E+03  0.00000000000E+00 0.  1.
         23    2    1    2    0    0 -0.70197922645E+01 -0.55161531501E+02 -0.18645295152E+03  0.21497279648E+03  0.91414047371E+02 0.  0.
         23    2    1    2    0    0 -0.57488758979E+02  0.45135842731E+02 -0.84863739384E+02  0.14083342715E+03  0.85381486466E+02 0.  0.
        -11    1    3    3    0    0  0.17525179975E+02 -0.63620892126E+02 -0.72228517224E+02  0.97835108976E+02  0.00000000000E+00 0. -1.
         11    1    3    3    0    0 -0.24544972239E+02  0.84593606250E+01 -0.11422443430E+03  0.11713768751E+03  0.00000000000E+00 0.  1.
        -11    1    4    4    0    0 -0.79383120685E+02  0.30552314396E+02 -0.56314336899E+02  0.10201190276E+03  0.00000000000E+00 0.  1.
         11    1    4    4    0    0  0.21894361706E+02  0.14583528335E+02 -0.28549402485E+02  0.38821524383E+02  0.00000000000E+00 0. -1.
         -4    1    1    2    0  502  0.64508551244E+02  0.10025688770E+02 -0.40757480240E+02  0.76961287765E+02  0.00000000000E+00 0.  1.
<scales pt_clust_5="13000.00000" pt_clust_6="13000.00000" pt_clust_7="13000.00000" pt_clust_8="13000.00000" pt_clust_9="65.28298"></scales>
<clustering>
<clus scale="   65.283">  1  9  2 -1</clus>
<clus scale="   85.381">  7  8 -1 -1</clus>
<clus scale="   91.414">  5  6 -1 -1</clus>
<clus scale="  100.939">  1  7  2 -1</clus>
<clus scale="   65.283">  1  5  2 -1</clus>
</clustering>
</event>
<event>
 9    1  0.1321469E-005  0.1543561E+03  0.7546771E-02  0.1196405E+00
         21   -1    0    0  501  502  0.00000000000E+00  0.00000000000E+00  0.54512805572E+02  0.54512805572E+02  0.00000000000E+00 0.  1.
          2   -1    0    0  502    0 -0.00000000000E+00 -0.00000000000E+00 -0.57223573408E+03  0.57223573408E+03  0.00000000000E+00 0. -1.
         23    2    1    2    0    0 -0.85953519810E+02 -0.84775831330E+02 -0.27968745656E+03  0.31872990985E+03  0.93748242279E+02 0.  0.
         23    2    1    2    0    0  0.52024639185E+02  0.10506444483E+03 -0.20536044402E+03  0.25673067577E+03  0.99963129522E+02 0.  0.
        -11    1    3    3    0    0  0.18664848080E+01 -0.59295588854E+02 -0.13650853041E+03  0.14884229740E+03  0.00000000000E+00 0. -1.
         11    1    3    3    0    0 -0.87820004618E+02 -0.25480242476E+02 -0.14317892615E+03  0.16988761245E+03  0.00000000000E+00 0.  1.
        -13    1    4    4    0    0  0.19453875264E+02  0.10442856664E+03 -0.97962384341E+02  0.14450054512E+03  0.00000000000E+00 0.  1.
         13    1    4    4    0    0  0.32570763921E+02  0.63587819031E+00 -0.10739805968E+03  0.11223013066E+03  0.00000000000E+00 0. -1.
          2    1    1    2  501    0  0.33928880625E+02 -0.20288613504E+02 -0.32675027920E+02  0.51287954024E+02  0.00000000000E+00 0. -1.
<scales pt_clust_5="13000.00000" pt_clust_6="13000.00000" pt_clust_7="13000.00000" pt_clust_8="13000.00000" pt_clust_9="39.53222"></scales>
<clustering>
<clus scale="   39.532">  1  9  2 -1</clus>
<clus scale="   93.748">  5  6 -1 -1</clus>
<clus scale="   99.963">  7  8 -1 -1</clus>
<clus scale="  150.406">  2  5  1 -1</clus>
<clus scale="   39.532">  1  5  2 -1</clus>
</clustering>
</event>
<event>
 9    1  0.1321469E-005  0.1012238E+03  0.7546771E-02  0.1282609E+00
         21   -1    0    0  501  502  0.00000000000E+00  0.00000000000E+00  0.38194621693E+03  0.38194621693E+03  0.00000000000E+00 0. -1.
          1   -1    0    0  502    0 -0.00000000000E+00 -0.00000000000E+00 -0.12257084739E+03  0.12257084739E+03  0.00000000000E+00 0. -1.
         23    2    1    2    0    0 -0.21146768942E+02 -0.29591833067E+01 -0.89675069136E+02  0.12848666723E+03  0.89505659206E+02 0.  0.
         23    2    1    2    0    0  0.37766435461E+02 -0.18563377559E+02  0.22835315610E+03  0.25230785281E+03  0.98707578525E+02 0.  0.
        -13    1    4    4    0    0 -0.30733275955E+02 -0.28773445476E+01  0.35460885380E+02  0.47013697520E+02  0.00000000000E+00 0.  1.
         13    1    4    4    0    0  0.68499711416E+02 -0.15686033011E+02  0.19289227072E+03  0.20529415529E+03  0.00000000000E+00 0. -1.
        -13    1    3    3    0    0 -0.17979373879E+02 -0.23704401268E+02 -0.10054396090E+03  0.10485344342E+03  0.00000000000E+00 0.  1.
         13    1    3    3    0    0 -0.31673950635E+01  0.20745217961E+02  0.10868891760E+02  0.23633223814E+02  0.00000000000E+00 0. -1.
          1    1    1    2  501    0 -0.16619666519E+02  0.21522560866E+02  0.12069728258E+03  0.12372254428E+03  0.00000000000E+00 0. -1.
<scales pt_clust_5="13000.00000" pt_clust_6="13000.00000" pt_clust_7="13000.00000" pt_clust_8="13000.00000" pt_clust_9="27.19253"></scales>
<clustering>
<clus scale="   27.193">  1  9  2 -1</clus>
<clus scale="   89.506">  7  8 -1 -1</clus>
<clus scale="   92.273">  2  7  1 -1</clus>
<clus scale="   98.708">  5  6 -1 -1</clus>
<clus scale="   27.193">  1  5  2 -1</clus>
</clustering>
</event>
<event>
 9    1  0.1321469E-005  0.9511197E+02  0.7546771E-02  0.1291909E+00
          3   -1    0    0  502    0 -0.00000000000E+00  0.00000000000E+00  0.23028007168E+03  0.23028007168E+03  0.00000000000E+00 0. -1.
         21   -1    0    0  501  502  0.00000000000E+00 -0.00000000000E+00 -0.71868162568E+02  0.71868162568E+02  0.00000000000E+00 0.  1.
         23    2    1    2    0    0 -0.12567562704E+02 -0.69785765498E+01  0.13283440110E+03  0.16323113003E+03  0.93769822086E+02 0.  0.
         23    2    1    2    0    0 -0.88158076347E+01  0.35704623441E+02  0.91215465356E+01  0.99506027534E+02  0.92009283798E+02 0.  0.
        -11    1    4    4    0    0 -0.43125158415E+02  0.34716662705E+02 -0.15232605993E+02  0.57420016048E+02  0.00000000000E+00 0.  1.
         11    1    4    4    0    0  0.34309350780E+02  0.98796073637E+00  0.24354152529E+02  0.42086011485E+02  0.00000000000E+00 0. -1.
        -11    1    3    3    0    0 -0.26745414203E+02  0.38692048987E+02  0.64772732087E+02  0.80049351388E+02  0.00000000000E+00 0.  1.
         11    1    3    3    0    0  0.14177851499E+02 -0.45670625537E+02  0.68061669011E+02  0.83181778645E+02  0.00000000000E+00 0. -1.
          3    1    1    2  501    0  0.21383370338E+02 -0.28726046891E+02  0.16455961479E+02  0.39411076682E+02  0.00000000000E+00 0. -1.
<scales pt_clust_5="13000.00000" pt_clust_6="13000.00000" pt_clust_7="13000.00000" pt_clust_8="13000.00000" pt_clust_9="35.81109"></scales>
<clustering>
<clus scale="   35.811">  2  9  1 -1</clus>
<clus scale="   92.009">  5  6 -1 -1</clus>
<clus scale="   93.377">  2  5  1 -1</clus>
<clus scale="   93.770">  7  8 -1 -1</clus>
<clus scale="   35.811">  2  5  1 -1</clus>
</clustering>
</event>
<event>
 9    1  0.1321469E-005  0.1778913E+03  0.7546771E-02  0.1170180E+00
         21   -1    0    0  501  502  0.00000000000E+00  0.00000000000E+00  0.71119432384E+03  0.71119432384E+03  0.00000000000E+00 0.  1.
          3   -1    0    0  502    0 -0.00000000000E+00 -0.00000000000E+00 -0.13242075769E+03  0.13242075769E+03  0.00000000000E+00 0. -1.
         23    2    1    2    0    0 -0.11791889997E+03 -0.92643949331E+02 -0.39035158305E+02  0.17997153251E+03  0.91532729726E+02 0.  0.
         23    2    1    2    0    0  0.12346069660E+03  0.12504636185E+03  0.58470649373E+03  0.61699180173E+03  0.88983500576E+02 0.  0.
        -13    1    3    3    0    0 -0.10083819242E+03 -0.10921451712E+03 -0.45237399255E+02  0.15537880838E+03  0.00000000000E+00 0. -1.
         13    1    3    3    0    0 -0.17080707554E+02  0.16570567792E+02  0.62022409506E+01  0.24592724134E+02  0.00000000000E+00 0.  1.
        -13    1    4    4    0    0 -0.12332341674E+02  0.16469529427E+02  0.36800592978E+02  0.42161780017E+02  0.00000000000E+00 0. -1.
         13    1    4    4    0    0  0.13579303827E+03  0.10857683242E+03  0.54790590075E+03  0.57483002171E+03  0.00000000000E+00 0.  1.
          3    1    1    2  501    0 -0.55417966261E+01 -0.32402412515E+02  0.33102230726E+02  0.46651747295E+02  0.00000000000E+00 0. -1.
<scales pt_clust_5="13000.00000" pt_clust_6="13000.00000" pt_clust_7="13000.00000" pt_clust_8="13000.00000" pt_clust_9="32.87290"></scales>
<clustering>
<clus scale="   32.873">  1  9  2 -1</clus>
<clus scale="   88.984">  7  8 -1 -1</clus>
<clus scale="   91.533">  5  6 -1 -1</clus>
<clus scale="  176.593">  1  7  2 -1</clus>
<clus scale="   32.873">  1  5  2 -1</clus>
</clustering>
</event>
<event>
 9    1  0.1321469E-005  0.1252809E+03  0.7546771E-02  0.1235093E+00
         21   -1    0    0  501  502  0.00000000000E+00  0.00000000000E+00  0.20701079143E+03  0.20701079143E+03  0.00000000000E+00 0.  1.
         -2   -1    0    0    0  501 -0.00000000000E+00 -0.00000000000E+00 -0.13560267431E+03  0.13560267431E+03  0.00000000000E+00 0.  1.
         23    2    1    2    0    0 -0.24430564212E+02  0.77094543717E+02 -0.30741763812E+02  0.12588075797E+03  0.91435704435E+02 0.  0.
         23    2    1    2    0    0  0.74822513480E+02 -0.72091713630E+02  0.56335770413E+02  0.14844427842E+03  0.89812922624E+02 0.  0.
        -11    1    4    4    0    0  0.86651511587E+02 -0.52910337980E+02  0.68845864607E+02  0.12266923575E+03  0.00000000000E+00 0.  1.
         11    1    4    4    0    0 -0.11828998107E+02 -0.19181375650E+02 -0.12510094194E+02  0.25775042673E+02  0.00000000000E+00 0. -1.
        -13    1    3    3    0    0  0.18661941357E+02  0.76088834963E+02 -0.25856665776E+02  0.82500581975E+02  0.00000000000E+00 0. -1.
         13    1    3    3    0    0 -0.43092505569E+02  0.10057087547E+01 -0.48850980361E+01  0.43380175992E+02  0.00000000000E+00 0.  1.
         -2    1    1    2    0  502 -0.50391949268E+02 -0.50028300873E+01  0.45814110523E+02  0.68288429349E+02  0.00000000000E+00 0.  1.
<scales pt_clust_5="13000.00000" pt_clust_6="13000.00000" pt_clust_7="13000.00000" pt_clust_8="13000.00000" pt_clust_9="50.63968"></scales>
<clustering>
<clus scale="   50.640">  1  9  2 -1</clus>
<clus scale="   89.813">  5  6 -1 -1</clus>
<clus scale="   91.436">  7  8 -1 -1</clus>
<clus scale="  124.101">  1  5  2 -1</clus>
<clus scale="   50.640">  1  5  2 -1</clus>
</clustering>
</event>
<event>
 9    1  0.1321469E-005  0.1030199E+03  0.7546771E-02  0.1276161E+00
         21   -1    0    0  501  502  0.00000000000E+00  0.00000000000E+00  0.67449946378E+02  0.67449946378E+02  0.00000000000E+00 0.  1.
          2   -1    0    0  502    0 -0.00000000000E+00 -0.00000000000E+00 -0.25032531078E+03  0.25032531078E+03  0.00000000000E+00 0. -1.
         23    2    1    2    0    0 -0.97944771842E+01  0.35051342146E+02 -0.11911756310E+03  0.15589943625E+03  0.93760930108E+02 0.  0.
         23    2    1    2    0    0  0.30160996087E+02 -0.43156705808E+02 -0.82932419854E+02  0.13275266844E+03  0.89293324354E+02 0.  0.
        -11    1    4    4    0    0 -0.30683257892E+02 -0.17268385860E+02 -0.42731742629E+02  0.55368414220E+02  0.00000000000E+00 0.  1.
         11    1    4    4    0    0  0.60844253979E+02 -0.25888319948E+02 -0.40200677225E+02  0.77384254221E+02  0.00000000000E+00 0. -1.
        -13    1    3    3    0    0 -0.25738026896E+02  0.60886471253E+02 -0.59232032869E+02  0.88758335540E+02  0.00000000000E+00 0.  1.
         13    1    3    3    0    0  0.15943549712E+02 -0.25835129107E+02 -0.59885530236E+02  0.67141100714E+02  0.00000000000E+00 0. -1.
          2    1    1    2  501    0 -0.20366518903E+02  0.81053636616E+01  0.19174618560E+02  0.29123152460E+02  0.00000000000E+00 0. -1.
<scales pt_clust_5="13000.00000" pt_clust_6="13000.00000" pt_clust_7="13000.00000" pt_clust_8="13000.00000" pt_clust_9="21.92013"></scales>
<clustering>
<clus scale="   21.920">  1  9  2 -1</clus>
<clus scale="   89.293">  5  6 -1 -1</clus>
<clus scale="   93.761">  7  8 -1 -1</clus>
<clus scale="   98.971">  1  5  2 -1</clus>
<clus scale="   21.920">  1  5  2 -1</clus>
</clustering>
</event>
<event>
 9    1  0.1321469E-005  0.1060444E+03  0.7546771E-02  0.1269087E+00
         21   -1    0    0  501  502  0.00000000000E+00  0.00000000000E+00  0.86707718129E+02  0.86707718129E+02  0.00000000000E+00 0. -1.
         -1   -1    0    0    0  501 -0.00000000000E+00 -0.00000000000E+00 -0.31501997842E+03  0.31501997842E+03  0.00000000000E+00 0.  1.
         23    2    1    2    0    0  0.32702649031E+02  0.14690505442E+02 -0.17118211169E+03  0.19810913064E+03  0.93051803186E+02 0.  0.
         23    2    1    2    0    0 -0.68504090389E+02 -0.12605071536E+02 -0.94934696528E+02  0.15151025485E+03  0.95347063358E+02 0.  0.
        -11    1    3    3    0    0 -0.27785904838E+02  0.25598890196E+02 -0.74734596114E+02  0.83741384889E+02  0.00000000000E+00 0. -1.
         11    1    3    3    0    0  0.60488553868E+02 -0.10908384754E+02 -0.96447515579E+02  0.11436774575E+03  0.00000000000E+00 0.  1.
        -13    1    4    4    0    0 -0.84883436951E+02  0.13305233439E+02 -0.80059547891E+02  0.11743831706E+03  0.00000000000E+00 0. -1.
         13    1    4    4    0    0  0.16379346562E+02 -0.25910304974E+02 -0.14875148637E+02  0.34071937788E+02  0.00000000000E+00 0.  1.
         -1    1    1    2    0  502  0.35801441359E+02 -0.20854339064E+01  0.37804547926E+02  0.52108311063E+02  0.00000000000E+00 0.  1.
<scales pt_clust_5="13000.00000" pt_clust_6="13000.00000" pt_clust_7="13000.00000" pt_clust_8="13000.00000" pt_clust_9="35.86213"></scales>
<clustering>
<clus scale="   35.862">  1  9  2 -1</clus>
<clus scale="   93.052">  5  6 -1 -1</clus>
<clus scale="   95.347">  7  8 -1 -1</clus>
<clus scale="  103.986">  2  5  1 -1</clus>
<clus scale="   35.862">  1  5  2 -1</clus>
</clustering>
</event>
<event>
 9    1  0.1321469E-005  0.1048431E+03  0.7546771E-02  0.1272355E+00
         21   -1    0    0  501  502  0.00000000000E+00  0.00000000000E+00  0.17198451899E+03  0.17198451899E+03  0.00000000000E+00 0.  1.
         -1   -1    0    0    0  501 -0.00000000000E+00 -0.00000000000E+00 -0.29209382712E+03  0.29209382712E+03  0.00000000000E+00 0.  1.
         23    2    1    2    0    0 -0.53145783432E+02 -0.55971669044E+02 -0.17321768013E+03  0.21008664262E+03  0.90414217176E+02 0.  0.
         23    2    1    2    0    0  0.11333696705E+02 -0.15216240288E+02 -0.60210755406E+02  0.11378758919E+03  0.94669391765E+02 0.  0.
        -13    1    4    4    0    0 -0.31531424406E+02  0.22565408112E+02 -0.18002336766E+02  0.42749415170E+02  0.00000000000E+00 0.  1.
         13    1    4    4    0    0  0.42865121112E+02 -0.37781648400E+02 -0.42208418641E+02  0.71038174019E+02  0.00000000000E+00 0. -1.
        -13    1    3    3    0    0  0.41127884144E+01 -0.50632743194E+02 -0.38921519234E+02  0.63995893394E+02  0.00000000000E+00 0. -1.
         13    1    3    3    0    0 -0.57258571846E+02 -0.53389258500E+01 -0.13429616090E+03  0.14609074923E+03  0.00000000000E+00 0.  1.
         -1    1    1    2    0  502  0.41812086726E+02  0.71187909332E+02  0.11331912740E+03  0.14020411430E+03  0.00000000000E+00 0.  1.
<scales pt_clust_5="13000.00000" pt_clust_6="13000.00000" pt_clust_7="13000.00000" pt_clust_8="13000.00000" pt_clust_9="82.55888"></scales>
<clustering>
<clus scale="   82.559">  1  9  2 -1</clus>
<clus scale="   90.414">  7  8 -1 -1</clus>
<clus scale="   94.669">  5  6 -1 -1</clus>
<clus scale="  101.017">  2  7  1 -1</clus>
<clus scale="   82.559">  1  5  2 -1</clus>
</clustering>
</event>
<event>
 9    1  0.1321469E-005  0.1002404E+03  0.7546771E-02  0.1280147E+00
         21   -1    0    0  501  502  0.00000000000E+00  0.00000000000E+00  0.30250162844E+03  0.30250162844E+03  0.00000000000E+00 0.  1.
          1   -1    0    0  502    0 -0.00000000000E+00 -0.00000000000E+00 -0.64459555968E+02  0.64459555968E+02  0.00000000000E+00 0. -1.
         23    2    1    2    0    0  0.36208725186E+02 -0.92696585564E+01  0.31253209296E+02  0.10400521067E+03  0.91887553057E+02 0.  0.
         23    2    1    2    0    0 -0.21725307292E+02  0.56238894700E+02  0.11380229030E+03  0.15777811830E+03  0.91149169408E+02 0.  0.
        -11    1    3    3    0    0  0.56026214090E+02  0.16425723945E+02  0.39540715158E+02  0.70513893862E+02  0.00000000000E+00 0.  1.
         11    1    3    3    0    0 -0.19817488904E+02 -0.25695382502E+02 -0.82875058621E+01  0.33491316812E+02  0.00000000000E+00 0. -1.
        -13    1    4    4    0    0 -0.45039168999E+01 -0.21701485674E+02  0.48041384028E+01  0.22678613134E+02  0.00000000000E+00 0. -1.
         13    1    4    4    0    0 -0.17221390392E+02  0.77940380374E+02  0.10899815190E+03  0.13509950517E+03  0.00000000000E+00 0.  1.
          1    1    1    2  501    0 -0.14483417894E+02 -0.46969236143E+02  0.92986572877E+02  0.10517785543E+03  0.00000000000E+00 0. -1.
<scales pt_clust_5="13000.00000" pt_clust_6="13000.00000" pt_clust_7="13000.00000" pt_clust_8="13000.00000" pt_clust_9="49.15159"></scales>
<clustering>
<clus scale="   49.152">  1  9  2 -1</clus>
<clus scale="   91.149">  7  8 -1 -1</clus>
<clus scale="   91.888">  5  6 -1 -1</clus>
<clus scale="   99.564">  1  7  2 -1</clus>
<clus scale="   49.152">  1  5  2 -1</clus>
</clustering>
</event>
<event>
 9    1  0.1321469E-005  0.3797297E+03  0.7546771E-02  0.1081650E+00
         21   -1    0    0  501  502  0.00000000000E+00  0.00000000000E+00  0.53228370247E+03  0.53228370247E+03  0.00000000000E+00 0. -1.
          1   -1    0    0  502    0 -0.00000000000E+00 -0.00000000000E+00 -0.62855776972E+03  0.62855776972E+03  0.00000000000E+00 0. -1.
         23    2    1    2    0    0 -0.12938526595E+03 -0.38655167601E+02 -0.31449626382E+03  0.35416018599E+03  0.91031688762E+02 0.  0.
         23    2    1    2    0    0 -0.20202007302E+03 -0.21403670174E+03 -0.47706845245E+02  0.31231205698E+03  0.92946534411E+02 0.  0.
        -11    1    4    4    0    0 -0.27371410796E+01 -0.33116102797E+02  0.14184811326E+02  0.36130002465E+02  0.00000000000E+00 0.  1.
         11    1    4    4    0    0 -0.19928293194E+03 -0.18092059894E+03 -0.61891656572E+02  0.27618205451E+03  0.00000000000E+00 0. -1.
        -13    1    3    3    0    0 -0.10557737162E+03  0.12506773399E+02 -0.21154028614E+03  0.23675365560E+03  0.00000000000E+00 0. -1.
         13    1    3    3    0    0 -0.23807894331E+02 -0.51161941001E+02 -0.10295597768E+03  0.11740653039E+03  0.00000000000E+00 0.  1.
          1    1    1    2  501    0  0.33140533897E+03  0.25269186934E+03  0.26592904181E+03  0.49436922923E+03  0.00000000000E+00 0. -1.
<scales pt_clust_5="13000.00000" pt_clust_6="13000.00000" pt_clust_7="13000.00000" pt_clust_8="13000.00000" pt_clust_9="368.17876"></scales>
<clustering>
<clus scale="   91.032">  7  8 -1 -1</clus>
<clus scale="   92.947">  5  6 -1 -1</clus>
<clus scale="  162.854">  2  7  1 -1</clus>
<clus scale="  368.179">  1  9  2 -1</clus>
<clus scale="  368.179">  1  5  2 -1</clus>
</clustering>
</event>
<event>
 9    1  0.1799140E-005  0.2434545E+03  0.7546771E-02  0.1155828E+00
         -2   -1    0    0    0  501 -0.00000000000E+00  0.00000000000E+00  0.78447784529E+03  0.78447784529E+03  0.00000000000E+00 0.  1.
         21   -1    0    0  501  502  0.00000000000E+00 -0.00000000000E+00 -0.43234412873E+03  0.43234412873E+03  0.00000000000E+00 0.  1.
         23    2    1    2    0    0  0.20134958884E+02 -0.13532705266E+02 -0.20423561738E+02  0.98201398770E+02  0.92939992282E+02 0.  0.
         23    2    1    2    0    0  0.14649871659E+03 -0.14100626520E+03  0.69183077611E+03  0.72672181078E+03  0.90278052190E+02 0.  0.
        -11    1    4    4    0    0  0.13191027747E+03 -0.73890682195E+02  0.52411071194E+03  0.54548344850E+03  0.00000000000E+00 0.  1.
         11    1    4    4    0    0  0.14588439119E+02 -0.67115583002E+02  0.16772006417E+03  0.18123836228E+03  0.00000000000E+00 0. -1.
        -13    1    3    3    0    0  0.49535550242E+02  0.18164820395E+02 -0.95028356833E+01  0.53610030067E+02  0.00000000000E+00 0. -1.
         13    1    3    3    0    0 -0.29400591358E+02 -0.31697525661E+02 -0.10920726055E+02  0.44591368703E+02  0.00000000000E+00 0.  1.
         -2    1    1    2    0  502 -0.16663367547E+03  0.15453897046E+03 -0.31927349781E+03  0.39189876447E+03  0.00000000000E+00 0.  1.
<scales pt_clust_5="13000.00000" pt_clust_6="13000.00000" pt_clust_7="13000.00000" pt_clust_8="13000.00000" pt_clust_9="226.09721"></scales>
<clustering>
<clus scale="   90.278">  5  6 -1 -1</clus>
<clus scale="   92.940">  7  8 -1 -1</clus>
<clus scale="   96.054">  1  7  2 -1</clus>
<clus scale="  226.097">  2  9  1 -1</clus>
<clus scale="  226.097">  2  5  1 -1</clus>
</clustering>
</event>
<event>
 9    1  0.1321469E-005  0.1352710E+03  0.7546771E-02  0.1220304E+00
         21   -1    0    0  501  502  0.00000000000E+00  0.00000000000E+00  0.21143573265E+03  0.21143573265E+03  0.00000000000E+00 0.  1.
          1   -1    0    0  502    0 -0.00000000000E+00 -0.00000000000E+00 -0.37246160610E+03  0.37246160610E+03  0.00000000000E+00 0. -1.
         23    2    1    2    0    0  0.81492136823E+02 -0.45493635829E+02 -0.26982245893E+03  0.29980062490E+03  0.91463741915E+02 0.  0.
         23    2    1    2    0    0 -0.15755707153E+03  0.31890807589E+02  0.64141110804E+02  0.19484973829E+03  0.89504659190E+02 0.  0.
        -11    1    4    4    0    0 -0.12000496480E+03  0.12067822816E+02  0.84987497026E+02  0.14754558135E+03  0.00000000000E+00 0.  1.
         11    1    4    4    0    0 -0.37552106730E+02  0.19822984773E+02 -0.20846386222E+02  0.47304156938E+02  0.00000000000E+00 0. -1.
        -13    1    3    3    0    0  0.51287651022E+02 -0.99063262029E+01 -0.23712521563E+03  0.24281047410E+03  0.00000000000E+00 0. -1.
         13    1    3    3    0    0  0.30204485801E+02 -0.35587309626E+02 -0.32697243298E+02  0.56990150800E+02  0.00000000000E+00 0.  1.
          1    1    1    2  501    0  0.76064934710E+02  0.13602828240E+02  0.44655474678E+02  0.89246975564E+02  0.00000000000E+00 0. -1.
<scales pt_clust_5="13000.00000" pt_clust_6="13000.00000" pt_clust_7="13000.00000" pt_clust_8="13000.00000" pt_clust_9="77.27167"></scales>
<clustering>
<clus scale="   77.272">  1  9  2 -1</clus>
<clus scale="   89.505">  5  6 -1 -1</clus>
<clus scale="   91.464">  7  8 -1 -1</clus>
<clus scale="  133.954">  1  5  2 -1</clus>
<clus scale="   77.272">  1  5  2 -1</clus>
</clustering>
</event>
<event>
 9    1  0.1321469E-005  0.1192217E+03  0.7546771E-02  0.1244595E+00
          2   -1    0    0  502    0 -0.00000000000E+00  0.00000000000E+00  0.88309864865E+03  0.88309864865E+03  0.00000000000E+00 0. -1.
         21   -1    0    0  501  502  0.00000000000E+00 -0.00000000000E+00 -0.21946985300E+02  0.21946985300E+02  0.00000000000E+00 0.  1.
         23    2    1    2    0    0  0.25018998265E+02 -0.77378078883E+02  0.58619307663E+03  0.59892663004E+03  0.92073165021E+02 0.  0.
         23    2    1    2    0    0 -0.74949631870E+01  0.64320772762E+02  0.21782903826E+03  0.24495226167E+03  0.91426387373E+02 0.  0.
        -11    1    4    4    0    0 -0.41913109643E+02  0.27238194291E+02  0.16233612954E+03  0.16985772559E+03  0.00000000000E+00 0. -1.
         11    1    4    4    0    0  0.34418146456E+02  0.37082578471E+02  0.55492908715E+02  0.75094536080E+02  0.00000000000E+00 0.  1.
        -13    1    3    3    0    0 -0.31955264218E+02 -0.47178649199E+02  0.32006680956E+03  0.32509956388E+03  0.00000000000E+00 0. -1.
         13    1    3    3    0    0  0.56974262483E+02 -0.30199429684E+02  0.26612626707E+03  0.27382706616E+03  0.00000000000E+00 0.  1.
          2    1    1    2  501    0 -0.17524035078E+02  0.13057306121E+02  0.57129548465E+02  0.61166742241E+02  0.00000000000E+00 0. -1.
<scales pt_clust_5="13000.00000" pt_clust_6="13000.00000" pt_clust_7="13000.00000" pt_clust_8="13000.00000" pt_clust_9="21.85372"></scales>
<clustering>
<clus scale="   21.854">  2  9  1 -1</clus>
<clus scale="   91.426">  5  6 -1 -1</clus>
<clus scale="   92.073">  7  8 -1 -1</clus>
<clus scale="  118.723">  2  5  1 -1</clus>
<clus scale="   21.854">  2  5  1 -1</clus>
</clustering>
</event>
<event>
 9    1  0.1321469E-005  0.1063681E+03  0.7546771E-02  0.1268016E+00
         21   -1    0    0  501  502  0.00000000000E+00  0.00000000000E+00  0.34843311409E+02  0.34843311409E+02  0.00000000000E+00 0. -1.
          1   -1    0    0  502    0 -0.00000000000E+00 -0.00000000000E+00 -0.10367350357E+04  0.10367350357E+04  0.00000000000E+00 0. -1.
         23    2    1    2    0    0 -0.66652717173E+02 -0.49663189758E+01 -0.45920013897E+03  0.47310861342E+03  0.92194053096E+02 0.  0.
         23    2    1    2    0    0  0.15592770232E+02 -0.72383577175E+02 -0.45855004215E+03  0.47329016705E+03  0.90845607214E+02 0.  0.
        -13    1    4    4    0    0 -0.28992236069E+02 -0.61320452072E+02 -0.32669916615E+03  0.33366613966E+03  0.00000000000E+00 0.  1.
         13    1    4    4    0    0  0.44585006302E+02 -0.11063125103E+02 -0.13185087600E+03  0.13962402739E+03  0.00000000000E+00 0. -1.
        -13    1    3    3    0    0  0.15518499048E+02  0.18471172204E+02 -0.56368754663E+02  0.61314309240E+02  0.00000000000E+00 0.  1.
         13    1    3    3    0    0 -0.82171216221E+02 -0.23437491180E+02 -0.40283138431E+03  0.41179430418E+03  0.00000000000E+00 0. -1.
          1    1    1    2  501    0  0.51059946940E+02  0.77349896151E+02 -0.84141543175E+02  0.12517956664E+03  0.00000000000E+00 0. -1.
<scales pt_clust_5="13000.00000" pt_clust_6="13000.00000" pt_clust_7="13000.00000" pt_clust_8="13000.00000" pt_clust_9="92.68293"></scales>
<clustering>
<clus scale="   90.846">  5  6 -1 -1</clus>
<clus scale="   92.194">  7  8 -1 -1</clus>
<clus scale="   92.683">  1  9  2 -1</clus>
<clus scale="  105.201">  1  5  2 -1</clus>
<clus scale="   92.683">  1  5  2 -1</clus>
</clustering>
</event>
<event>
 9    1  0.1321469E-005  0.1048917E+03  0.7546771E-02  0.1271249E+00
          1   -1    0    0  502    0 -0.00000000000E+00  0.00000000000E+00  0.53732475018E+03  0.53732475018E+03  0.00000000000E+00 0. -1.
         21   -1    0    0  501  502  0.00000000000E+00 -0.00000000000E+00 -0.53399838497E+02  0.53399838497E+02  0.00000000000E+00 0.  1.
         23    2    1    2    0    0  0.35227350750E+02  0.20617948516E+02  0.29444062199E+03  0.31092314397E+03  0.91169378272E+02 0.  0.
         23    2    1    2    0    0 -0.92284863092E+02  0.13633448693E+02  0.16378225499E+03  0.20846202704E+03  0.89047306472E+02 0.  0.
        -13    1    3    3    0    0 -0.21165992298E+02  0.33267366156E+02  0.85813135173E+02  0.94438398171E+02  0.00000000000E+00 0.  1.
         13    1    3    3    0    0  0.56393343047E+02 -0.12649417639E+02  0.20862748682E+03  0.21648474580E+03  0.00000000000E+00 0. -1.
        -13    1    4    4    0    0 -0.56894149294E+02  0.48541407591E+02  0.70588781160E+02  0.10283962515E+03  0.00000000000E+00 0.  1.
         13    1    4    4    0    0 -0.35390713797E+02 -0.34907958898E+02  0.93193473832E+02  0.10562240190E+03  0.00000000000E+00 0. -1.
          1    1    1    2  501    0  0.57057512342E+02 -0.34251397210E+02  0.25702034705E+02  0.71339417670E+02  0.00000000000E+00 0. -1.
<scales pt_clust_5="13000.00000" pt_clust_6="13000.00000" pt_clust_7="13000.00000" pt_clust_8="13000.00000" pt_clust_9="66.54861"></scales>
<clustering>
<clus scale="   66.549">  2  9  1 -1</clus>
<clus scale="   89.047">  7  8 -1 -1</clus>
<clus scale="   91.169">  5  6 -1 -1</clus>
<clus scale="  103.053">  2  7  1 -1</clus>
<clus scale="   66.549">  2  5  1 -1</clus>
</clustering>
</event>
<event>
 9    1  0.1321469E-005  0.1277831E+03  0.7546771E-02  0.1231031E+00
         21   -1    0    0  501  502  0.00000000000E+00  0.00000000000E+00  0.39835554541E+03  0.39835554541E+03  0.00000000000E+00 0.  1.
          2   -1    0    0  502    0 -0.00000000000E+00 -0.00000000000E+00 -0.77847446698E+02  0.77847446698E+02  0.00000000000E+00 0. -1.
         23    2    1    2    0    0  0.40352212935E+02 -0.65432165834E+02  0.46332222242E+02  0.12723429030E+03  0.90178824535E+02 0.  0.
         23    2    1    2    0    0 -0.75567715792E+02  0.10376992574E+03  0.23886393783E+03  0.28606521633E+03  0.91096926607E+02 0.  0.
        -11    1    3    3    0    0 -0.18888337777E+01 -0.53536853308E+02  0.60793961349E+02  0.81028810258E+02  0.00000000000E+00 0.  1.
         11    1    3    3    0    0  0.42241046713E+02 -0.11895312526E+02 -0.14461739107E+02  0.46205480038E+02  0.00000000000E+00 0. -1.
        -13    1    4    4    0    0 -0.90192051938E+02  0.70862319354E+02  0.21234637415E+03  0.24134427102E+03  0.00000000000E+00 0.  1.
         13    1    4    4    0    0  0.14624336147E+02  0.32907606387E+02  0.26517563678E+02  0.44720945308E+02  0.00000000000E+00 0. -1.
          2    1    1    2  501    0  0.35215502856E+02 -0.38337759907E+02  0.35311938642E+02  0.62903485489E+02  0.00000000000E+00 0. -1.
<scales pt_clust_5="13000.00000" pt_clust_6="13000.00000" pt_clust_7="13000.00000" pt_clust_8="13000.00000" pt_clust_9="52.05687"></scales>
<clustering>
<clus scale="   52.057">  1  9  2 -1</clus>
<clus scale="   90.179">  5  6 -1 -1</clus>
<clus scale="   91.097">  7  8 -1 -1</clus>
<clus scale="  127.130">  2  5  1 -1</clus>
<clus scale="   52.057">  1  5  2 -1</clus>
</clustering>
</event>
<event>
 9    1  0.1321469E-005  0.1079773E+03  0.7546771E-02  0.1264532E+00
         21   -1    0    0  501  502  0.00000000000E+00  0.00000000000E+00  0.50196861862E+02  0.50196861862E+02  0.00000000000E+00 0.  1.
          1   -1    0    0  502    0 -0.00000000000E+00 -0.00000000000E+00 -0.40260908443E+03  0.40260908443E+03  0.00000000000E+00 0. -1.
         23    2    1    2    0    0  0.22251572099E+02  0.36632105113E+02 -0.22366416530E+03  0.24643086957E+03  0.94156630410E+02 0.  0.
         23    2    1    2    0    0 -0.38375855213E+02 -0.58763543247E+02 -0.13410562616E+03  0.17847352472E+03  0.94565425927E+02 0.  0.
        -11    1    3    3    0    0 -0.19508233629E+02  0.52253818956E+02 -0.15328302008E+03  0.16311565535E+03  0.00000000000E+00 0.  1.
         11    1    3    3    0    0  0.41759805728E+02 -0.15621713843E+02 -0.70381145225E+02  0.83315214223E+02  0.00000000000E+00 0. -1.
        -11    1    4    4    0    0 -0.37372695699E+02 -0.14047100572E+01 -0.56940133310E+01  0.37830059239E+02  0.00000000000E+00 0.  1.
         11    1    4    4    0    0 -0.10031595133E+01 -0.57358833189E+02 -0.12841161283E+03  0.14064346548E+03  0.00000000000E+00 0. -1.
          1    1    1    2  501    0  0.16124283114E+02  0.22131438133E+02  0.53575688925E+01  0.27901552004E+02  0.00000000000E+00 0. -1.
<scales pt_clust_5="13000.00000" pt_clust_6="13000.00000" pt_clust_7="13000.00000" pt_clust_8="13000.00000" pt_clust_9="27.38235"></scales>
<clustering>
<clus scale="   27.382">  1  9  2 -1</clus>
<clus scale="   94.157">  5  6 -1 -1</clus>
<clus scale="   94.565">  7  8 -1 -1</clus>
<clus scale="  107.619">  2  5  1 -1</clus>
<clus scale="   27.382">  1  5  2 -1</clus>
</clustering>
</event>
<event>
 9    1  0.1321469E-005  0.1108238E+03  0.7546771E-02  0.1260412E+00
         21   -1    0    0  501  502  0.00000000000E+00  0.00000000000E+00  0.44878900648E+02  0.44878900648E+02  0.00000000000E+00 0.  1.
          2   -1    0    0  502    0 -0.00000000000E+00 -0.00000000000E+00 -0.57150839212E+03  0.57150839212E+03  0.00000000000E+00 0. -1.
         23    2    1    2    0    0  0.50175953960E+02  0.15487042945E+02 -0.38696934184E+03  0.40099635653E+03  0.91078710856E+02 0.  0.
         23    2    1    2    0    0 -0.72011640791E+02 -0.17347248503E+02 -0.14916919987E+03  0.19150203462E+03  0.94525000040E+02 0.  0.
        -13    1    3    3    0    0 -0.27341168425E+01 -0.32793882345E+02 -0.14246615641E+03  0.14621737187E+03  0.00000000000E+00 0. -1.
         13    1    3    3    0    0  0.52910070803E+02  0.48280925290E+02 -0.24450318544E+03  0.25477898467E+03  0.00000000000E+00 0.  1.
        -13    1    4    4    0    0 -0.26839036718E+02  0.36709511890E+02 -0.35149850333E+02  0.57475508989E+02  0.00000000000E+00 0.  1.
         13    1    4    4    0    0 -0.45172604073E+02 -0.54056760393E+02 -0.11401934954E+03  0.13402652563E+03  0.00000000000E+00 0. -1.
          2    1    1    2  501    0  0.21835686830E+02  0.18602055581E+01  0.95090502405E+01  0.23888901619E+02  0.00000000000E+00 0. -1.
<scales pt_clust_5="13000.00000" pt_clust_6="13000.00000" pt_clust_7="13000.00000" pt_clust_8="13000.00000" pt_clust_9="21.91478"></scales>
<clustering>
<clus scale="   21.915">  1  9  2 -1</clus>
<clus scale="   91.079">  5  6 -1 -1</clus>
<clus scale="   94.525">  7  8 -1 -1</clus>
<clus scale="  107.899">  2  5  1 -1</clus>
<clus scale="   21.915">  1  5  2 -1</clus>
</clustering>
</event>
<event>
 9    1  0.1321469E-005  0.1184284E+03  0.7546771E-02  0.1246782E+00
         21   -1    0    0  501  502  0.00000000000E+00  0.00000000000E+00  0.29540571318E+02  0.29540571318E+02  0.00000000000E+00 0.  1.
          2   -1    0    0  502    0 -0.00000000000E+00 -0.00000000000E+00 -0.10241352776E+04  0.10241352776E+04  0.00000000000E+00 0. -1.
         23    2    1    2    0    0  0.55730232139E+01 -0.58297687315E+02 -0.48620509079E+03  0.49802092011E+03  0.90552568307E+02 0.  0.
         23    2    1    2    0    0 -0.26072463818E+02  0.89455804172E+02 -0.50033126369E+03  0.51749746108E+03  0.93755717310E+02 0.  0.
        -13    1    4    4    0    0 -0.24407621752E+02 -0.13742491124E+02 -0.83270764390E+02  0.87855610316E+02  0.00000000000E+00 0. -1.
         13    1    4    4    0    0 -0.16648420657E+01  0.10319829530E+03 -0.41706049930E+03  0.42964185076E+03  0.00000000000E+00 0.  1.
        -13    1    3    3    0    0  0.33399636039E+02  0.92160070625E+01 -0.16973919994E+03  0.17323933292E+03  0.00000000000E+00 0.  1.
         13    1    3    3    0    0 -0.27826612825E+02 -0.67513694377E+02 -0.31646589085E+03  0.32478158719E+03  0.00000000000E+00 0. -1.
          2    1    1    2  501    0  0.20499440604E+02 -0.31158116857E+02 -0.80583518314E+01  0.38157467754E+02  0.00000000000E+00 0. -1.
<scales pt_clust_5="13000.00000" pt_clust_6="13000.00000" pt_clust_7="13000.00000" pt_clust_8="13000.00000" pt_clust_9="37.29685"></scales>
<clustering>
<clus scale="   37.297">  1  9  2 -1</clus>
<clus scale="   90.553">  7  8 -1 -1</clus>
<clus scale="   93.756">  5  6 -1 -1</clus>
<clus scale="  115.909">  2  7  1 -1</clus>
<clus scale="   37.297">  1  5  2 -1</clus>
</clustering>
</event>
<event>
 9    1  0.1321469E-005  0.1341250E+03  0.7546771E-02  0.1221642E+00
          1   -1    0    0  502    0 -0.00000000000E+00  0.00000000000E+00  0.47676645717E+03  0.47676645717E+03  0.00000000000E+00 0. -1.
         21   -1    0    0  501  502  0.00000000000E+00 -0.00000000000E+00 -0.20111737100E+03  0.20111737100E+03  0.00000000000E+00 0.  1.
         23    2    1    2    0    0  0.93689861298E+02 -0.42648213193E+02  0.39424613343E+03  0.41740147967E+03  0.90539059539E+02 0.  0.
         23    2    1    2    0    0 -0.67169963074E+02  0.39146208597E+02  0.18033380143E+02  0.12125791555E+03  0.91291016515E+02 0.  0.
        -13    1    3    3    0    0  0.23636854470E+01 -0.36497817164E+02  0.19135130328E+03  0.19481529441E+03  0.00000000000E+00 0.  1.
         13    1    3    3    0    0  0.91326175851E+02 -0.61503960281E+01  0.20289483015E+03  0.22258618526E+03  0.00000000000E+00 0. -1.
        -13    1    4    4    0    0 -0.29122234985E+02 -0.10958639069E+00 -0.34699788245E+02  0.45301124532E+02  0.00000000000E+00 0.  1.
         13    1    4    4    0    0 -0.38047728089E+02  0.39255794988E+02  0.52733168388E+02  0.75956791014E+02  0.00000000000E+00 0. -1.
          1    1    1    2  501    0 -0.26519898225E+02  0.35020045954E+01 -0.13663042741E+03  0.13922443296E+03  0.00000000000E+00 0. -1.
<scales pt_clust_5="13000.00000" pt_clust_6="13000.00000" pt_clust_7="13000.00000" pt_clust_8="13000.00000" pt_clust_9="26.75012"></scales>
<clustering>
<clus scale="   26.750">  2  9  1 -1</clus>
<clus scale="   90.539">  5  6 -1 -1</clus>
<clus scale="   91.291">  7  8 -1 -1</clus>
<clus scale="  133.614">  1  5  2 -1</clus>
<clus scale="   26.750">  2  5  1 -1</clus>
</clustering>
</event>
<event>
 9    1  0.1321469E-005  0.1615709E+03  0.7546771E-02  0.1187106E+00
          2   -1    0    0  502    0 -0.00000000000E+00  0.00000000000E+00  0.13299035315E+04  0.13299035315E+04  0.00000000000E+00 0. -1.
         21   -1    0    0  501  502  0.00000000000E+00 -0.00000000000E+00 -0.27884824251E+02  0.27884824251E+02  0.00000000000E+00 0. -1.
         23    2    1    2    0    0 -0.13653486472E+03 -0.50294112327E+02  0.83959980059E+03  0.85686671186E+03  0.90119197370E+02 0.  0.
         23    2    1    2    0    0  0.99707300245E+02  0.60436723925E+02  0.41114699047E+03  0.43698455398E+03  0.91211344287E+02 0.  0.
        -11    1    4    4    0    0  0.57592072084E+02 -0.15659762058E+02  0.19724093195E+03  0.20607294861E+03  0.00000000000E+00 0.  1.
         11    1    4    4    0    0  0.42115228161E+02  0.76096485983E+02  0.21390605852E+03  0.23091160537E+03  0.00000000000E+00 0. -1.
        -13    1    3    3    0    0 -0.77328412006E+02  0.17939701110E+02  0.33800449958E+03  0.34720103387E+03  0.00000000000E+00 0.  1.
         13    1    3    3    0    0 -0.59206452714E+02 -0.68233813436E+02  0.50159530100E+03  0.50966567800E+03  0.00000000000E+00 0. -1.
          2    1    1    2  501    0  0.36827564476E+02 -0.10142611599E+02  0.51271916184E+02  0.63937089896E+02  0.00000000000E+00 0. -1.
<scales pt_clust_5="13000.00000" pt_clust_6="13000.00000" pt_clust_7="13000.00000" pt_clust_8="13000.00000" pt_clust_9="38.19872"></scales>
<clustering>
<clus scale="   38.199">  2  9  1 -1</clus>
<clus scale="   90.119">  7  8 -1 -1</clus>
<clus scale="   91.211">  5  6 -1 -1</clus>
<clus scale="  160.957">  1  7  2 -1</clus>
<clus scale="   38.199">  2  5  1 -1</clus>
</clustering>
</event>
<event>
 9    1  0.1321469E-005  0.2342058E+03  0.7546771E-02  0.1124183E+00
         21   -1    0    0  501  502  0.00000000000E+00  0.00000000000E+00  0.93862873666E+02  0.93862873666E+02  0.00000000000E+00 0. -1.
          2   -1    0    0  502    0 -0.00000000000E+00 -0.00000000000E+00 -0.14347353810E+04  0.14347353810E+04  0.00000000000E+00 0. -1.
         23    2    1    2    0    0 -0.16478577714E+03 -0.14758818203E+03 -0.11306615655E+04  0.11559368863E+04  0.94116340797E+02 0.  0.
         23    2    1    2    0    0  0.15745172261E+03  0.94122352349E+02 -0.23382224666E+03  0.31375570646E+03  0.10059690919E+03 0.  0.
        -11    1    4    4    0    0 -0.47405531230E+01  0.30069074996E+02 -0.14963352832E+02  0.33919375628E+02  0.00000000000E+00 0.  1.
         11    1    4    4    0    0  0.16219227573E+03  0.64053277353E+02 -0.21885889382E+03  0.27983633083E+03  0.00000000000E+00 0. -1.
        -11    1    3    3    0    0 -0.98868209575E+02 -0.12501478347E+03 -0.92911036642E+03  0.94268217970E+03  0.00000000000E+00 0. -1.
         11    1    3    3    0    0 -0.65917567562E+02 -0.22573398564E+02 -0.20155119907E+03  0.21325470659E+03  0.00000000000E+00 0.  1.
          2    1    1    2  501    0  0.73340545296E+01  0.53465829685E+02  0.23611304755E+02  0.58905661969E+02  0.00000000000E+00 0. -1.
<scales pt_clust_5="13000.00000" pt_clust_6="13000.00000" pt_clust_7="13000.00000" pt_clust_8="13000.00000" pt_clust_9="53.96650"></scales>
<clustering>
<clus scale="   53.967">  1  9  2 -1</clus>
<clus scale="   94.116">  7  8 -1 -1</clus>
<clus scale="  100.597">  5  6 -1 -1</clus>
<clus scale="  231.496">  2  7  1 -1</clus>
<clus scale="   53.967">  1  5  2 -1</clus>
</clustering>
</event>
<event>
 9    1  0.1321469E-005  0.1716468E+03  0.7546771E-02  0.1177219E+00
         21   -1    0    0  501  502  0.00000000000E+00  0.00000000000E+00  0.12491640820E+03  0.12491640820E+03  0.00000000000E+00 0. -1.
          1   -1    0    0  502    0 -0.00000000000E+00 -0.00000000000E+00 -0.41308936826E+03  0.41308936826E+03  0.00000000000E+00 0. -1.
         23    2    1    2    0    0  0.15166097743E+03 -0.10815077858E+03 -0.21606565973E+03  0.29879692659E+03  0.88868391686E+02 0.  0.
         23    2    1    2    0    0 -0.74600159354E+02  0.55614450622E+02 -0.52390199784E+02  0.14388204624E+03  0.96432148703E+02 0.  0.
        -11    1    3    3    0    0  0.82952258049E+02 -0.67109977824E+01 -0.99103092102E+02  0.12941227713E+03  0.00000000000E+00 0.  1.
         11    1    3    3    0    0  0.68708719386E+02 -0.10143978080E+03 -0.11696256762E+03  0.16938464946E+03  0.00000000000E+00 0. -1.
        -13    1    4    4    0    0 -0.58462709413E+02 -0.13715039969E+02 -0.38570893239E+02  0.71370193488E+02  0.00000000000E+00 0. -1.
         13    1    4    4    0    0 -0.16137449941E+02  0.69329490591E+02 -0.13819306545E+02  0.72511852753E+02  0.00000000000E+00 0.  1.
          1    1    1    2  501    0 -0.77060818080E+02  0.52536327957E+02 -0.19717100550E+02  0.95326803641E+02  0.00000000000E+00 0. -1.
<scales pt_clust_5="13000.00000" pt_clust_6="13000.00000" pt_clust_7="13000.00000" pt_clust_8="13000.00000" pt_clust_9="93.26540"></scales>
<clustering>
<clus scale="   88.868">  5  6 -1 -1</clus>
<clus scale="   93.265">  1  9  2 -1</clus>
<clus scale="   96.432">  7  8 -1 -1</clus>
<clus scale="  167.514">  2  5  1 -1</clus>
<clus scale="   93.265">  1  5  2 -1</clus>
</clustering>
</event>
<event>
 9    1  0.1321469E-005  0.1033192E+03  0.7546771E-02  0.1274665E+00
         21   -1    0    0  501  502  0.00000000000E+00  0.00000000000E+00  0.85397818278E+02  0.85397818278E+02  0.00000000000E+00 0.  1.
          4   -1    0    0  502    0 -0.00000000000E+00 -0.00000000000E+00 -0.34293654065E+03  0.34293654065E+03  0.00000000000E+00 0. -1.
         23    2    1    2    0    0 -0.15533915640E+02  0.15940841595E+02 -0.13295360691E+03  0.16279160850E+03  0.91263537303E+02 0.  0.
         23    2    1    2    0    0  0.45664349960E+02 -0.93189600547E+02 -0.12128469080E+03  0.18256018217E+03  0.88592942061E+02 0.  0.
        -11    1    3    3    0    0  0.21024363408E+02  0.21041874351E+02 -0.56922551262E+01  0.30285080507E+02  0.00000000000E+00 0.  1.
         11    1    3    3    0    0 -0.36558279048E+02 -0.51010327557E+01 -0.12726135179E+03  0.13250652799E+03  0.00000000000E+00 0. -1.
        -13    1    4    4    0    0  0.41968816672E+02  0.74758185356E+00 -0.44543294261E+02  0.61204946819E+02  0.00000000000E+00 0. -1.
         13    1    4    4    0    0  0.36955332882E+01 -0.93937182400E+02 -0.76741396537E+02  0.12135523535E+03  0.00000000000E+00 0.  1.
          4    1    1    2  501    0 -0.30130434320E+02  0.77248758951E+02 -0.33004246572E+01  0.82982568259E+02  0.00000000000E+00 0. -1.
<scales pt_clust_5="13000.00000" pt_clust_6="13000.00000" pt_clust_7="13000.00000" pt_clust_8="13000.00000" pt_clust_9="82.91691"></scales>
<clustering>
<clus scale="   82.917">  1  9  2 -1</clus>
<clus scale="   88.593">  7  8 -1 -1</clus>
<clus scale="   91.264">  5  6 -1 -1</clus>
<clus scale="  100.968">  1  7  2 -1</clus>
<clus scale="   82.917">  1  5  2 -1</clus>
</clustering>
</event>
<event>
 9    1  0.1321469E-005  0.1415449E+03  0.7546771E-02  0.1211403E+00
         -1   -1    0    0    0  501 -0.00000000000E+00  0.00000000000E+00  0.26910584998E+03  0.26910584998E+03  0.00000000000E+00 0.  1.
         21   -1    0    0  501  502  0.00000000000E+00 -0.00000000000E+00 -0.16507506043E+03  0.16507506043E+03  0.00000000000E+00 0.  1.
         23    2    1    2    0    0  0.10170039799E+03 -0.54873466973E+02  0.15891049642E+03  0.21671414522E+03  0.91424321373E+02 0.  0.
         23    2    1    2    0    0 -0.81646547984E+02  0.43742662006E+02  0.26207351884E+02  0.13319836769E+03  0.92061938852E+02 0.  0.
        -11    1    4    4    0    0 -0.17834764154E+02  0.55034242417E+02  0.35283705006E+02  0.67762721978E+02  0.00000000000E+00 0.  1.
         11    1    4    4    0    0 -0.63811783829E+02 -0.11291580411E+02 -0.90763531222E+01  0.65435645711E+02  0.00000000000E+00 0. -1.
        -13    1    3    3    0    0  0.29430409124E+02  0.21642002347E+02  0.17695477155E+02  0.40591318758E+02  0.00000000000E+00 0. -1.
         13    1    3    3    0    0  0.72269988862E+02 -0.76515469320E+02  0.14121501926E+03  0.17612282646E+03  0.00000000000E+00 0.  1.
         -1    1    1    2    0  502 -0.20053850002E+02  0.11130804967E+02 -0.81087058753E+02  0.84268397494E+02  0.00000000000E+00 0.  1.
<scales pt_clust_5="13000.00000" pt_clust_6="13000.00000" pt_clust_7="13000.00000" pt_clust_8="13000.00000" pt_clust_9="22.93582"></scales>
<clustering>
<clus scale="   22.936">  2  9  1 -1</clus>
<clus scale="   91.424">  7  8 -1 -1</clus>
<clus scale="   92.062">  5  6 -1 -1</clus>
<clus scale="  141.131">  1  7  2 -1</clus>
<clus scale="   22.936">  2  5  1 -1</clus>
</clustering>
</event>
<event>
 9    1  0.1321469E-005  0.1271260E+03  0.7546771E-02  0.1233146E+00
         21   -1    0    0  501  502  0.00000000000E+00  0.00000000000E+00  0.93789119241E+02  0.93789119241E+02  0.00000000000E+00 0. -1.
         -1   -1    0    0    0  501 -0.00000000000E+00 -0.00000000000E+00 -0.22011466343E+03  0.22011466343E+03  0.00000000000E+00 0.  1.
         23    2    1    2    0    0  0.20047050112E+02 -0.85488083094E+02 -0.10958386644E+03  0.17009960547E+03  0.95995601079E+02 0.  0.
         23    2    1    2    0    0  0.17805534629E+00  0.76403687034E+02 -0.60778225495E+01  0.11920135318E+03  0.91293305208E+02 0.  0.
        -11    1    4    4    0    0 -0.92730439188E+01  0.17948180657E+02  0.39573799782E+02  0.44432107328E+02  0.00000000000E+00 0. -1.
         11    1    4    4    0    0  0.94510992651E+01  0.58455506377E+02 -0.45651622331E+02  0.74769245847E+02  0.00000000000E+00 0.  1.
        -13    1    3    3    0    0  0.45853382531E+02 -0.73044432620E+02 -0.40438558603E+02  0.95253865267E+02  0.00000000000E+00 0. -1.
         13    1    3    3    0    0 -0.25806332419E+02 -0.12443650474E+02 -0.69145307840E+02  0.74845740202E+02  0.00000000000E+00 0.  1.
         -1    1    1    2    0  502 -0.20225105459E+02  0.90843960606E+01 -0.10663855201E+02  0.24602824032E+02  0.00000000000E+00 0.  1.
<scales pt_clust_5="13000.00000" pt_clust_6="13000.00000" pt_clust_7="13000.00000" pt_clust_8="13000.00000" pt_clust_9="22.17164"></scales>
<clustering>
<clus scale="   22.172">  1  9  2 -1</clus>
<clus scale="   91.293">  5  6 -1 -1</clus>
<clus scale="   95.996">  7  8 -1 -1</clus>
<clus scale="  123.614">  1  5  2 -1</clus>
<clus scale="   22.172">  1  5  2 -1</clus>
</clustering>
</event>
<event>
 9    1  0.1321469E-005  0.1250722E+03  0.7546771E-02  0.1235643E+00
         -1   -1    0    0    0  501 -0.00000000000E+00  0.00000000000E+00  0.79495763739E+02  0.79495763739E+02  0.00000000000E+00 0.  1.
         21   -1    0    0  501  502  0.00000000000E+00 -0.00000000000E+00 -0.47555807375E+03  0.47555807375E+03  0.00000000000E+00 0.  1.
         23    2    1    2    0    0 -0.17493615620E+00  0.61247496547E+02 -0.52581317443E+02  0.12430649970E+03  0.94530547907E+02 0.  0.
         23    2    1    2    0    0 -0.52072956260E+02 -0.11323388559E+03 -0.12187032219E+03  0.19720137629E+03  0.92209011271E+02 0.  0.
        -11    1    4    4    0    0 -0.44953744308E+02 -0.32999753760E+02 -0.60051747018E+01  0.56088189477E+02  0.00000000000E+00 0.  1.
         11    1    4    4    0    0 -0.71192119511E+01 -0.80234131833E+02 -0.11586514749E+03  0.14111318681E+03  0.00000000000E+00 0. -1.
        -11    1    3    3    0    0  0.36844350899E+02  0.17924076889E+00 -0.34872490898E+02  0.50730946589E+02  0.00000000000E+00 0. -1.
         11    1    3    3    0    0 -0.37019287055E+02  0.61068255778E+02 -0.17708826545E+02  0.73575553110E+02  0.00000000000E+00 0.  1.
         -1    1    1    2    0  502  0.52247892416E+02  0.51986389046E+02 -0.22161067037E+03  0.23354596150E+03  0.00000000000E+00 0.  1.
<scales pt_clust_5="13000.00000" pt_clust_6="13000.00000" pt_clust_7="13000.00000" pt_clust_8="13000.00000" pt_clust_9="73.70500"></scales>
<clustering>
<clus scale="   73.705">  2  9  1 -1</clus>
<clus scale="   92.209">  5  6 -1 -1</clus>
<clus scale="   94.531">  7  8 -1 -1</clus>
<clus scale="  123.327">  2  5  1 -1</clus>
<clus scale="   73.705">  2  5  1 -1</clus>
</clustering>
</event>
<event>
 9    1  0.1321469E-005  0.1094420E+03  0.7546771E-02  0.1265791E+00
          2   -1    0    0  502    0 -0.00000000000E+00  0.00000000000E+00  0.46496802571E+03  0.46496802571E+03  0.00000000000E+00 0. -1.
         21   -1    0    0  501  502  0.00000000000E+00 -0.00000000000E+00 -0.43590287882E+02  0.43590287882E+02  0.00000000000E+00 0.  1.
         23    2    1    2    0    0 -0.48887367420E+01  0.66317570055E+02  0.16095202936E+03  0.19727492278E+03  0.92681818912E+02 0.  0.
         23    2    1    2    0    0 -0.23078825852E+02 -0.46511103984E+02  0.75488282205E+02  0.12319742034E+03  0.82360236960E+02 0.  0.
        -13    1    3    3    0    0 -0.35533549917E+02 -0.55130933974E+01  0.49205174314E+02  0.60944044400E+02  0.00000000000E+00 0. -1.
         13    1    3    3    0    0  0.30644813175E+02  0.71830663453E+02  0.11174685504E+03  0.13633087838E+03  0.00000000000E+00 0.  1.
        -13    1    4    4    0    0  0.11774712425E+02 -0.57206308934E+02  0.32528286592E+02  0.66852786502E+02  0.00000000000E+00 0.  1.
         13    1    4    4    0    0 -0.34853538278E+02  0.10695204950E+02  0.42959995613E+02  0.56344633839E+02  0.00000000000E+00 0. -1.
          2    1    1    2  501    0  0.27967562594E+02 -0.19806466072E+02  0.18493742627E+03  0.18808597048E+03  0.00000000000E+00 0. -1.
<scales pt_clust_5="13000.00000" pt_clust_6="13000.00000" pt_clust_7="13000.00000" pt_clust_8="13000.00000" pt_clust_9="34.27071"></scales>
<clustering>
<clus scale="   34.271">  2  9  1 -1</clus>
<clus scale="   82.360">  7  8 -1 -1</clus>
<clus scale="   92.682">  5  6 -1 -1</clus>
<clus scale="  100.851">  2  7  1 -1</clus>
<clus scale="   34.271">  2  5  1 -1</clus>
</clustering>
</event>
<event>
 9    1  0.1321469E-005  0.1278975E+03  0.7546771E-02  0.1230763E+00
         21   -1    0    0  501  502  0.00000000000E+00  0.00000000000E+00  0.52806024536E+02  0.52806024536E+02  0.00000000000E+00 0. -1.
          1   -1    0    0  502    0 -0.00000000000E+00 -0.00000000000E+00 -0.63800323593E+03  0.63800323593E+03  0.00000000000E+00 0. -1.
         23    2    1    2    0    0 -0.48757241549E+02  0.61477040004E+02 -0.32465934103E+03  0.34634704469E+03  0.91629103442E+02 0.  0.
         23    2    1    2    0    0  0.20573608342E+02 -0.11903177562E+03 -0.22516439399E+03  0.27126284690E+03  0.91064212615E+02 0.  0.
        -11    1    3    3    0    0 -0.63086108606E+02  0.12321675737E+02 -0.22896057954E+03  0.23781216911E+03  0.00000000000E+00 0. -1.
         11    1    3    3    0    0  0.14328867058E+02  0.49155364267E+02 -0.95698761485E+02  0.10853487558E+03  0.00000000000E+00 0.  1.
        -13    1    4    4    0    0  0.41526189582E+01 -0.79223450960E+02 -0.21180713841E+03  0.22617661972E+03  0.00000000000E+00 0. -1.
         13    1    4    4    0    0  0.16420989383E+02 -0.39808324664E+02 -0.13357255582E+02  0.45086227183E+02  0.00000000000E+00 0.  1.
          1    1    1    2  501    0  0.28183633207E+02  0.57554735620E+02 -0.35373476375E+02  0.73199368876E+02  0.00000000000E+00 0. -1.
<scales pt_clust_5="13000.00000" pt_clust_6="13000.00000" pt_clust_7="13000.00000" pt_clust_8="13000.00000" pt_clust_9="64.08482"></scales>
<clustering>
<clus scale="   64.085">  1  9  2 -1</clus>
<clus scale="   91.064">  7  8 -1 -1</clus>
<clus scale="   91.629">  5  6 -1 -1</clus>
<clus scale="  127.493">  1  7  2 -1</clus>
<clus scale="   64.085">  1  5  2 -1</clus>
</clustering>
</event>
<event>
 9    1  0.1321469E-005  0.1703534E+03  0.7546771E-02  0.1178003E+00
         21   -1    0    0  501  502  0.00000000000E+00  0.00000000000E+00  0.29274791047E+03  0.29274791047E+03  0.00000000000E+00 0.  1.
         -2   -1    0    0    0  501 -0.00000000000E+00 -0.00000000000E+00 -0.18699200899E+03  0.18699200899E+03  0.00000000000E+00 0.  1.
         23    2    1    2    0    0 -0.93668087572E+02 -0.76752005840E+02 -0.93911046222E+01  0.15156573417E+03  0.90660895090E+02 0.  0.
         23    2    1    2    0    0  0.11653562149E+03  0.13412241412E+03  0.28937672915E+00  0.19776497212E+03  0.86841968044E+02 0.  0.
        -11    1    3    3    0    0 -0.17743608776E+01 -0.57057560450E+02  0.30918850736E+00  0.57085980403E+02  0.00000000000E+00 0. -1.
         11    1    3    3    0    0 -0.91893726694E+02 -0.19694445390E+02 -0.97002931296E+01  0.94479753766E+02  0.00000000000E+00 0.  1.
        -13    1    4    4    0    0 -0.13476545290E+02  0.17039699785E+02  0.65522407195E+01  0.22691419086E+02  0.00000000000E+00 0. -1.
         13    1    4    4    0    0  0.13001216678E+03  0.11708271434E+03 -0.62628639904E+01  0.17507355304E+03  0.00000000000E+00 0.  1.
         -2    1    1    2    0  502 -0.22867533919E+02 -0.57370408284E+02  0.11485762937E+03  0.13040921317E+03  0.00000000000E+00 0.  1.
<scales pt_clust_5="13000.00000" pt_clust_6="13000.00000" pt_clust_7="13000.00000" pt_clust_8="13000.00000" pt_clust_9="61.75992"></scales>
<clustering>
<clus scale="   61.760">  1  9  2 -1</clus>
<clus scale="   86.842">  7  8 -1 -1</clus>
<clus scale="   90.661">  5  6 -1 -1</clus>
<clus scale="  168.352">  1  7  2 -1</clus>
<clus scale="   61.760">  1  5  2 -1</clus>
</clustering>
</event>
<event>
 9    1  0.1321469E-005  0.1528829E+03  0.7546771E-02  0.1197663E+00
          1   -1    0    0  502    0 -0.00000000000E+00  0.00000000000E+00  0.20259975264E+03  0.20259975264E+03  0.00000000000E+00 0. -1.
         21   -1    0    0  501  502  0.00000000000E+00 -0.00000000000E+00 -0.18901837054E+03  0.18901837054E+03  0.00000000000E+00 0.  1.
         23    2    1    2    0    0 -0.87688856052E+02 -0.86571864603E+02  0.52379233117E+02  0.16399437512E+03  0.94691857055E+02 0.  0.
         23    2    1    2    0    0  0.11590685187E+03  0.40341438445E+02  0.12174102851E+02  0.15324870068E+03  0.90967716883E+02 0.  0.
        -11    1    3    3    0    0  0.12581356509E+02 -0.37079161729E+02 -0.28886582118E+01  0.39261929555E+02  0.00000000000E+00 0.  1.
         11    1    3    3    0    0 -0.10027021256E+03 -0.49492702874E+02  0.55267891329E+02  0.12473244557E+03  0.00000000000E+00 0. -1.
        -11    1    4    4    0    0  0.69810454756E+02 -0.21332003469E+02  0.20453065869E+02  0.75808191303E+02  0.00000000000E+00 0.  1.
         11    1    4    4    0    0  0.46096397113E+02  0.61673441914E+02 -0.82789630174E+01  0.77440509379E+02  0.00000000000E+00 0. -1.
          1    1    1    2  501    0 -0.28217995817E+02  0.46230426158E+02 -0.50971953876E+02  0.74375047379E+02  0.00000000000E+00 0. -1.
<scales pt_clust_5="13000.00000" pt_clust_6="13000.00000" pt_clust_7="13000.00000" pt_clust_8="13000.00000" pt_clust_9="54.16186"></scales>
<clustering>
<clus scale="   54.162">  2  9  1 -1</clus>
<clus scale="   90.968">  7  8 -1 -1</clus>
<clus scale="   94.692">  5  6 -1 -1</clus>
<clus scale="  150.605">  2  7  1 -1</clus>
<clus scale="   54.162">  2  5  1 -1</clus>
</clustering>
</event>
<event>
 9    1  0.1321469E-005  0.1713772E+03  0.7546771E-02  0.1176471E+00
         21   -1    0    0  501  502  0.00000000000E+00  0.00000000000E+00  0.92016161205E+03  0.92016161205E+03  0.00000000000E+00 0. -1.
          4   -1    0    0  502    0 -0.00000000000E+00 -0.00000000000E+00 -0.37443694439E+02  0.37443694439E+02  0.00000000000E+00 0. -1.
         23    2    1    2    0    0  0.12741215127E+03  0.78820705788E+02  0.35189582790E+03  0.39321070193E+03  0.91309487256E+02 0.  0.
         23    2    1    2    0    0 -0.10853865560E+03 -0.87533192651E+02  0.42576764654E+03  0.45730327767E+03  0.91681510401E+02 0.  0.
        -11    1    3    3    0    0  0.10561164118E+03  0.38126743166E+02  0.31403750975E+03  0.33350715859E+03  0.00000000000E+00 0. -1.
         11    1    3    3    0    0  0.21800510097E+02  0.40693962622E+02  0.37858318144E+02  0.59703543338E+02  0.00000000000E+00 0.  1.
        -13    1    4    4    0    0 -0.78961667047E+02 -0.10578507997E+03  0.34381735364E+03  0.36828766022E+03  0.00000000000E+00 0. -1.
         13    1    4    4    0    0 -0.29576988557E+02  0.18251887321E+02  0.81950292897E+02  0.89015617443E+02  0.00000000000E+00 0.  1.
          4    1    1    2  501    0 -0.18873495671E+02  0.87124868636E+01  0.10505444317E+03  0.10709132690E+03  0.00000000000E+00 0. -1.
<scales pt_clust_5="13000.00000" pt_clust_6="13000.00000" pt_clust_7="13000.00000" pt_clust_8="13000.00000" pt_clust_9="20.78741"></scales>
<clustering>
<clus scale="   20.787">  1  9  2 -1</clus>
<clus scale="   91.309">  5  6 -1 -1</clus>
<clus scale="   91.682">  7  8 -1 -1</clus>
<clus scale="  171.178">  2  5  1 -1</clus>
<clus scale="   20.787">  1  5  2 -1</clus>
</clustering>
</event>
<event>
 9    1  0.1321469E-005  0.1037274E+03  0.7546771E-02  0.1273010E+00
          2   -1    0    0  502    0 -0.00000000000E+00  0.00000000000E+00  0.35202691560E+03  0.35202691560E+03  0.00000000000E+00 0. -1.
         21   -1    0    0  501  502  0.00000000000E+00 -0.00000000000E+00 -0.13878823863E+03  0.13878823863E+03  0.00000000000E+00 0.  1.
         23    2    1    2    0    0 -0.34542568011E+02  0.27458544508E+02  0.20074537547E+03  0.22502625248E+03  0.91602117125E+02 0.  0.
         23    2    1    2    0    0  0.75604814723E+02 -0.28111229389E+02 -0.92120378487E+02  0.15340315469E+03  0.92412307126E+02 0.  0.
        -11    1    3    3    0    0 -0.47727055469E+02 -0.19633536138E+02  0.11999630239E+03  0.13062335225E+03  0.00000000000E+00 0.  1.
         11    1    3    3    0    0  0.13184487458E+02  0.47092080647E+02  0.80749073073E+02  0.94402900227E+02  0.00000000000E+00 0. -1.
        -13    1    4    4    0    0  0.55438453077E+02 -0.12863718073E+02 -0.10902864521E+03  0.12298838481E+03  0.00000000000E+00 0.  1.
         13    1    4    4    0    0  0.20166361646E+02 -0.15247511316E+02  0.16908266719E+02  0.30414769879E+02  0.00000000000E+00 0. -1.
          2    1    1    2  501    0 -0.41062246712E+02  0.65268488061E+00  0.10461367999E+03  0.11238574707E+03  0.00000000000E+00 0. -1.
<scales pt_clust_5="13000.00000" pt_clust_6="13000.00000" pt_clust_7="13000.00000" pt_clust_8="13000.00000" pt_clust_9="41.06745"></scales>
<clustering>
<clus scale="   41.067">  2  9  1 -1</clus>
<clus scale="   91.602">  5  6 -1 -1</clus>
<clus scale="   92.412">  7  8 -1 -1</clus>
<clus scale="  103.006">  1  5  2 -1</clus>
<clus scale="   41.067">  2  5  1 -1</clus>
</clustering>
</event>
<event>
 9    1  0.1321469E-005  0.9945812E+02  0.7546771E-02  0.1282085E+00
          1   -1    0    0  502    0 -0.00000000000E+00  0.00000000000E+00  0.36258643623E+03  0.36258643623E+03  0.00000000000E+00 0. -1.
         21   -1    0    0  501  502  0.00000000000E+00 -0.00000000000E+00 -0.69813028816E+02  0.69813028816E+02  0.00000000000E+00 0. -1.
         23    2    1    2    0    0 -0.19442336326E+02 -0.21267976446E+02  0.24656279132E+03  0.26448398639E+03  0.91259178895E+02 0.  0.
         23    2    1    2    0    0  0.54534637215E+02  0.40335987892E+02  0.54638345681E+02  0.12709777087E+03  0.92560661007E+02 0.  0.
        -13    1    4    4    0    0  0.24474086422E+02  0.16347258545E+02  0.77123213038E+02  0.82548190516E+02  0.00000000000E+00 0. -1.
         13    1    4    4    0    0  0.30060550793E+02  0.23988729347E+02 -0.22484867357E+02  0.44549580355E+02  0.00000000000E+00 0.  1.
        -13    1    3    3    0    0  0.30336081379E+02  0.10205956287E+02  0.50694387963E+02  0.59952984480E+02  0.00000000000E+00 0.  1.
         13    1    3    3    0    0 -0.49778417705E+02 -0.31473932733E+02  0.19586840336E+03  0.20453100191E+03  0.00000000000E+00 0. -1.
          1    1    1    2  501    0 -0.35092300889E+02 -0.19068011447E+02 -0.84277295881E+01  0.40817707777E+02  0.00000000000E+00 0. -1.
<scales pt_clust_5="13000.00000" pt_clust_6="13000.00000" pt_clust_7="13000.00000" pt_clust_8="13000.00000" pt_clust_9="39.93819"></scales>
<clustering>
<clus scale="   39.938">  2  9  1 -1</clus>
<clus scale="   91.259">  7  8 -1 -1</clus>
<clus scale="   92.561">  5  6 -1 -1</clus>
<clus scale="   98.248">  1  7  2 -1</clus>
<clus scale="   39.938">  2  5  1 -1</clus>
</clustering>
</event>
<event>
 9    1  0.1321469E-005  0.1020247E+03  0.7546771E-02  0.1278806E+00
         21   -1    0    0  501  502  0.00000000000E+00  0.00000000000E+00  0.26503231842E+03  0.26503231842E+03  0.00000000000E+00 0. -1.
          3   -1    0    0  502    0 -0.00000000000E+00 -0.00000000000E+00 -0.64266182138E+02  0.64266182138E+02  0.00000000000E+00 0. -1.
         23    2    1    2    0    0  0.20103436428E+02  0.13446680343E+02  0.12285533132E+02  0.96756185121E+02  0.92875527812E+02 0.  0.
         23    2    1    2    0    0 -0.42727972308E+02 -0.31361610288E+01  0.17218833542E+03  0.20281666288E+03  0.98235740763E+02 0.  0.
        -11    1    3    3    0    0 -0.33359027819E+02 -0.41021014669E+01 -0.11699818289E+02  0.35588449270E+02  0.00000000000E+00 0.  1.
         11    1    3    3    0    0  0.53462464247E+02  0.17548781810E+02  0.23985351421E+02  0.61167735851E+02  0.00000000000E+00 0. -1.
        -13    1    4    4    0    0 -0.60235243351E+02 -0.25222190924E+02  0.65589011902E+02  0.92554642989E+02  0.00000000000E+00 0. -1.
         13    1    4    4    0    0  0.17507271043E+02  0.22086029895E+02  0.10659932352E+03  0.11026201989E+03  0.00000000000E+00 0.  1.
          3    1    1    2  501    0  0.22624535880E+02 -0.10310519314E+02  0.16292267734E+02  0.29725652562E+02  0.00000000000E+00 0. -1.
<scales pt_clust_5="13000.00000" pt_clust_6="13000.00000" pt_clust_7="13000.00000" pt_clust_8="13000.00000" pt_clust_9="24.86317"></scales>
<clustering>
<clus scale="   24.863">  1  9  2 -1</clus>
<clus scale="   92.876">  5  6 -1 -1</clus>
<clus scale="   96.874">  2  5  1 -1</clus>
<clus scale="   98.236">  7  8 -1 -1</clus>
<clus scale="   24.863">  1  5  2 -1</clus>
</clustering>
</event>
<event>
 9    1  0.1321469E-005  0.1105274E+03  0.7546771E-02  0.1270428E+00
         21   -1    0    0  501  502  0.00000000000E+00  0.00000000000E+00  0.28642679712E+02  0.28642679712E+02  0.00000000000E+00 0.  1.
          2   -1    0    0  502    0 -0.00000000000E+00 -0.00000000000E+00 -0.59143042445E+03  0.59143042445E+03  0.00000000000E+00 0. -1.
         23    2    1    2    0    0  0.12559078646E+02  0.43163654117E+02 -0.15334874309E+03  0.17199843323E+03  0.63614405072E+02 0.  0.
         23    2    1    2    0    0  0.11970080865E+02 -0.89756582602E+02 -0.31150011452E+03  0.33687841982E+03  0.90858249123E+02 0.  0.
        -13    1    3    3    0    0  0.35113730432E+02  0.83167229453E+01 -0.78883817962E+02  0.86745597478E+02  0.00000000000E+00 0.  1.
         13    1    3    3    0    0 -0.22554651787E+02  0.34846931172E+02 -0.74464925127E+02  0.85252835750E+02  0.00000000000E+00 0. -1.
        -13    1    4    4    0    0 -0.14634304200E+02 -0.55117319718E+02 -0.27224415820E+03  0.27815277002E+03  0.00000000000E+00 0. -1.
         13    1    4    4    0    0  0.26604385065E+02 -0.34639262884E+02 -0.39255956321E+02  0.58725649801E+02  0.00000000000E+00 0.  1.
          2    1    1    2  501    0 -0.24529159511E+02  0.46592928485E+02 -0.97938887130E+02  0.11119625112E+03  0.00000000000E+00 0. -1.
<scales pt_clust_5="13000.00000" pt_clust_6="13000.00000" pt_clust_7="13000.00000" pt_clust_8="13000.00000" pt_clust_9="52.65530"></scales>
<clustering>
<clus scale="   52.655">  1  9  2 -1</clus>
<clus scale="   63.614">  5  6 -1 -1</clus>
<clus scale="   89.487">  2  5  1 -1</clus>
<clus scale="   90.858">  7  8 -1 -1</clus>
<clus scale="   52.655">  1  5  2 -1</clus>
</clustering>
</event>
<event>
 9    1  0.1321469E-005  0.9759548E+02  0.7546771E-02  0.1286821E+00
         -3   -1    0    0    0  501 -0.00000000000E+00  0.00000000000E+00  0.40581273025E+03  0.40581273025E+03  0.00000000000E+00 0.  1.
         21   -1    0    0  501  502  0.00000000000E+00 -0.00000000000E+00 -0.39251597658E+02  0.39251597658E+02  0.00000000000E+00 0.  1.
         23    2    1    2    0    0 -0.47344343222E+00 -0.36447425542E+02  0.19434472950E+03  0.21763929235E+03  0.90930460863E+02 0.  0.
         23    2    1    2    0    0  0.35443975112E+02  0.25384228929E+02  0.16166036436E+03  0.18925747919E+03  0.88225198066E+02 0.  0.
        -11    1    3    3    0    0 -0.35901429879E+02  0.59945392864E+01  0.42022133422E+02  0.55594126182E+02  0.00000000000E+00 0. -1.
         11    1    3    3    0    0  0.35427986447E+02 -0.42441964829E+02  0.15232259608E+03  0.16204516617E+03  0.00000000000E+00 0.  1.
        -13    1    4    4    0    0  0.37651618326E+02  0.99390216853E+00  0.16036983115E+03  0.16473346638E+03  0.00000000000E+00 0.  1.
         13    1    4    4    0    0 -0.22076432135E+01  0.24390326761E+02  0.12905332099E+01  0.24524012804E+02  0.00000000000E+00 0. -1.
         -3    1    1    2    0  502 -0.34970531680E+02  0.11063196613E+02  0.10556038729E+02  0.38167556366E+02  0.00000000000E+00 0.  1.
<scales pt_clust_5="13000.00000" pt_clust_6="13000.00000" pt_clust_7="13000.00000" pt_clust_8="13000.00000" pt_clust_9="36.67877"></scales>
<clustering>
<clus scale="   36.679">  2  9  1 -1</clus>
<clus scale="   88.225">  7  8 -1 -1</clus>
<clus scale="   90.930">  5  6 -1 -1</clus>
<clus scale="   95.080">  2  7  1 -1</clus>
<clus scale="   36.679">  2  5  1 -1</clus>
</clustering>
</event>
<event>
 9    1  0.1321469E-005  0.9506858E+02  0.7546771E-02  0.1292417E+00
          2   -1    0    0  502    0 -0.00000000000E+00  0.00000000000E+00  0.36441035550E+03  0.36441035550E+03  0.00000000000E+00 0. -1.
         21   -1    0    0  501  502  0.00000000000E+00 -0.00000000000E+00 -0.73122198787E+02  0.73122198787E+02  0.00000000000E+00 0. -1.
         23    2    1    2    0    0 -0.83100139387E+01 -0.21651584903E+02  0.24896228423E+03  0.26593945810E+03  0.90574438692E+02 0.  0.
         23    2    1    2    0    0  0.15789754634E+02  0.41644728240E+02  0.80860315218E+02  0.12754113167E+03  0.88004260974E+02 0.  0.
        -11    1    4    4    0    0 -0.67656999344E+01  0.22754368387E+02 -0.14451503890E+02  0.27791760307E+02  0.00000000000E+00 0.  1.
         11    1    4    4    0    0  0.22555454568E+02  0.18890359853E+02  0.95311819108E+02  0.99749371365E+02  0.00000000000E+00 0. -1.
        -11    1    3    3    0    0  0.38094626771E+02 -0.19216575313E+02  0.79553322040E+02  0.90272966071E+02  0.00000000000E+00 0. -1.
         11    1    3    3    0    0 -0.46404640710E+02 -0.24350095894E+01  0.16940896219E+03  0.17566649203E+03  0.00000000000E+00 0.  1.
          2    1    1    2  501    0 -0.74797406952E+01 -0.19993143337E+02 -0.38534442731E+02  0.44051964519E+02  0.00000000000E+00 0. -1.
<scales pt_clust_5="13000.00000" pt_clust_6="13000.00000" pt_clust_7="13000.00000" pt_clust_8="13000.00000" pt_clust_9="21.34648"></scales>
<clustering>
<clus scale="   21.346">  2  9  1 -1</clus>
<clus scale="   88.004">  5  6 -1 -1</clus>
<clus scale="   90.574">  7  8 -1 -1</clus>
<clus scale="   92.623">  2  5  1 -1</clus>
<clus scale="   21.346">  2  5  1 -1</clus>
</clustering>
</event>
<event>
 9    1  0.1321469E-005  0.1361403E+03  0.7546771E-02  0.1219330E+00
         21   -1    0    0  501  502  0.00000000000E+00  0.00000000000E+00  0.84166931120E+02  0.84166931120E+02  0.00000000000E+00 0.  1.
          1   -1    0    0  502    0 -0.00000000000E+00 -0.00000000000E+00 -0.45340626318E+03  0.45340626318E+03  0.00000000000E+00 0. -1.
         23    2    1    2    0    0 -0.84133081898E+02 -0.55575436111E+02 -0.32868608840E+03  0.35579286711E+03  0.91580647585E+02 0.  0.
         23    2    1    2    0    0  0.90275551644E+02  0.22336791340E+02 -0.56833886767E+02  0.14426237441E+03  0.94514202702E+02 0.  0.
        -13    1    3    3    0    0 -0.74988055679E+02 -0.77076744730E+02 -0.22325863853E+03  0.24780728955E+03  0.00000000000E+00 0.  1.
         13    1    3    3    0    0 -0.91450262192E+01  0.21501308619E+02 -0.10542744987E+03  0.10798557756E+03  0.00000000000E+00 0. -1.
        -13    1    4    4    0    0  0.37966875811E+02  0.49981950242E+02 -0.57457714141E+02  0.85094464703E+02  0.00000000000E+00 0. -1.
         13    1    4    4    0    0  0.52308675833E+02 -0.27645158902E+02  0.62382737331E+00  0.59167909704E+02  0.00000000000E+00 0.  1.
          1    1    1    2  501    0 -0.61424697463E+01  0.33238644771E+02  0.16280643107E+02  0.37517952780E+02  0.00000000000E+00 0. -1.
<scales pt_clust_5="13000.00000" pt_clust_6="13000.00000" pt_clust_7="13000.00000" pt_clust_8="13000.00000" pt_clust_9="33.80144"></scales>
<clustering>
<clus scale="   33.801">  1  9  2 -1</clus>
<clus scale="   91.581">  5  6 -1 -1</clus>
<clus scale="   94.514">  7  8 -1 -1</clus>
<clus scale="  134.120">  2  5  1 -1</clus>
<clus scale="   33.801">  1  5  2 -1</clus>
</clustering>
</event>
<event>
 9    1  0.1321469E-005  0.9748940E+02  0.7546771E-02  0.1286437E+00
         -3   -1    0    0    0  501 -0.00000000000E+00  0.00000000000E+00  0.44436319827E+03  0.44436319827E+03  0.00000000000E+00 0.  1.
         21   -1    0    0  501  502  0.00000000000E+00 -0.00000000000E+00 -0.19158893064E+03  0.19158893064E+03  0.00000000000E+00 0.  1.
         23    2    1    2    0    0  0.25478781567E+02  0.33432457292E+02  0.24261940700E+03  0.26274644193E+03  0.91676706855E+02 0.  0.
         23    2    1    2    0    0 -0.25569768031E+01 -0.14400982859E+02  0.17869836313E+03  0.20204927201E+03  0.93149755208E+02 0.  0.
        -13    1    4    4    0    0 -0.26369435690E+02 -0.40653657847E+02  0.54660389461E+02  0.73046733062E+02  0.00000000000E+00 0. -1.
         13    1    4    4    0    0  0.23812458886E+02  0.26252674989E+02  0.12403797367E+03  0.12900253895E+03  0.00000000000E+00 0.  1.
        -13    1    3    3    0    0  0.85703882772E+01  0.61389846193E+02  0.19778153355E+03  0.20726721830E+03  0.00000000000E+00 0.  1.
         13    1    3    3    0    0  0.16908393289E+02 -0.27957388901E+02  0.44837873455E+02  0.55479223622E+02  0.00000000000E+00 0. -1.
         -3    1    1    2    0  502 -0.22921804763E+02 -0.19031474434E+02 -0.16854350251E+03  0.17115641498E+03  0.00000000000E+00 0.  1.
<scales pt_clust_5="13000.00000" pt_clust_6="13000.00000" pt_clust_7="13000.00000" pt_clust_8="13000.00000" pt_clust_9="29.79272"></scales>
<clustering>
<clus scale="   29.793">  2  9  1 -1</clus>
<clus scale="   91.677">  7  8 -1 -1</clus>
<clus scale="   93.150">  5  6 -1 -1</clus>
<clus scale="   96.083">  1  7  2 -1</clus>
<clus scale="   29.793">  2  5  1 -1</clus>
</clustering>
</event>
<event>
 9    1  0.1321469E-005  0.1167007E+03  0.7546771E-02  0.1249279E+00
         21   -1    0    0  501  502  0.00000000000E+00  0.00000000000E+00  0.10907873024E+03  0.10907873024E+03  0.00000000000E+00 0.  1.
          2   -1    0    0  502    0 -0.00000000000E+00 -0.00000000000E+00 -0.15635329174E+03  0.15635329174E+03  0.00000000000E+00 0. -1.
         23    2    1    2    0    0  0.57793074010E+02  0.54008060335E+02 -0.48965331194E+02  0.12930682314E+03  0.89809469811E+02 0.  0.
         23    2    1    2    0    0 -0.36819006424E+02 -0.49995089273E+02  0.13762992212E+02  0.11159452407E+03  0.91699343846E+02 0.  0.
        -13    1    4    4    0    0 -0.62966690001E+02 -0.11426004880E+02  0.10834378510E+02  0.64905634539E+02  0.00000000000E+00 0.  1.
         13    1    4    4    0    0  0.26147683576E+02 -0.38569084392E+02  0.29286137025E+01  0.46688889529E+02  0.00000000000E+00 0. -1.
        -13    1    3    3    0    0  0.32467393706E+02  0.72682788852E+00 -0.60992389475E+02  0.69099432029E+02  0.00000000000E+00 0. -1.
         13    1    3    3    0    0  0.25325680304E+02  0.53281232446E+02  0.12027058281E+02  0.60207391114E+02  0.00000000000E+00 0.  1.
          2    1    1    2  501    0 -0.20974067586E+02 -0.40129710618E+01 -0.12072222518E+02  0.24530674763E+02  0.00000000000E+00 0. -1.
<scales pt_clust_5="13000.00000" pt_clust_6="13000.00000" pt_clust_7="13000.00000" pt_clust_8="13000.00000" pt_clust_9="21.35453"></scales>
<clustering>
<clus scale="   21.355">  1  9  2 -1</clus>
<clus scale="   89.809">  7  8 -1 -1</clus>
<clus scale="   91.699">  5  6 -1 -1</clus>
<clus scale="  115.222">  2  7  1 -1</clus>
<clus scale="   21.355">  1  5  2 -1</clus>
</clustering>
</event>
<event>
 9    1  0.1321469E-005  0.1255125E+03  0.7546771E-02  0.1234991E+00
         21   -1    0    0  501  502  0.00000000000E+00  0.00000000000E+00  0.70544020799E+02  0.70544020799E+02  0.00000000000E+00 0.  1.
         -2   -1    0    0    0  501 -0.00000000000E+00 -0.00000000000E+00 -0.42127077107E+03  0.42127077107E+03  0.00000000000E+00 0.  1.
         23    2    1    2    0    0  0.76886814771E+02  0.68727712800E+02 -0.21963210648E+03  0.25890663681E+03  0.90328863585E+02 0.  0.
         23    2    1    2    0    0 -0.71964506138E+02 -0.28413119516E+01 -0.11605829780E+03  0.16514873770E+03  0.92831104055E+02 0.  0.
        -13    1    4    4    0    0 -0.65508913473E+02 -0.35839520956E+02 -0.10672430126E+03  0.13025346631E+03  0.00000000000E+00 0.  1.
         13    1    4    4    0    0 -0.64555926651E+01  0.32998209005E+02 -0.93339965384E+01  0.34895271392E+02  0.00000000000E+00 0. -1.
        -13    1    3    3    0    0  0.11815531013E+02  0.43175201602E+02 -0.16270982022E+03  0.16875482334E+03  0.00000000000E+00 0.  1.
         13    1    3    3    0    0  0.65071283759E+02  0.25552511198E+02 -0.56922286263E+02  0.90151813470E+02  0.00000000000E+00 0. -1.
         -2    1    1    2    0  502 -0.49223086336E+01 -0.65886400848E+02 -0.15036345991E+02  0.67759417351E+02  0.00000000000E+00 0.  1.
<scales pt_clust_5="13000.00000" pt_clust_6="13000.00000" pt_clust_7="13000.00000" pt_clust_8="13000.00000" pt_clust_9="66.07002"></scales>
<clustering>
<clus scale="   66.070">  1  9  2 -1</clus>
<clus scale="   90.329">  7  8 -1 -1</clus>
<clus scale="   92.831">  5  6 -1 -1</clus>
<clus scale="  123.673">  2  7  1 -1</clus>
<clus scale="   66.070">  1  5  2 -1</clus>
</clustering>
</event>
<event>
 9    1  0.1321469E-005  0.1264993E+03  0.7546771E-02  0.1233025E+00
         -3   -1    0    0    0  501 -0.00000000000E+00  0.00000000000E+00  0.13516190360E+03  0.13516190360E+03  0.00000000000E+00 0.  1.
         21   -1    0    0  501  502  0.00000000000E+00 -0.00000000000E+00 -0.22874111874E+03  0.22874111874E+03  0.00000000000E+00 0. -1.
         23    2    1    2    0    0  0.78944376452E+02  0.33820170525E+02  0.45152662590E+02  0.13182903792E+03  0.89241883615E+02 0.  0.
         23    2    1    2    0    0 -0.81251807029E+02 -0.61873460393E+02 -0.14916135706E+03  0.20205590075E+03  0.90262369463E+02 0.  0.
        -11    1    3    3    0    0  0.74580867052E+02  0.44049729920E+00  0.59329392061E+02  0.95302027945E+02  0.00000000000E+00 0.  1.
         11    1    3    3    0    0  0.43635094001E+01  0.33379673225E+02 -0.14176729471E+02  0.36527009971E+02  0.00000000000E+00 0. -1.
        -13    1    4    4    0    0 -0.99677704803E+02 -0.40090496542E+02 -0.11191961208E+03  0.15514152351E+03  0.00000000000E+00 0. -1.
         13    1    4    4    0    0  0.18425897774E+02 -0.21782963851E+02 -0.37241744980E+02  0.46914377242E+02  0.00000000000E+00 0.  1.
         -3    1    1    2    0  502  0.23074305775E+01  0.28053289869E+02  0.10429479338E+02  0.30018083676E+02  0.00000000000E+00 0.  1.
<scales pt_clust_5="13000.00000" pt_clust_6="13000.00000" pt_clust_7="13000.00000" pt_clust_8="13000.00000" pt_clust_9="28.14804"></scales>
<clustering>
<clus scale="   28.148">  2  9  1 -1</clus>
<clus scale="   89.242">  5  6 -1 -1</clus>
<clus scale="   90.262">  7  8 -1 -1</clus>
<clus scale="  125.773">  1  5  2 -1</clus>
<clus scale="   28.148">  2  5  1 -1</clus>
</clustering>
</event>
<event>
 9    1  0.1321469E-005  0.1054234E+03  0.7546771E-02  0.1269493E+00
          2   -1    0    0  502    0 -0.00000000000E+00  0.00000000000E+00  0.65274573616E+02  0.65274573616E+02  0.00000000000E+00 0. -1.
         21   -1    0    0  501  502  0.00000000000E+00 -0.00000000000E+00 -0.28290925895E+03  0.28290925895E+03  0.00000000000E+00 0. -1.
         23    2    1    2    0    0 -0.77094746376E+01 -0.41055376912E+02 -0.47342251365E+02  0.11166497606E+03  0.92102107147E+02 0.  0.
         23    2    1    2    0    0  0.32913645196E+02  0.64113059215E+02 -0.16421847310E+03  0.20182303648E+03  0.92579904644E+02 0.  0.
        -11    1    4    4    0    0  0.19943738145E+02 -0.22215336083E+02 -0.46731420654E+02  0.55453579910E+02  0.00000000000E+00 0.  1.
         11    1    4    4    0    0  0.12969907051E+02  0.86328395298E+02 -0.11748705245E+03  0.14636945657E+03  0.00000000000E+00 0. -1.
        -13    1    3    3    0    0  0.18321024119E+02 -0.88210482930E+01 -0.63891935591E+02  0.67049610374E+02  0.00000000000E+00 0. -1.
         13    1    3    3    0    0 -0.26030498757E+02 -0.32234328619E+02  0.16549684225E+02  0.44615365683E+02  0.00000000000E+00 0.  1.
          2    1    1    2  501    0 -0.25204170559E+02 -0.23057682303E+02 -0.60739608640E+01  0.34695820026E+02  0.00000000000E+00 0. -1.
<scales pt_clust_5="13000.00000" pt_clust_6="13000.00000" pt_clust_7="13000.00000" pt_clust_8="13000.00000" pt_clust_9="34.16004"></scales>
<clustering>
<clus scale="   34.160">  2  9  1 -1</clus>
<clus scale="   92.102">  7  8 -1 -1</clus>
<clus scale="   92.580">  5  6 -1 -1</clus>
<clus scale="  105.004">  1  7  2 -1</clus>
<clus scale="   34.160">  2  5  1 -1</clus>
</clustering>
</event>
<event>
 9    1  0.1321469E-005  0.1544931E+03  0.7546771E-02  0.1198244E+00
          2   -1    0    0  502    0 -0.00000000000E+00  0.00000000000E+00  0.33591637761E+03  0.33591637761E+03  0.00000000000E+00 0. -1.
         21   -1    0    0  501  502  0.00000000000E+00 -0.00000000000E+00 -0.10581281124E+03  0.10581281124E+03  0.00000000000E+00 0.  1.
         23    2    1    2    0    0  0.10523864562E+03 -0.74985493088E+02  0.15985567485E+03  0.22461209738E+03  0.90547008799E+02 0.  0.
         23    2    1    2    0    0 -0.92012846513E+02  0.12042653459E+02  0.47093391429E+02  0.14875881693E+03  0.10630149891E+03 0.  0.
        -13    1    3    3    0    0  0.72580625978E+01 -0.20368779053E+02  0.89781785102E+02  0.92348987914E+02  0.00000000000E+00 0. -1.
         13    1    3    3    0    0  0.97980583024E+02 -0.54616714035E+02  0.70073889753E+02  0.13226310947E+03  0.00000000000E+00 0.  1.
        -13    1    4    4    0    0 -0.78614828858E+02 -0.38849223132E+02  0.36986264823E+02  0.95171094561E+02  0.00000000000E+00 0.  1.
         13    1    4    4    0    0 -0.13398017654E+02  0.50891876591E+02  0.10107126606E+02  0.53587722365E+02  0.00000000000E+00 0. -1.
          2    1    1    2  501    0 -0.13225799109E+02  0.62942839629E+02  0.23154500086E+02  0.68358274531E+02  0.00000000000E+00 0. -1.
<scales pt_clust_5="13000.00000" pt_clust_6="13000.00000" pt_clust_7="13000.00000" pt_clust_8="13000.00000" pt_clust_9="64.31736"></scales>
<clustering>
<clus scale="   64.317">  2  9  1 -1</clus>
<clus scale="   90.547">  5  6 -1 -1</clus>
<clus scale="  106.301">  7  8 -1 -1</clus>
<clus scale="  144.107">  1  5  2 -1</clus>
<clus scale="   64.317">  2  5  1 -1</clus>
</clustering>
</event>
<event>
 9    1  0.1321469E-005  0.9116168E+02  0.7546771E-02  0.1300163E+00
         21   -1    0    0  501  502  0.00000000000E+00  0.00000000000E+00  0.11941343146E+03  0.11941343146E+03  0.00000000000E+00 0.  1.
         -1   -1    0    0    0  501 -0.00000000000E+00 -0.00000000000E+00 -0.25102002522E+03  0.25102002522E+03  0.00000000000E+00 0.  1.
         23    2    1    2    0    0  0.12274924116E+02  0.76913879276E+01 -0.19124299377E+03  0.21213823023E+03  0.90658231004E+02 0.  0.
         23    2    1    2    0    0  0.24522334206E+02  0.21826075525E+02  0.24969276565E+02  0.99753546287E+02  0.90827213856E+02 0.  0.
        -13    1    3    3    0    0  0.11367196473E+02  0.43372897667E+02 -0.15465631900E+03  0.16102483788E+03  0.00000000000E+00 0.  1.
         13    1    3    3    0    0  0.90772764306E+00 -0.35681509740E+02 -0.36586674768E+02  0.51113392348E+02  0.00000000000E+00 0. -1.
        -13    1    4    4    0    0  0.57378958885E+02  0.50456573254E+01  0.25169362291E+02  0.62859369856E+02  0.00000000000E+00 0.  1.
         13    1    4    4    0    0 -0.32856624678E+02  0.16780418200E+02 -0.20008572663E+00  0.36894176431E+02  0.00000000000E+00 0. -1.
         -1    1    1    2    0  502 -0.36797258323E+02 -0.29517463453E+02  0.34667123443E+02  0.58541680165E+02  0.00000000000E+00 0.  1.
<scales pt_clust_5="13000.00000" pt_clust_6="13000.00000" pt_clust_7="13000.00000" pt_clust_8="13000.00000" pt_clust_9="47.17329"></scales>
<clustering>
<clus scale="   47.173">  1  9  2 -1</clus>
<clus scale="   90.658">  5  6 -1 -1</clus>
<clus scale="   90.827">  7  8 -1 -1</clus>
<clus scale="   90.993">  2  5  1 -1</clus>
<clus scale="   47.173">  1  5  2 -1</clus>
</clustering>
</event>
<event>
 9    1  0.1321469E-005  0.1301763E+03  0.7546771E-02  0.1228148E+00
         21   -1    0    0  501  502  0.00000000000E+00  0.00000000000E+00  0.25039785470E+03  0.25039785470E+03  0.00000000000E+00 0. -1.
          1   -1    0    0  502    0 -0.00000000000E+00 -0.00000000000E+00 -0.19183618126E+03  0.19183618126E+03  0.00000000000E+00 0. -1.
         23    2    1    2    0    0  0.83943562536E+02  0.92723826902E+01 -0.71090765396E+02  0.14281553481E+03  0.90608395225E+02 0.  0.
         23    2    1    2    0    0 -0.14080448877E+03  0.46191838655E+02  0.13688355128E+03  0.21965802367E+03  0.86907713907E+02 0.  0.
        -11    1    3    3    0    0  0.58666448228E+02 -0.36772599707E+02 -0.53230172343E+02  0.87335144613E+02  0.00000000000E+00 0.  1.
         11    1    3    3    0    0  0.25277114308E+02  0.46044982397E+02 -0.17860593053E+02  0.55480390192E+02  0.00000000000E+00 0. -1.
        -13    1    4    4    0    0 -0.35360230253E+02 -0.26096865021E+02  0.35197054176E+02  0.56304749978E+02  0.00000000000E+00 0.  1.
         13    1    4    4    0    0 -0.10544425851E+03  0.72288703675E+02  0.10168649710E+03  0.16335327369E+03  0.00000000000E+00 0. -1.
          1    1    1    2  501    0  0.56860926230E+02 -0.55464221345E+02 -0.72311124461E+01  0.79760477483E+02  0.00000000000E+00 0. -1.
<scales pt_clust_5="13000.00000" pt_clust_6="13000.00000" pt_clust_7="13000.00000" pt_clust_8="13000.00000" pt_clust_9="79.43205"></scales>
<clustering>
<clus scale="   79.432">  1  9  2 -1</clus>
<clus scale="   86.908">  7  8 -1 -1</clus>
<clus scale="   90.608">  5  6 -1 -1</clus>
<clus scale="  127.628">  1  7  2 -1</clus>
<clus scale="   79.432">  1  5  2 -1</clus>
</clustering>
</event>
<event>
 9    1  0.1321469E-005  0.9093788E+02  0.7546771E-02  0.1302795E+00
          1   -1    0    0  502    0 -0.00000000000E+00  0.00000000000E+00  0.58350763792E+03  0.58350763792E+03  0.00000000000E+00 0. -1.
         21   -1    0    0  501  502  0.00000000000E+00 -0.00000000000E+00 -0.29439554156E+02  0.29439554156E+02  0.00000000000E+00 0. -1.
         23    2    1    2    0    0  0.29062184614E+02  0.48937279209E+01  0.29549711665E+03  0.31050015672E+03  0.90682094303E+02 0.  0.
         23    2    1    2    0    0  0.24003563839E+02 -0.42943449476E+01  0.21683687599E+03  0.23493357536E+03  0.87068602635E+02 0.  0.
        -11    1    3    3    0    0  0.19840844742E+02  0.46116868083E+02  0.12181167641E+03  0.13175169506E+03  0.00000000000E+00 0. -1.
         11    1    3    3    0    0  0.92213398723E+01 -0.41223140162E+02  0.17368544024E+03  0.17874846166E+03  0.00000000000E+00 0.  1.
        -11    1    4    4    0    0  0.32077855933E+02 -0.35892335121E+02  0.72979584620E+02  0.87425787574E+02  0.00000000000E+00 0.  1.
         11    1    4    4    0    0 -0.80742920938E+01  0.31597990173E+02  0.14385729137E+03  0.14750778778E+03  0.00000000000E+00 0. -1.
          1    1    1    2  501    0 -0.53065748453E+02 -0.59938297328E+00  0.41734091117E+02  0.67513459993E+02  0.00000000000E+00 0. -1.
<scales pt_clust_5="13000.00000" pt_clust_6="13000.00000" pt_clust_7="13000.00000" pt_clust_8="13000.00000" pt_clust_9="53.06913"></scales>
<clustering>
<clus scale="   53.069">  2  9  1 -1</clus>
<clus scale="   87.069">  7  8 -1 -1</clus>
<clus scale="   87.335">  2  7  1 -1</clus>
<clus scale="   90.682">  5  6 -1 -1</clus>
<clus scale="   53.069">  2  5  1 -1</clus>
</clustering>
</event>
<event>
 9    1  0.1321469E-005  0.1022901E+03  0.7546771E-02  0.1281598E+00
          4   -1    0    0  502    0 -0.00000000000E+00  0.00000000000E+00  0.87078880819E+02  0.87078880819E+02  0.00000000000E+00 0. -1.
         21   -1    0    0  501  502  0.00000000000E+00 -0.00000000000E+00 -0.35397446616E+03  0.35397446616E+03  0.00000000000E+00 0.  1.
         23    2    1    2    0    0  0.33228457722E+01  0.18145650780E+02  0.41363715117E+02  0.11053776907E+03  0.10083320641E+03 0.  0.
         23    2    1    2    0    0  0.21700776053E+02 -0.10716908100E+02 -0.22866911198E+03  0.24675421469E+03  0.89511473529E+02 0.  0.
        -13    1    4    4    0    0  0.16717753596E+02  0.36481258634E+02 -0.65431058306E+02  0.76756686405E+02  0.00000000000E+00 0.  1.
         13    1    4    4    0    0  0.49830224565E+01 -0.47198166735E+02 -0.16323805367E+03  0.16999752828E+03  0.00000000000E+00 0. -1.
        -13    1    3    3    0    0  0.45852443977E+02  0.17908924170E+02 -0.26964165390E+01  0.49299562328E+02  0.00000000000E+00 0.  1.
         13    1    3    3    0    0 -0.42529598204E+02  0.23672660987E+00  0.44060131656E+02  0.61238206738E+02  0.00000000000E+00 0. -1.
          4    1    1    2  501    0 -0.25023621825E+02 -0.74287426792E+01 -0.79590188477E+02  0.83761363222E+02  0.00000000000E+00 0. -1.
<scales pt_clust_5="13000.00000" pt_clust_6="13000.00000" pt_clust_7="13000.00000" pt_clust_8="13000.00000" pt_clust_9="26.10302"></scales>
<clustering>
<clus scale="   26.103">  2  9  1 -1</clus>
<clus scale="   89.511">  5  6 -1 -1</clus>
<clus scale="   91.150">  2  5  1 -1</clus>
<clus scale="  100.833">  7  8 -1 -1</clus>
<clus scale="   26.103">  2  5  1 -1</clus>
</clustering>
</event>
<event>
 9    1  0.1321469E-005  0.9521170E+02  0.7546771E-02  0.1291180E+00
         21   -1    0    0  501  502  0.00000000000E+00  0.00000000000E+00  0.12756355326E+03  0.12756355326E+03  0.00000000000E+00 0. -1.
          1   -1    0    0  502    0 -0.00000000000E+00 -0.00000000000E+00 -0.11150164084E+03  0.11150164084E+03  0.00000000000E+00 0. -1.
         23    2    1    2    0    0  0.25996844843E+02  0.20277542780E+02 -0.43769259612E+02  0.10517389987E+03  0.89770743814E+02 0.  0.
         23    2    1    2    0    0 -0.24999487318E+02  0.68999817831E+00  0.32668126335E+02  0.99562537357E+02  0.90664446743E+02 0.  0.
        -11    1    3    3    0    0 -0.17874509440E+02  0.42596682260E+02 -0.17659854292E+02  0.49455493940E+02  0.00000000000E+00 0. -1.
         11    1    3    3    0    0  0.43871354283E+02 -0.22319139480E+02 -0.26109405320E+02  0.55718405935E+02  0.00000000000E+00 0.  1.
        -11    1    4    4    0    0 -0.26210519375E+02 -0.39023407418E+02 -0.16846603955E+01  0.47038874701E+02  0.00000000000E+00 0.  1.
         11    1    4    4    0    0  0.12110320577E+01  0.39713405597E+02  0.34352786730E+02  0.52523662657E+02  0.00000000000E+00 0. -1.
          1    1    1    2  501    0 -0.99735752508E+00 -0.20967540958E+02  0.27163045698E+02  0.34328756859E+02  0.00000000000E+00 0. -1.
<scales pt_clust_5="13000.00000" pt_clust_6="13000.00000" pt_clust_7="13000.00000" pt_clust_8="13000.00000" pt_clust_9="20.99125"></scales>
<clustering>
<clus scale="   20.991">  1  9  2 -1</clus>
<clus scale="   89.771">  5  6 -1 -1</clus>
<clus scale="   90.664">  7  8 -1 -1</clus>
<clus scale="   94.361">  2  5  1 -1</clus>
<clus scale="   20.991">  1  5  2 -1</clus>
</clustering>
</event>
<event>
 9    1  0.1321469E-005  0.2455052E+03  0.7546771E-02  0.1116259E+00
         21   -1    0    0  501  502  0.00000000000E+00  0.00000000000E+00  0.57454277612E+03  0.57454277612E+03  0.00000000000E+00 0. -1.
          2   -1    0    0  502    0 -0.00000000000E+00 -0.00000000000E+00 -0.49805599353E+03  0.49805599353E+03  0.00000000000E+00 0. -1.
         23    2    1    2    0    0 -0.67357040240E+02  0.23406844839E+03 -0.37659021686E+03  0.45743361870E+03  0.90001748224E+02 0.  0.
         23    2    1    2    0    0  0.54294312301E+02 -0.16981383586E+03  0.49565010737E+02  0.20636053364E+03  0.91342040465E+02 0.  0.
        -13    1    3    3    0    0 -0.29806870607E+02  0.17603906736E+03 -0.32630422403E+03  0.37195785970E+03  0.00000000000E+00 0. -1.
         13    1    3    3    0    0 -0.37550169633E+02  0.58029381034E+02 -0.50285992830E+02  0.85475759006E+02  0.00000000000E+00 0.  1.
        -13    1    4    4    0    0  0.71408995539E+02 -0.73793751480E+02  0.22184393217E+02  0.10505669757E+03  0.00000000000E+00 0. -1.
         13    1    4    4    0    0 -0.17114683238E+02 -0.96020084385E+02  0.27380617520E+02  0.10130383607E+03  0.00000000000E+00 0.  1.
          2    1    1    2  501    0  0.13062727939E+02 -0.64254612525E+02  0.40351198872E+03  0.40880461731E+03  0.00000000000E+00 0. -1.
<scales pt_clust_5="13000.00000" pt_clust_6="13000.00000" pt_clust_7="13000.00000" pt_clust_8="13000.00000" pt_clust_9="65.56897"></scales>
<clustering>
<clus scale="   65.569">  1  9  2 -1</clus>
<clus scale="   90.002">  5  6 -1 -1</clus>
<clus scale="   91.342">  7  8 -1 -1</clus>
<clus scale="  245.010">  2  5  1 -1</clus>
<clus scale="   65.569">  1  5  2 -1</clus>
</clustering>
</event>
<event>
 9    1  0.1321469E-005  0.1097263E+03  0.7546771E-02  0.1262188E+00
          1   -1    0    0  502    0 -0.00000000000E+00  0.00000000000E+00  0.48760861881E+03  0.48760861881E+03  0.00000000000E+00 0. -1.
         21   -1    0    0  501  502  0.00000000000E+00 -0.00000000000E+00 -0.76960795794E+02  0.76960795794E+02  0.00000000000E+00 0. -1.
         23    2    1    2    0    0  0.28409246548E+02 -0.40015441679E+02  0.23066448079E+03  0.25214814108E+03  0.89242711125E+02 0.  0.
         23    2    1    2    0    0 -0.10131277396E+03  0.67818152871E+01  0.18715505226E+03  0.23197979383E+03  0.92072471298E+02 0.  0.
        -13    1    4    4    0    0 -0.71172611818E+02 -0.39812547199E+02  0.10923799998E+03  0.13632138581E+03  0.00000000000E+00 0. -1.
         13    1    4    4    0    0 -0.30140162140E+02  0.46594362486E+02  0.77917052280E+02  0.95658408023E+02  0.00000000000E+00 0.  1.
        -13    1    3    3    0    0 -0.75162294935E+00 -0.63355949009E+02  0.16259615006E+03  0.17450515530E+03  0.00000000000E+00 0. -1.
         13    1    3    3    0    0  0.29160869497E+02  0.23340507330E+02  0.68068330729E+02  0.77642985777E+02  0.00000000000E+00 0.  1.
          1    1    1    2  501    0  0.72903527410E+02  0.33233626392E+02 -0.71717100313E+01  0.80441479703E+02  0.00000000000E+00 0. -1.
<scales pt_clust_5="13000.00000" pt_clust_6="13000.00000" pt_clust_7="13000.00000" pt_clust_8="13000.00000" pt_clust_9="80.12115"></scales>
<clustering>
<clus scale="   80.121">  2  9  1 -1</clus>
<clus scale="   89.243">  7  8 -1 -1</clus>
<clus scale="   92.072">  5  6 -1 -1</clus>
<clus scale="  107.363">  1  7  2 -1</clus>
<clus scale="   80.121">  2  5  1 -1</clus>
</clustering>
</event>
<event>
 9    1  0.1321469E-005  0.1115689E+03  0.7546771E-02  0.1260441E+00
          2   -1    0    0  502    0 -0.00000000000E+00  0.00000000000E+00  0.37045743297E+02  0.37045743297E+02  0.00000000000E+00 0. -1.
         21   -1    0    0  501  502  0.00000000000E+00 -0.00000000000E+00 -0.60508492985E+03  0.60508492985E+03  0.00000000000E+00 0.  1.
         23    2    1    2    0    0 -0.48771098010E+01  0.56240332684E+02 -0.12885846696E+03  0.16680538165E+03  0.89625719626E+02 0.  0.
         23    2    1    2    0    0 -0.28041054362E+02 -0.54931421509E+02 -0.42374245165E+03  0.43894316818E+03  0.96486671433E+02 0.  0.
        -13    1    3    3    0    0 -0.21060663821E+02  0.54917467656E+01 -0.10706182997E+03  0.10925175641E+03  0.00000000000E+00 0.  1.
         13    1    3    3    0    0  0.16183554020E+02  0.50748585918E+02 -0.21796636993E+02  0.57553625234E+02  0.00000000000E+00 0. -1.
        -13    1    4    4    0    0 -0.28128565538E+02 -0.80404352445E+02 -0.36682521510E+03  0.37658573330E+03  0.00000000000E+00 0.  1.
         13    1    4    4    0    0  0.87511175371E-01  0.25472930936E+02 -0.56917236552E+02  0.62357434885E+02  0.00000000000E+00 0. -1.
          2    1    1    2  501    0  0.32918164163E+02 -0.13089111745E+01 -0.15438267949E+02  0.36382123325E+02  0.00000000000E+00 0. -1.
<scales pt_clust_5="13000.00000" pt_clust_6="13000.00000" pt_clust_7="13000.00000" pt_clust_8="13000.00000" pt_clust_9="32.94419"></scales>
<clustering>
<clus scale="   32.944">  2  9  1 -1</clus>
<clus scale="   89.626">  5  6 -1 -1</clus>
<clus scale="   96.487">  7  8 -1 -1</clus>
<clus scale="  105.692">  1  5  2 -1</clus>
<clus scale="   32.944">  2  5  1 -1</clus>
</clustering>
</event>
<event>
 9    1  0.3125774E-005  0.1022490E+03  0.7546771E-02  0.1279190E+00
         21   -1    0    0  501  502  0.00000000000E+00  0.00000000000E+00  0.39430209969E+03  0.39430209969E+03  0.00000000000E+00 0. -1.
          3   -1    0    0  502    0 -0.00000000000E+00 -0.00000000000E+00 -0.47309871812E+03  0.47309871812E+03  0.00000000000E+00 0. -1.
         23    2    1    2    0    0  0.18963969225E+02  0.29391746158E+02 -0.38230552139E+03  0.39525949416E+03  0.94069384878E+02 0.  0.
         23    2    1    2    0    0 -0.60064102006E+02 -0.44447176774E+02 -0.43441490820E+02  0.12244079084E+03  0.86725637872E+02 0.  0.
        -13    1    3    3    0    0 -0.31725616040E+02 -0.11353703948E+02 -0.16613753421E+03  0.16952020995E+03  0.00000000000E+00 0.  1.
         13    1    3    3    0    0  0.50689585264E+02  0.40745450106E+02 -0.21616798718E+03  0.22573928422E+03  0.00000000000E+00 0. -1.
        -13    1    4    4    0    0 -0.30287455429E+02 -0.55297035194E+02  0.64048457025E+01  0.63372818354E+02  0.00000000000E+00 0.  1.
         13    1    4    4    0    0 -0.29776646577E+02  0.10849858420E+02 -0.49846336523E+02  0.59067972488E+02  0.00000000000E+00 0. -1.
          3    1    1    2  501    0  0.41100132781E+02  0.15055430616E+02  0.34695039377E+03  0.34970053281E+03  0.00000000000E+00 0. -1.
<scales pt_clust_5="13000.00000" pt_clust_6="13000.00000" pt_clust_7="13000.00000" pt_clust_8="13000.00000" pt_clust_9="43.77085"></scales>
<clustering>
<clus scale="   43.771">  1  9  2 -1</clus>
<clus scale="   86.726">  7  8 -1 -1</clus>
<clus scale="   94.069">  5  6 -1 -1</clus>
<clus scale="   95.536">  1  7  2 -1</clus>
<clus scale="   43.771">  1  5  2 -1</clus>
</clustering>
</event>
<event>
 9    1  0.1321469E-005  0.1066722E+03  0.7546771E-02  0.1268160E+00
         21   -1    0    0  501  502  0.00000000000E+00  0.00000000000E+00  0.10660729738E+03  0.10660729738E+03  0.00000000000E+00 0.  1.
          1   -1    0    0  502    0 -0.00000000000E+00 -0.00000000000E+00 -0.20628676013E+03  0.20628676013E+03  0.00000000000E+00 0. -1.
         23    2    1    2    0    0  0.48229020921E+02  0.33597854758E+02 -0.83585984026E+02  0.13837672889E+03  0.93309421116E+02 0.  0.
         23    2    1    2    0    0  0.62348221926E+01 -0.57901935913E+02  0.12929699287E+02  0.10818978209E+03  0.90257102965E+02 0.  0.
        -13    1    3    3    0    0  0.67427674096E+02  0.26967784226E+02 -0.25705441831E+02  0.77035851133E+02  0.00000000000E+00 0.  1.
         13    1    3    3    0    0 -0.19198653176E+02  0.66300705325E+01 -0.57880542195E+02  0.61340877755E+02  0.00000000000E+00 0. -1.
        -13    1    4    4    0    0 -0.37289254436E+02 -0.30976070222E+01  0.52751972394E+01  0.37787714559E+02  0.00000000000E+00 0. -1.
         13    1    4    4    0    0  0.43524076629E+02 -0.54804328891E+02  0.76545020475E+01  0.70402067535E+02  0.00000000000E+00 0.  1.
          1    1    1    2  501    0 -0.54463843113E+02  0.24304081155E+02 -0.29023178012E+02  0.66327546535E+02  0.00000000000E+00 0. -1.
<scales pt_clust_5="13000.00000" pt_clust_6="13000.00000" pt_clust_7="13000.00000" pt_clust_8="13000.00000" pt_clust_9="59.64061"></scales>
<clustering>
<clus scale="   59.641">  1  9  2 -1</clus>
<clus scale="   90.257">  7  8 -1 -1</clus>
<clus scale="   93.309">  5  6 -1 -1</clus>
<clus scale="  104.013">  1  7  2 -1</clus>
<clus scale="   59.641">  1  5  2 -1</clus>
</clustering>
</event>
<event>
 9    1  0.1321469E-005  0.1593395E+03  0.7546771E-02  0.1209168E+00
         21   -1    0    0  501  502  0.00000000000E+00  0.00000000000E+00  0.34871106834E+02  0.34871106834E+02  0.00000000000E+00 0. -1.
          2   -1    0    0  502    0 -0.00000000000E+00 -0.00000000000E+00 -0.12843292867E+04  0.12843292867E+04  0.00000000000E+00 0. -1.
         23    2    1    2    0    0 -0.51404426315E+02  0.83025763906E+01 -0.41903436569E+03  0.43169080197E+03  0.89754114416E+02 0.  0.
         23    2    1    2    0    0  0.15483303369E+03  0.47011311881E+02 -0.60773372239E+03  0.63581934535E+03  0.93502036471E+02 0.  0.
        -11    1    4    4    0    0  0.32781497890E+02 -0.26974630298E+02 -0.10614428445E+03  0.11431914278E+03  0.00000000000E+00 0.  1.
         11    1    4    4    0    0  0.12205153580E+03  0.73985942179E+02 -0.50158943794E+03  0.52150020257E+03  0.00000000000E+00 0. -1.
        -11    1    3    3    0    0 -0.29123801795E+02  0.44554927158E+02 -0.31200420914E+03  0.31651218600E+03  0.00000000000E+00 0.  1.
         11    1    3    3    0    0 -0.22280624520E+02 -0.36252350768E+02 -0.10703015655E+03  0.11517861597E+03  0.00000000000E+00 0. -1.
          2    1    1    2  501    0 -0.10342860738E+03 -0.55313888271E+02 -0.22269009174E+03  0.25169024618E+03  0.00000000000E+00 0. -1.
<scales pt_clust_5="13000.00000" pt_clust_6="13000.00000" pt_clust_7="13000.00000" pt_clust_8="13000.00000" pt_clust_9="129.02114"></scales>
<clustering>
<clus scale="   89.754">  7  8 -1 -1</clus>
<clus scale="   93.502">  5  6 -1 -1</clus>
<clus scale="  103.765">  2  7  1 -1</clus>
<clus scale="  129.021">  1  9  2 -1</clus>
<clus scale="  129.021">  1  5  2 -1</clus>
</clustering>
</event>
<event>
 9    1  0.2135423E-005  0.9827451E+02  0.7546771E-02  0.1286718E+00
          1   -1    0    0  502    0 -0.00000000000E+00  0.00000000000E+00  0.38675200101E+03  0.38675200101E+03  0.00000000000E+00 0. -1.
         21   -1    0    0  501  502  0.00000000000E+00 -0.00000000000E+00 -0.12314504413E+03  0.12314504413E+03  0.00000000000E+00 0. -1.
         23    2    1    2    0    0 -0.21219603890E+02 -0.20437715195E+02  0.29223304732E+03  0.30908210770E+03  0.96247719781E+02 0.  0.
         23    2    1    2    0    0 -0.28350112356E+02  0.54381918502E+01  0.49037468883E+02  0.10746735624E+03  0.91166092937E+02 0.  0.
        -11    1    3    3    0    0 -0.10246372599E+02  0.31348573329E+02  0.42475531896E+02  0.53776314592E+02  0.00000000000E+00 0.  1.
         11    1    3    3    0    0 -0.10973231292E+02 -0.51786288524E+02  0.24975751543E+03  0.25530579311E+03  0.00000000000E+00 0. -1.
        -11    1    4    4    0    0  0.63099095833E+01 -0.37560744173E+02  0.86776268719E+01  0.39063098571E+02  0.00000000000E+00 0.  1.
         11    1    4    4    0    0 -0.34660021939E+02  0.42998936024E+02  0.40359842011E+02  0.68404257668E+02  0.00000000000E+00 0. -1.
          1    1    1    2  501    0  0.49569716246E+02  0.14999523345E+02 -0.77663559326E+02  0.93347581203E+02  0.00000000000E+00 0. -1.
<scales pt_clust_5="13000.00000" pt_clust_6="13000.00000" pt_clust_7="13000.00000" pt_clust_8="13000.00000" pt_clust_9="51.78940"></scales>
<clustering>
<clus scale="   51.789">  2  9  1 -1</clus>
<clus scale="   91.166">  7  8 -1 -1</clus>
<clus scale="   93.303">  2  7  1 -1</clus>
<clus scale="   96.248">  5  6 -1 -1</clus>
<clus scale="   51.789">  2  5  1 -1</clus>
</clustering>
</event>
<event>
 9    1  0.1321469E-005  0.2604355E+03  0.7546771E-02  0.1130837E+00
         21   -1    0    0  501  502  0.00000000000E+00  0.00000000000E+00  0.28144331203E+03  0.28144331203E+03  0.00000000000E+00 0. -1.
          2   -1    0    0  502    0 -0.00000000000E+00 -0.00000000000E+00 -0.50376984017E+03  0.50376984017E+03  0.00000000000E+00 0. -1.
         23    2    1    2    0    0  0.10049753376E+03  0.48210551718E+02 -0.38961774455E+02  0.14808666112E+03  0.89373529330E+02 0.  0.
         23    2    1    2    0    0 -0.18371222138E+03  0.18272418310E+03 -0.26193332886E+03  0.37938911120E+03  0.90491555195E+02 0.  0.
        -13    1    4    4    0    0 -0.72812827358E+02  0.79595937307E+02 -0.49977025205E+02  0.11889038696E+03  0.00000000000E+00 0.  1.
         13    1    4    4    0    0 -0.11089939402E+03  0.10312824579E+03 -0.21195630365E+03  0.26049872424E+03  0.00000000000E+00 0. -1.
        -13    1    3    3    0    0  0.43878287518E+01  0.28081461272E+02  0.18880555207E+02  0.34121794696E+02  0.00000000000E+00 0.  1.
         13    1    3    3    0    0  0.96109705008E+02  0.20129090446E+02 -0.57842329662E+02  0.11396486643E+03  0.00000000000E+00 0. -1.
          2    1    1    2  501    0  0.83214687618E+02 -0.23093473481E+03  0.78568575177E+02  0.25773737988E+03  0.00000000000E+00 0. -1.
<scales pt_clust_5="13000.00000" pt_clust_6="13000.00000" pt_clust_7="13000.00000" pt_clust_8="13000.00000" pt_clust_9="244.20880"></scales>
<clustering>
<clus scale="   89.374">  7  8 -1 -1</clus>
<clus scale="   90.492">  5  6 -1 -1</clus>
<clus scale="  142.869">  2  7  1 -1</clus>
<clus scale="  244.209">  1  9  2 -1</clus>
<clus scale="  244.209">  1  5  2 -1</clus>
</clustering>
</event>
<event>
 9    1  0.1321469E-005  0.3878979E+03  0.7546771E-02  0.1086249E+00
         -1   -1    0    0    0  501 -0.00000000000E+00  0.00000000000E+00  0.43053454877E+03  0.43053454877E+03  0.00000000000E+00 0.  1.
         21   -1    0    0  501  502  0.00000000000E+00 -0.00000000000E+00 -0.55822444184E+03  0.55822444184E+03  0.00000000000E+00 0.  1.
         23    2    1    2    0    0 -0.99314401488E+02 -0.26660917832E+01 -0.17243398950E+02  0.13619959319E+03  0.91556190341E+02 0.  0.
         23    2    1    2    0    0 -0.13584994896E+02 -0.37394737570E+03 -0.22136822477E+03  0.44404059990E+03  0.90260575825E+02 0.  0.
        -11    1    3    3    0    0 -0.65600143614E+02  0.35152549682E+02  0.15302900876E+02  0.75981967378E+02  0.00000000000E+00 0.  1.
         11    1    3    3    0    0 -0.33714257874E+02 -0.37818641465E+02 -0.32546299826E+02  0.60217625814E+02  0.00000000000E+00 0. -1.
        -11    1    4    4    0    0 -0.11390429547E+02 -0.29387685432E+03 -0.21376937348E+03  0.36358037959E+03  0.00000000000E+00 0.  1.
         11    1    4    4    0    0 -0.21945653482E+01 -0.80070521381E+02 -0.75988512887E+01  0.80460220310E+02  0.00000000000E+00 0. -1.
         -1    1    1    2    0  502  0.11289939638E+03  0.37661346748E+03  0.11092173064E+03  0.40851879751E+03  0.00000000000E+00 0.  1.
<scales pt_clust_5="13000.00000" pt_clust_6="13000.00000" pt_clust_7="13000.00000" pt_clust_8="13000.00000" pt_clust_9="377.25048"></scales>
<clustering>
<clus scale="   90.261">  7  8 -1 -1</clus>
<clus scale="   91.556">  5  6 -1 -1</clus>
<clus scale="  135.104">  1  5  2 -1</clus>
<clus scale="  377.250">  2  9  1 -1</clus>
<clus scale="  377.250">  2  5  1 -1</clus>
</clustering>
</event>
<event>
 9    1  0.1321469E-005  0.1049731E+03  0.7546771E-02  0.1270543E+00
         21   -1    0    0  501  502  0.00000000000E+00  0.00000000000E+00  0.28217508070E+03  0.28217508070E+03  0.00000000000E+00 0.  1.
          4   -1    0    0  502    0 -0.00000000000E+00 -0.00000000000E+00 -0.12210276716E+03  0.12210276716E+03  0.00000000000E+00 0. -1.
         23    2    1    2    0    0 -0.63628854885E+02  0.11161607178E+01 -0.43134914138E+02  0.11833019197E+03  0.89952968407E+02 0.  0.
         23    2    1    2    0    0  0.34653543388E+02 -0.10671766186E+02  0.19489523471E+02  0.99713735482E+02  0.90819782293E+02 0.  0.
        -11    1    3    3    0    0 -0.19376186643E+02  0.43700938787E+02 -0.26698278642E+02  0.54754056856E+02  0.00000000000E+00 0.  1.
         11    1    3    3    0    0 -0.44252668242E+02 -0.42584778069E+02 -0.16436635495E+02  0.63576135114E+02  0.00000000000E+00 0. -1.
        -13    1    4    4    0    0  0.16230085841E+01 -0.41852757252E+02 -0.13013504527E+02  0.43859306271E+02  0.00000000000E+00 0. -1.
         13    1    4    4    0    0  0.33030534804E+02  0.31180991067E+02  0.32503027998E+02  0.55854429211E+02  0.00000000000E+00 0.  1.
          4    1    1    2  501    0  0.28975311497E+02  0.95556054677E+01  0.18371770421E+03  0.18623392041E+03  0.00000000000E+00 0. -1.
<scales pt_clust_5="13000.00000" pt_clust_6="13000.00000" pt_clust_7="13000.00000" pt_clust_8="13000.00000" pt_clust_9="30.51030"></scales>
<clustering>
<clus scale="   30.510">  1  9  2 -1</clus>
<clus scale="   89.953">  5  6 -1 -1</clus>
<clus scale="   90.820">  7  8 -1 -1</clus>
<clus scale="  104.224">  2  5  1 -1</clus>
<clus scale="   30.510">  1  5  2 -1</clus>
</clustering>
</event>
<event>
 9    1  0.1321469E-005  0.1745873E+03  0.7546771E-02  0.1173323E+00
         21   -1    0    0  501  502  0.00000000000E+00  0.00000000000E+00  0.28640354828E+03  0.28640354828E+03  0.00000000000E+00 0. -1.
         -1   -1    0    0    0  501 -0.00000000000E+00 -0.00000000000E+00 -0.33372627671E+03  0.33372627671E+03  0.00000000000E+00 0.  1.
         23    2    1    2    0    0 -0.11642501590E+03 -0.90385452774E+02 -0.24221905241E+03  0.29750298607E+03  0.90075762392E+02 0.  0.
         23    2    1    2    0    0  0.92153031928E+02  0.13362835771E+03  0.90633536094E+02  0.20717205569E+03  0.91417194869E+02 0.  0.
        -11    1    3    3    0    0 -0.68444076670E+02 -0.11824527381E+01 -0.71415471732E+02  0.98925019223E+02  0.00000000000E+00 0. -1.
         11    1    3    3    0    0 -0.47980939225E+02 -0.89203000036E+02 -0.17080358067E+03  0.19857796684E+03  0.00000000000E+00 0.  1.
        -11    1    4    4    0    0 -0.12559196787E+02  0.40957505804E+02  0.48213664257E+01  0.43110280443E+02  0.00000000000E+00 0. -1.
         11    1    4    4    0    0  0.10471222871E+03  0.92670851905E+02  0.85812169668E+02  0.16406177525E+03  0.00000000000E+00 0.  1.
         -1    1    1    2    0  502  0.24271983968E+02 -0.43242904936E+02  0.10426278788E+03  0.11545478322E+03  0.00000000000E+00 0.  1.
<scales pt_clust_5="13000.00000" pt_clust_6="13000.00000" pt_clust_7="13000.00000" pt_clust_8="13000.00000" pt_clust_9="49.58909"></scales>
<clustering>
<clus scale="   49.589">  1  9  2 -1</clus>
<clus scale="   90.076">  5  6 -1 -1</clus>
<clus scale="   91.417">  7  8 -1 -1</clus>
<clus scale="  173.889">  2  5  1 -1</clus>
<clus scale="   49.589">  1  5  2 -1</clus>
</clustering>
</event>
<event>
 9    1  0.1321469E-005  0.1080686E+03  0.7546771E-02  0.1273049E+00
          1   -1    0    0  502    0 -0.00000000000E+00  0.00000000000E+00  0.12362034397E+03  0.12362034397E+03  0.00000000000E+00 0. -1.
         21   -1    0    0  501  502  0.00000000000E+00 -0.00000000000E+00 -0.14306936220E+03  0.14306936220E+03  0.00000000000E+00 0. -1.
         23    2    1    2    0    0 -0.86758474335E+01 -0.75303089039E+01  0.61136794793E+02  0.10929668297E+03  0.89867020371E+02 0.  0.
         23    2    1    2    0    0  0.41706183195E+01  0.30770885990E+02 -0.65708659381E+02  0.12943320894E+03  0.10710315671E+03 0.  0.
        -13    1    4    4    0    0 -0.27383349150E+02  0.59450215238E+02 -0.54938585512E+02  0.85454222135E+02  0.00000000000E+00 0. -1.
         13    1    4    4    0    0  0.31553967470E+02 -0.28679329248E+02 -0.10770073869E+02  0.43978986805E+02  0.00000000000E+00 0.  1.
        -13    1    3    3    0    0 -0.39371624558E+02  0.17259336585E+02  0.54293809589E+02  0.69251911738E+02  0.00000000000E+00 0.  1.
         13    1    3    3    0    0  0.30695777125E+02 -0.24789645489E+02  0.68429852043E+01  0.40044771235E+02  0.00000000000E+00 0. -1.
          1    1    1    2  501    0  0.45052291140E+01 -0.23240577086E+02 -0.14877153647E+02  0.27959814257E+02  0.00000000000E+00 0. -1.
<scales pt_clust_5="13000.00000" pt_clust_6="13000.00000" pt_clust_7="13000.00000" pt_clust_8="13000.00000" pt_clust_9="23.67322"></scales>
<clustering>
<clus scale="   23.673">  2  9  1 -1</clus>
<clus scale="   89.867">  7  8 -1 -1</clus>
<clus scale="   91.016">  1  7  2 -1</clus>
<clus scale="  107.103">  5  6 -1 -1</clus>
<clus scale="   23.673">  2  5  1 -1</clus>
</clustering>
</event>
<event>
 9    1  0.1321469E-005  0.1070181E+03  0.7546771E-02  0.1266265E+00
         21   -1    0    0  501  502  0.00000000000E+00  0.00000000000E+00  0.16204732059E+03  0.16204732059E+03  0.00000000000E+00 0. -1.
          4   -1    0    0  502    0 -0.00000000000E+00 -0.00000000000E+00 -0.18520432900E+03  0.18520432900E+03  0.00000000000E+00 0. -1.
         23    2    1    2    0    0  0.47053681753E+02 -0.17716519814E+02 -0.10177437451E+03  0.14838893381E+03  0.95568448400E+02 0.  0.
         23    2    1    2    0    0 -0.18637672716E+02  0.47738697342E+02  0.10417109502E+03  0.15026442594E+03  0.95401439185E+02 0.  0.
        -13    1    3    3    0    0  0.73887689588E+01 -0.28297463988E+02 -0.10324830438E+03  0.10731054343E+03  0.00000000000E+00 0. -1.
         13    1    3    3    0    0  0.39664912794E+02  0.10580944174E+02  0.14739298705E+01  0.41078390375E+02  0.00000000000E+00 0.  1.
        -13    1    4    4    0    0  0.20988762325E+02  0.52188393467E+02  0.93280567564E+02  0.10892851253E+03  0.00000000000E+00 0. -1.
         13    1    4    4    0    0 -0.39626435040E+02 -0.44496961247E+01  0.10890527455E+02  0.41335913415E+02  0.00000000000E+00 0.  1.
          4    1    1    2  501    0 -0.28416009037E+02 -0.30022177529E+02 -0.25553728917E+02  0.48598289833E+02  0.00000000000E+00 0. -1.
<scales pt_clust_5="13000.00000" pt_clust_6="13000.00000" pt_clust_7="13000.00000" pt_clust_8="13000.00000" pt_clust_9="41.33766"></scales>
<clustering>
<clus scale="   41.338">  1  9  2 -1</clus>
<clus scale="   95.401">  7  8 -1 -1</clus>
<clus scale="   95.568">  5  6 -1 -1</clus>
<clus scale="  106.869">  1  7  2 -1</clus>
<clus scale="   41.338">  1  5  2 -1</clus>
</clustering>
</event>
<event>
 9    1  0.1321469E-005  0.1046186E+03  0.7546771E-02  0.1274460E+00
         21   -1    0    0  501  502  0.00000000000E+00  0.00000000000E+00  0.75653235419E+02  0.75653235419E+02  0.00000000000E+00 0.  1.
         -3   -1    0    0    0  501 -0.00000000000E+00 -0.00000000000E+00 -0.30204453175E+03  0.30204453175E+03  0.00000000000E+00 0.  1.
         23    2    1    2    0    0 -0.53690111812E+01 -0.36479159472E+02 -0.16807450611E+03  0.19346389578E+03  0.88428977205E+02 0.  0.
         23    2    1    2    0    0 -0.13512280342E+02  0.51274240094E+02 -0.91778104473E+02  0.14306279985E+03  0.96083894714E+02 0.  0.
        -13    1    3    3    0    0  0.18617776716E+02  0.19616996673E+02 -0.92302514670E+02  0.96183170995E+02  0.00000000000E+00 0.  1.
         13    1    3    3    0    0 -0.23986787897E+02 -0.56096156145E+02 -0.75771991438E+02  0.97280724784E+02  0.00000000000E+00 0. -1.
        -13    1    4    4    0    0  0.33246392790E+02  0.39618088514E+02 -0.76814608733E+02  0.92603453963E+02  0.00000000000E+00 0.  1.
         13    1    4    4    0    0 -0.46758673132E+02  0.11656151580E+02 -0.14963495741E+02  0.50459345889E+02  0.00000000000E+00 0. -1.
         -3    1    1    2    0  502  0.18881291524E+02 -0.14795080622E+02  0.33461314251E+02  0.41171071538E+02  0.00000000000E+00 0.  1.
<scales pt_clust_5="13000.00000" pt_clust_6="13000.00000" pt_clust_7="13000.00000" pt_clust_8="13000.00000" pt_clust_9="23.98745"></scales>
<clustering>
<clus scale="   23.987">  1  9  2 -1</clus>
<clus scale="   88.429">  5  6 -1 -1</clus>
<clus scale="   96.084">  7  8 -1 -1</clus>
<clus scale="   97.635">  2  5  1 -1</clus>
<clus scale="   23.987">  1  5  2 -1</clus>
</clustering>
</event>
<event>
 9    1  0.1321469E-005  0.1038013E+03  0.7546771E-02  0.1272731E+00
          2   -1    0    0  502    0 -0.00000000000E+00  0.00000000000E+00  0.79061043608E+02  0.79061043608E+02  0.00000000000E+00 0. -1.
         21   -1    0    0  501  502  0.00000000000E+00 -0.00000000000E+00 -0.45304281548E+03  0.45304281548E+03  0.00000000000E+00 0. -1.
         23    2    1    2    0    0  0.51098637536E+02  0.24241355438E+02  0.28050872790E+02  0.10973340225E+03  0.89754409546E+02 0.  0.
         23    2    1    2    0    0 -0.24886449788E+02  0.52190011851E+00 -0.26723493202E+03  0.28283293161E+03  0.89220796630E+02 0.  0.
        -11    1    3    3    0    0  0.15008077459E+02 -0.26745246726E+02  0.35397973102E+02  0.46835532571E+02  0.00000000000E+00 0.  1.
         11    1    3    3    0    0  0.36090560077E+02  0.50986602165E+02 -0.73471003111E+01  0.62897869677E+02  0.00000000000E+00 0. -1.
        -13    1    4    4    0    0 -0.44264005458E+01 -0.37172606178E+02 -0.19709932289E+03  0.20062287695E+03  0.00000000000E+00 0. -1.
         13    1    4    4    0    0 -0.20460049243E+02  0.37694506297E+02 -0.70135609128E+02  0.82210054663E+02  0.00000000000E+00 0.  1.
          2    1    1    2  501    0 -0.26212187748E+02 -0.24763255557E+02 -0.13479771265E+03  0.13953752523E+03  0.00000000000E+00 0. -1.
<scales pt_clust_5="13000.00000" pt_clust_6="13000.00000" pt_clust_7="13000.00000" pt_clust_8="13000.00000" pt_clust_9="36.05964"></scales>
<clustering>
<clus scale="   36.060">  2  9  1 -1</clus>
<clus scale="   89.221">  7  8 -1 -1</clus>
<clus scale="   89.754">  5  6 -1 -1</clus>
<clus scale="  103.340">  2  7  1 -1</clus>
<clus scale="   36.060">  2  5  1 -1</clus>
</clustering>
</event>
<event>
 9    1  0.1321469E-005  0.1050227E+03  0.7546771E-02  0.1271242E+00
         21   -1    0    0  501  502  0.00000000000E+00  0.00000000000E+00  0.45741801755E+03  0.45741801755E+03  0.00000000000E+00 0. -1.
         -1   -1    0    0    0  501 -0.00000000000E+00 -0.00000000000E+00 -0.34606643049E+02  0.34606643049E+02  0.00000000000E+00 0.  1.
         23    2    1    2    0    0 -0.56138423725E+02  0.18423546512E+02  0.11006467289E+03  0.15374796796E+03  0.89628431588E+02 0.  0.
         23    2    1    2    0    0  0.34975679829E+02 -0.74196270222E+01  0.20147439266E+03  0.22447654013E+03  0.92300796981E+02 0.  0.
        -11    1    4    4    0    0  0.34618904283E+02  0.27608566688E+02  0.41416768767E+02  0.60630439743E+02  0.00000000000E+00 0.  1.
         11    1    4    4    0    0  0.35677554533E+00 -0.35028193710E+02  0.16005762390E+03  0.16384610038E+03  0.00000000000E+00 0. -1.
        -11    1    3    3    0    0  0.13388153615E+02 -0.22216063305E+02  0.35731235867E+02  0.44153338975E+02  0.00000000000E+00 0. -1.
         11    1    3    3    0    0 -0.69526577341E+02  0.40639609817E+02  0.74333437025E+02  0.10959462899E+03  0.00000000000E+00 0.  1.
         -1    1    1    2    0  502  0.21162743897E+02 -0.11003919489E+02  0.11127230895E+03  0.11380015251E+03  0.00000000000E+00 0.  1.
<scales pt_clust_5="13000.00000" pt_clust_6="13000.00000" pt_clust_7="13000.00000" pt_clust_8="13000.00000" pt_clust_9="23.85263"></scales>
<clustering>
<clus scale="   23.853">  1  9  2 -1</clus>
<clus scale="   89.628">  7  8 -1 -1</clus>
<clus scale="   92.301">  5  6 -1 -1</clus>
<clus scale="  102.682">  2  7  1 -1</clus>
<clus scale="   23.853">  1  5  2 -1</clus>
</clustering>
</event>
<event>
 9    1  0.1321469E-005  0.9903065E+02  0.7546771E-02  0.1282456E+00
         21   -1    0    0  501  502  0.00000000000E+00  0.00000000000E+00  0.12529652977E+03  0.12529652977E+03  0.00000000000E+00 0.  1.
          4   -1    0    0  502    0 -0.00000000000E+00 -0.00000000000E+00 -0.10074981192E+03  0.10074981192E+03  0.00000000000E+00 0. -1.
         23    2    1    2    0    0  0.33102837269E+02  0.25029268188E+02  0.13275470718E+01  0.99666186229E+02  0.90605321008E+02 0.  0.
         23    2    1    2    0    0 -0.41050608204E+02 -0.18191136575E+01  0.19142190449E+02  0.10151049312E+03  0.90826731477E+02 0.  0.
        -13    1    3    3    0    0 -0.23167404182E+02 -0.10018678855E+02 -0.17544895927E+02  0.30739647292E+02  0.00000000000E+00 0.  1.
         13    1    3    3    0    0  0.56270241452E+02  0.35047947044E+02  0.18872442999E+02  0.68926538936E+02  0.00000000000E+00 0. -1.
        -13    1    4    4    0    0 -0.24925909078E+02 -0.42701281921E+02 -0.76620208581E+01  0.50034058248E+02  0.00000000000E+00 0.  1.
         13    1    4    4    0    0 -0.16124699125E+02  0.40882168264E+02  0.26804211307E+02  0.51476434877E+02  0.00000000000E+00 0. -1.
          4    1    1    2  501    0  0.79477709345E+01 -0.23210154531E+02  0.40769803283E+01  0.24869662337E+02  0.00000000000E+00 0. -1.
<scales pt_clust_5="13000.00000" pt_clust_6="13000.00000" pt_clust_7="13000.00000" pt_clust_8="13000.00000" pt_clust_9="24.53321"></scales>
<clustering>
<clus scale="   24.533">  1  9  2 -1</clus>
<clus scale="   90.605">  5  6 -1 -1</clus>
<clus scale="   90.827">  7  8 -1 -1</clus>
<clus scale="   98.828">  2  5  1 -1</clus>
<clus scale="   24.533">  1  5  2 -1</clus>
</clustering>
</event>
<event>
 9    1  0.1321469E-005  0.1318652E+03  0.7546771E-02  0.1224909E+00
         -1   -1    0    0    0  501 -0.00000000000E+00  0.00000000000E+00  0.38618624062E+03  0.38618624062E+03  0.00000000000E+00 0.  1.
         21   -1    0    0  501  502  0.00000000000E+00 -0.00000000000E+00 -0.10313398298E+03  0.10313398298E+03  0.00000000000E+00 0. -1.
         23    2    1    2    0    0 -0.10479360301E+03  0.67552309694E+01  0.22523454948E+03  0.26424517856E+03  0.89819706817E+02 0.  0.
         23    2    1    2    0    0  0.81484070454E+02 -0.18458647888E+02  0.11098809047E+03  0.16585179090E+03  0.90598481762E+02 0.  0.
        -11    1    4    4    0    0  0.33277703133E+02  0.48941751652E+01  0.10697310335E+03  0.11213653872E+03  0.00000000000E+00 0.  1.
         11    1    4    4    0    0  0.48206367321E+02 -0.23352823053E+02  0.40149871252E+01  0.53715252177E+02  0.00000000000E+00 0. -1.
        -13    1    3    3    0    0 -0.61559432242E+01  0.22706444911E+02  0.75233395987E+01  0.24699775630E+02  0.00000000000E+00 0. -1.
         13    1    3    3    0    0 -0.98637659784E+02 -0.15951213941E+02  0.21771120988E+03  0.23954540293E+03  0.00000000000E+00 0.  1.
         -1    1    1    2    0  502  0.23309532554E+02  0.11703416919E+02 -0.53170382319E+02  0.59223254144E+02  0.00000000000E+00 0.  1.
<scales pt_clust_5="13000.00000" pt_clust_6="13000.00000" pt_clust_7="13000.00000" pt_clust_8="13000.00000" pt_clust_9="26.08264"></scales>
<clustering>
<clus scale="   26.083">  2  9  1 -1</clus>
<clus scale="   89.820">  7  8 -1 -1</clus>
<clus scale="   90.598">  5  6 -1 -1</clus>
<clus scale="  131.331">  1  7  2 -1</clus>
<clus scale="   26.083">  2  5  1 -1</clus>
</clustering>
</event>
<event>
 9    1  0.1321469E-005  0.1221787E+03  0.7546771E-02  0.1242014E+00
         -3   -1    0    0    0  501 -0.00000000000E+00  0.00000000000E+00  0.46047202620E+03  0.46047202620E+03  0.00000000000E+00 0.  1.
         21   -1    0    0  501  502  0.00000000000E+00 -0.00000000000E+00 -0.58574257744E+02  0.58574257744E+02  0.00000000000E+00 0. -1.
         23    2    1    2    0    0 -0.64858353887E+02 -0.54652659463E+02  0.14217507625E+03  0.18891107879E+03  0.90995187380E+02 0.  0.
         23    2    1    2    0    0  0.87806098940E+02  0.33892793566E+01  0.87855067271E+02  0.14932311031E+03  0.82809904008E+02 0.  0.
        -13    1    3    3    0    0 -0.18895236871E+02 -0.68441292620E+02  0.11073258138E+03  0.13154065946E+03  0.00000000000E+00 0. -1.
         13    1    3    3    0    0 -0.45963117016E+02  0.13788633157E+02  0.31442494872E+02  0.57370419329E+02  0.00000000000E+00 0.  1.
        -13    1    4    4    0    0  0.64153394652E+02 -0.33992992065E+02  0.35610182747E+02  0.80865732361E+02  0.00000000000E+00 0. -1.
         13    1    4    4    0    0  0.23652704288E+02  0.37382271422E+02  0.52244884525E+02  0.68457377950E+02  0.00000000000E+00 0.  1.
         -3    1    1    2    0  502 -0.22947745053E+02  0.51263380107E+02  0.17186762493E+03  0.18081209485E+03  0.00000000000E+00 0.  1.
<scales pt_clust_5="13000.00000" pt_clust_6="13000.00000" pt_clust_7="13000.00000" pt_clust_8="13000.00000" pt_clust_9="56.16526"></scales>
<clustering>
<clus scale="   56.165">  2  9  1 -1</clus>
<clus scale="   82.810">  7  8 -1 -1</clus>
<clus scale="   90.995">  5  6 -1 -1</clus>
<clus scale="  116.211">  2  7  1 -1</clus>
<clus scale="   56.165">  2  5  1 -1</clus>
</clustering>
</event>
<event>
 9    1  0.1577189E-005  0.4368838E+03  0.7546771E-02  0.1031812E+00
         21   -1    0    0  501  502  0.00000000000E+00  0.00000000000E+00  0.25614918243E+03  0.25614918243E+03  0.00000000000E+00 0. -1.
          1   -1    0    0  502    0 -0.00000000000E+00 -0.00000000000E+00 -0.19702691025E+04  0.19702691025E+04  0.00000000000E+00 0. -1.
         23    2    1    2    0    0 -0.24630262352E+03  0.33813654926E+03 -0.13060249854E+04  0.13743827507E+04  0.90693852281E+02 0.  0.
         23    2    1    2    0    0  0.23947713864E+03 -0.38125130803E+03 -0.54294028875E+03  0.71030078481E+03  0.83911786719E+02 0.  0.
        -11    1    3    3    0    0 -0.13109209420E+03  0.24359431877E+03 -0.77742250430E+03  0.82517215143E+03  0.00000000000E+00 0. -1.
         11    1    3    3    0    0 -0.11521052932E+03  0.94542230492E+02 -0.52860248106E+03  0.54921059931E+03  0.00000000000E+00 0.  1.
        -13    1    4    4    0    0  0.33843624564E+02 -0.22826858745E+02 -0.25591530272E+02  0.48180730853E+02  0.00000000000E+00 0.  1.
         13    1    4    4    0    0  0.20563351408E+03 -0.35842444929E+03 -0.51734875848E+03  0.66212005396E+03  0.00000000000E+00 0. -1.
          1    1    1    2  501    0  0.68254848758E+01  0.43114758768E+02  0.13484535405E+03  0.14173474936E+03  0.00000000000E+00 0. -1.
<scales pt_clust_5="13000.00000" pt_clust_6="13000.00000" pt_clust_7="13000.00000" pt_clust_8="13000.00000" pt_clust_9="43.65169"></scales>
<clustering>
<clus scale="   43.652">  1  9  2 -1</clus>
<clus scale="   83.912">  7  8 -1 -1</clus>
<clus scale="   90.694">  5  6 -1 -1</clus>
<clus scale="  435.526">  1  7  2 -1</clus>
<clus scale="   43.652">  1  5  2 -1</clus>
</clustering>
</event>
<event>
 9    1  0.1321469E-005  0.1118595E+03  0.7546771E-02  0.1260803E+00
         -1   -1    0    0    0  501 -0.00000000000E+00  0.00000000000E+00  0.52302746262E+03  0.52302746262E+03  0.00000000000E+00 0.  1.
         21   -1    0    0  501  502  0.00000000000E+00 -0.00000000000E+00 -0.11933063316E+03  0.11933063316E+03  0.00000000000E+00 0. -1.
         23    2    1    2    0    0 -0.13529290878E+02  0.38401284971E+02  0.33633721808E+03  0.35345617958E+03  0.10075140802E+03 0.  0.
         23    2    1    2    0    0  0.22752445615E+02 -0.61113946121E+02  0.15847588055E+03  0.19454564418E+03  0.92091339236E+02 0.  0.
        -13    1    4    4    0    0  0.37338859987E+02 -0.45432525609E+01  0.16603860995E+02  0.41115931327E+02  0.00000000000E+00 0.  1.
         13    1    4    4    0    0 -0.14586414372E+02 -0.56570693560E+02  0.14187201955E+03  0.15342971285E+03  0.00000000000E+00 0. -1.
        -13    1    3    3    0    0 -0.56695313779E+02  0.13532614675E+02  0.16331527324E+03  0.17340521543E+03  0.00000000000E+00 0.  1.
         13    1    3    3    0    0  0.43166022901E+02  0.24868670296E+02  0.17302194484E+03  0.18005096415E+03  0.00000000000E+00 0. -1.
         -1    1    1    2    0  502 -0.92231547374E+01  0.22712661150E+02 -0.91116269179E+02  0.94356272017E+02  0.00000000000E+00 0.  1.
<scales pt_clust_5="13000.00000" pt_clust_6="13000.00000" pt_clust_7="13000.00000" pt_clust_8="13000.00000" pt_clust_9="24.51391"></scales>
<clustering>
<clus scale="   24.514">  2  9  1 -1</clus>
<clus scale="   92.091">  5  6 -1 -1</clus>
<clus scale="  100.751">  7  8 -1 -1</clus>
<clus scale="  104.127">  2  5  1 -1</clus>
<clus scale="   24.514">  2  5  1 -1</clus>
</clustering>
</event>
<event>
 9    1  0.1321469E-005  0.1296187E+03  0.7546771E-02  0.1241686E+00
         -3   -1    0    0    0  501 -0.00000000000E+00  0.00000000000E+00  0.85026040332E+02  0.85026040332E+02  0.00000000000E+00 0.  1.
         21   -1    0    0  501  502  0.00000000000E+00 -0.00000000000E+00 -0.58093264372E+03  0.58093264372E+03  0.00000000000E+00 0. -1.
         23    2    1    2    0    0 -0.16943348152E+02  0.26447622154E+02 -0.30183705194E+02  0.10251928711E+03  0.92804064600E+02 0.  0.
         23    2    1    2    0    0 -0.15594585401E+02  0.80401292524E+02 -0.42703423544E+03  0.44523525017E+03  0.95752967696E+02 0.  0.
        -13    1    3    3    0    0  0.12477316514E+02  0.54800588786E+02 -0.10537777557E+02  0.57182451106E+02  0.00000000000E+00 0.  1.
         13    1    3    3    0    0 -0.29420664666E+02 -0.28352966632E+02 -0.19645927637E+02  0.45336836005E+02  0.00000000000E+00 0. -1.
        -13    1    4    4    0    0  0.38811827177E+02  0.16847792648E+02 -0.14799579930E+03  0.15392518525E+03  0.00000000000E+00 0.  1.
         13    1    4    4    0    0 -0.54406412578E+02  0.63553499875E+02 -0.27903843615E+03  0.29131006492E+03  0.00000000000E+00 0. -1.
         -3    1    1    2    0  502  0.32537933553E+02 -0.10684891468E+03 -0.38688662750E+02  0.11820414677E+03  0.00000000000E+00 0.  1.
<scales pt_clust_5="13000.00000" pt_clust_6="13000.00000" pt_clust_7="13000.00000" pt_clust_8="13000.00000" pt_clust_9="87.36346"></scales>
<clustering>
<clus scale="   92.804">  5  6 -1 -1</clus>
<clus scale="   95.753">  7  8 -1 -1</clus>
<clus scale="   97.975">  1  5  2 -1</clus>
<clus scale="   87.363">  2  9  1 -1</clus>
<clus scale="   87.363">  2  5  1 -1</clus>
</clustering>
</event>
<event>
 9    1  0.1321469E-005  0.1288658E+03  0.7546771E-02  0.1229541E+00
         21   -1    0    0  501  502  0.00000000000E+00  0.00000000000E+00  0.22772819627E+03  0.22772819627E+03  0.00000000000E+00 0. -1.
         -1   -1    0    0    0  501 -0.00000000000E+00 -0.00000000000E+00 -0.13550795715E+03  0.13550795715E+03  0.00000000000E+00 0.  1.
         23    2    1    2    0    0 -0.96616475326E+02 -0.71694960000E+01  0.82490909271E+00  0.13004435058E+03  0.86745072865E+02 0.  0.
         23    2    1    2    0    0  0.85139784669E+02 -0.55661118877E+02  0.17968990830E+02  0.13587362425E+03  0.88271252670E+02 0.  0.
        -11    1    4    4    0    0  0.59017836436E+02 -0.47604995454E+02 -0.29284417316E+02  0.81282948441E+02  0.00000000000E+00 0. -1.
         11    1    4    4    0    0  0.26121948233E+02 -0.80561234233E+01  0.47253408146E+02  0.54590675811E+02  0.00000000000E+00 0.  1.
        -13    1    3    3    0    0 -0.19332005890E+01  0.25944630333E+02  0.12854088401E+02  0.29018764554E+02  0.00000000000E+00 0. -1.
         13    1    3    3    0    0 -0.94683274737E+02 -0.33114126333E+02 -0.12029179308E+02  0.10102558603E+03  0.00000000000E+00 0.  1.
         -1    1    1    2    0  502  0.11476690657E+02  0.62830614877E+02  0.73426339202E+02  0.97318178584E+02  0.00000000000E+00 0.  1.
<scales pt_clust_5="13000.00000" pt_clust_6="13000.00000" pt_clust_7="13000.00000" pt_clust_8="13000.00000" pt_clust_9="63.87019"></scales>
<clustering>
<clus scale="   63.870">  1  9  2 -1</clus>
<clus scale="   86.745">  7  8 -1 -1</clus>
<clus scale="   88.271">  5  6 -1 -1</clus>
<clus scale="  127.825">  2  7  1 -1</clus>
<clus scale="   63.870">  1  5  2 -1</clus>
</clustering>
</event>
<event>
 9    1  0.1321469E-005  0.1199887E+03  0.7546771E-02  0.1243540E+00
         21   -1    0    0  501  502  0.00000000000E+00  0.00000000000E+00  0.15630294995E+03  0.15630294995E+03  0.00000000000E+00 0.  1.
          3   -1    0    0  502    0 -0.00000000000E+00 -0.00000000000E+00 -0.11531507187E+03  0.11531507187E+03  0.00000000000E+00 0. -1.
         23    2    1    2    0    0 -0.24682750742E+02  0.66404399940E+02 -0.82096609862E+01  0.11458911311E+03  0.89691046343E+02 0.  0.
         23    2    1    2    0    0  0.38530541522E+02 -0.81420501687E+02  0.37321027666E+02  0.13340061753E+03  0.91043752819E+02 0.  0.
        -11    1    3    3    0    0  0.27870229357E+02  0.14075941549E+00  0.68141411295E+01  0.28691497294E+02  0.00000000000E+00 0.  1.
         11    1    3    3    0    0 -0.52552980099E+02  0.66263640524E+02 -0.15023802116E+02  0.85897615816E+02  0.00000000000E+00 0. -1.
        -13    1    4    4    0    0  0.61243909511E+02 -0.84591135977E+02  0.25074792572E+02  0.10740215063E+03  0.00000000000E+00 0.  1.
         13    1    4    4    0    0 -0.22713367989E+02  0.31706342899E+01  0.12246235094E+02  0.25998466901E+02  0.00000000000E+00 0. -1.
          3    1    1    2  501    0 -0.13847790780E+02  0.15016101747E+02  0.11876511394E+02  0.23628291179E+02  0.00000000000E+00 0. -1.
<scales pt_clust_5="13000.00000" pt_clust_6="13000.00000" pt_clust_7="13000.00000" pt_clust_8="13000.00000" pt_clust_9="20.42657"></scales>
<clustering>
<clus scale="   20.427">  1  9  2 -1</clus>
<clus scale="   89.691">  5  6 -1 -1</clus>
<clus scale="   91.044">  7  8 -1 -1</clus>
<clus scale="  118.966">  2  5  1 -1</clus>
<clus scale="   20.427">  1  5  2 -1</clus>
</clustering>
</event>
<event>
 9    1  0.2301284E-005  0.1849615E+03  0.7546771E-02  0.1181396E+00
         21   -1    0    0  501  502  0.00000000000E+00  0.00000000000E+00  0.71506578079E+03  0.71506578079E+03  0.00000000000E+00 0. -1.
          3   -1    0    0  502    0 -0.00000000000E+00 -0.00000000000E+00 -0.49733038470E+03  0.49733038470E+03  0.00000000000E+00 0. -1.
         23    2    1    2    0    0  0.10716594627E+02  0.87206557763E+02 -0.86182072749E+02  0.14926171027E+03  0.84450455130E+02 0.  0.
         23    2    1    2    0    0  0.96912234063E+02  0.35202402111E+02 -0.35693538784E+03  0.38247711383E+03  0.90855276567E+02 0.  0.
        -13    1    3    3    0    0 -0.20226112761E+02  0.23788850648E+01  0.49643353728E+01  0.20961854815E+02  0.00000000000E+00 0.  1.
         13    1    3    3    0    0  0.30942707388E+02  0.84827672698E+02 -0.91146408121E+02  0.12829985545E+03  0.00000000000E+00 0. -1.
        -13    1    4    4    0    0  0.87897580305E+02 -0.10859291527E+02 -0.26216775157E+03  0.27672339763E+03  0.00000000000E+00 0. -1.
         13    1    4    4    0    0  0.90146537579E+01  0.46061693638E+02 -0.94767636277E+02  0.10575371619E+03  0.00000000000E+00 0.  1.
          3    1    1    2  501    0 -0.10762882869E+03 -0.12240895987E+03  0.66085285668E+03  0.68065734140E+03  0.00000000000E+00 0. -1.
<scales pt_clust_5="13000.00000" pt_clust_6="13000.00000" pt_clust_7="13000.00000" pt_clust_8="13000.00000" pt_clust_9="161.10891"></scales>
<clustering>
<clus scale="   84.450">  5  6 -1 -1</clus>
<clus scale="   90.855">  7  8 -1 -1</clus>
<clus scale="  121.868">  2  5  1 -1</clus>
<clus scale="  161.109">  1  9  2 -1</clus>
<clus scale="  161.109">  1  5  2 -1</clus>
</clustering>
</event>
<event>
 9    1  0.1321469E-005  0.9383682E+02  0.7546771E-02  0.1297217E+00
         21   -1    0    0  501  502  0.00000000000E+00  0.00000000000E+00  0.11360560922E+03  0.11360560922E+03  0.00000000000E+00 0.  1.
          1   -1    0    0  502    0 -0.00000000000E+00 -0.00000000000E+00 -0.12516454809E+03  0.12516454809E+03  0.00000000000E+00 0. -1.
         23    2    1    2    0    0 -0.84445135585E+01 -0.15191126293E+02 -0.56110534575E+02  0.10339722995E+03  0.85091215428E+02 0.  0.
         23    2    1    2    0    0  0.35228740847E+02  0.22221155852E+02  0.33456307122E+02  0.10554137401E+03  0.91020949197E+02 0.  0.
        -11    1    3    3    0    0  0.24512811985E+02 -0.90704138799E+01  0.11018089115E+02  0.28364566753E+02  0.00000000000E+00 0.  1.
         11    1    3    3    0    0 -0.32957325543E+02 -0.61207124135E+01 -0.67128623690E+02  0.75032663194E+02  0.00000000000E+00 0. -1.
        -11    1    4    4    0    0  0.69995112214E+01  0.51331993104E+02  0.38683023460E+02  0.64655571897E+02  0.00000000000E+00 0. -1.
         11    1    4    4    0    0  0.28229229626E+02 -0.29110837252E+02 -0.52267163381E+01  0.40885802113E+02  0.00000000000E+00 0.  1.
          1    1    1    2  501    0 -0.26784227288E+02 -0.70300295581E+01  0.11095288586E+02  0.29831553359E+02  0.00000000000E+00 0. -1.
<scales pt_clust_5="13000.00000" pt_clust_6="13000.00000" pt_clust_7="13000.00000" pt_clust_8="13000.00000" pt_clust_9="27.69145"></scales>
<clustering>
<clus scale="   27.691">  1  9  2 -1</clus>
<clus scale="   85.091">  5  6 -1 -1</clus>
<clus scale="   88.097">  2  5  1 -1</clus>
<clus scale="   91.021">  7  8 -1 -1</clus>
<clus scale="   27.691">  1  5  2 -1</clus>
</clustering>
</event>
<event>
 9    1  0.1321469E-005  0.1124204E+03  0.7546771E-02  0.1256209E+00
         21   -1    0    0  501  502  0.00000000000E+00  0.00000000000E+00  0.71463916509E+02  0.71463916509E+02  0.00000000000E+00 0. -1.
          1   -1    0    0  502    0 -0.00000000000E+00 -0.00000000000E+00 -0.72335403305E+03  0.72335403305E+03  0.00000000000E+00 0. -1.
         23    2    1    2    0    0 -0.69664831153E+02  0.89570564457E+01 -0.44448667438E+03  0.45904076084E+03  0.90645456870E+02 0.  0.
         23    2    1    2    0    0  0.61422619917E+02  0.18838718049E+02 -0.25609563871E+03  0.27910736313E+03  0.90489272585E+02 0.  0.
        -11    1    4    4    0    0  0.40115165902E+02  0.51912112521E+02 -0.20078612510E+03  0.21123248329E+03  0.00000000000E+00 0. -1.
         11    1    4    4    0    0  0.21307454015E+02 -0.33073394472E+02 -0.55309513606E+02  0.67874879844E+02  0.00000000000E+00 0.  1.
        -11    1    3    3    0    0  0.12369979001E+02  0.16326642901E+02 -0.29219374501E+02  0.35683994944E+02  0.00000000000E+00 0.  1.
         11    1    3    3    0    0 -0.82034810154E+02 -0.73695864553E+01 -0.41526729988E+03  0.42335676590E+03  0.00000000000E+00 0. -1.
          1    1    1    2  501    0  0.82422112359E+01 -0.27795774495E+02  0.48692196556E+02  0.56669825580E+02  0.00000000000E+00 0. -1.
<scales pt_clust_5="13000.00000" pt_clust_6="13000.00000" pt_clust_7="13000.00000" pt_clust_8="13000.00000" pt_clust_9="28.99205"></scales>
<clustering>
<clus scale="   28.992">  1  9  2 -1</clus>
<clus scale="   90.489">  5  6 -1 -1</clus>
<clus scale="   90.645">  7  8 -1 -1</clus>
<clus scale="  112.295">  1  5  2 -1</clus>
<clus scale="   28.992">  1  5  2 -1</clus>
</clustering>
</event>
<event>
 9    1  0.1321469E-005  0.9201110E+02  0.7546771E-02  0.1310407E+00
          1   -1    0    0  502    0 -0.00000000000E+00  0.00000000000E+00  0.13083437574E+03  0.13083437574E+03  0.00000000000E+00 0. -1.
         21   -1    0    0  501  502  0.00000000000E+00 -0.00000000000E+00 -0.11619384533E+03  0.11619384533E+03  0.00000000000E+00 0. -1.
         23    2    1    2    0    0  0.67626537158E+01 -0.26970354821E+02  0.53223448795E+02  0.10923385836E+03  0.91247831684E+02 0.  0.
         23    2    1    2    0    0  0.42949958923E+00 -0.49002081004E+01  0.15859310062E+02  0.74300929274E+02  0.72421777567E+02 0.  0.
        -13    1    3    3    0    0 -0.60506840014E+01  0.19466737981E+02 -0.15288492255E+02  0.25481417935E+02  0.00000000000E+00 0.  1.
         13    1    3    3    0    0  0.12813337717E+02 -0.46437092803E+02  0.68511941050E+02  0.83752440429E+02  0.00000000000E+00 0. -1.
        -13    1    4    4    0    0  0.58828612456E+01  0.27414680054E+02 -0.12746916796E+02  0.30800269913E+02  0.00000000000E+00 0.  1.
         13    1    4    4    0    0 -0.54533616564E+01 -0.32314888155E+02  0.28606226858E+02  0.43500659361E+02  0.00000000000E+00 0. -1.
          1    1    1    2  501    0 -0.71921533051E+01  0.31870562922E+02 -0.54442228448E+02  0.63493433428E+02  0.00000000000E+00 0. -1.
<scales pt_clust_5="13000.00000" pt_clust_6="13000.00000" pt_clust_7="13000.00000" pt_clust_8="13000.00000" pt_clust_9="32.67200"></scales>
<clustering>
<clus scale="   32.672">  2  9  1 -1</clus>
<clus scale="   72.422">  7  8 -1 -1</clus>
<clus scale="   73.381">  2  7  1 -1</clus>
<clus scale="   91.248">  5  6 -1 -1</clus>
<clus scale="   32.672">  2  5  1 -1</clus>
</clustering>
</event>
<event>
 9    1  0.1321469E-005  0.1146367E+03  0.7546771E-02  0.1253734E+00
         21   -1    0    0  501  502  0.00000000000E+00  0.00000000000E+00  0.10577572427E+03  0.10577572427E+03  0.00000000000E+00 0.  1.
          1   -1    0    0  502    0 -0.00000000000E+00 -0.00000000000E+00 -0.41929364379E+03  0.41929364379E+03  0.00000000000E+00 0. -1.
         23    2    1    2    0    0  0.59216054031E+02  0.21204445701E+02 -0.34451796779E+03  0.36298937587E+03  0.95459348912E+02 0.  0.
         23    2    1    2    0    0 -0.75068011357E+02  0.80468728781E+01  0.43931822278E+02  0.12638468482E+03  0.91340708644E+02 0.  0.
        -11    1    3    3    0    0  0.82372236879E+02  0.10399800409E+02 -0.20542802799E+03  0.22157169481E+03  0.00000000000E+00 0. -1.
         11    1    3    3    0    0 -0.23156182849E+02  0.10804645291E+02 -0.13908993980E+03  0.14141768106E+03  0.00000000000E+00 0.  1.
        -13    1    4    4    0    0 -0.41081737365E+02 -0.12212952937E+02 -0.22994283952E+02  0.48637459420E+02  0.00000000000E+00 0. -1.
         13    1    4    4    0    0 -0.33986273992E+02  0.20259825815E+02  0.66926106230E+02  0.77747225398E+02  0.00000000000E+00 0.  1.
          1    1    1    2  501    0  0.15851957326E+02 -0.29251318579E+02 -0.12931774009E+02  0.35695307376E+02  0.00000000000E+00 0. -1.
<scales pt_clust_5="13000.00000" pt_clust_6="13000.00000" pt_clust_7="13000.00000" pt_clust_8="13000.00000" pt_clust_9="33.27047"></scales>
<clustering>
<clus scale="   33.270">  1  9  2 -1</clus>
<clus scale="   91.341">  7  8 -1 -1</clus>
<clus scale="   95.459">  5  6 -1 -1</clus>
<clus scale="  111.230">  1  7  2 -1</clus>
<clus scale="   33.270">  1  5  2 -1</clus>
</clustering>
</event>
<event>
 9    1  0.1321469E-005  0.1068190E+03  0.7546771E-02  0.1267833E+00
         21   -1    0    0  501  502  0.00000000000E+00  0.00000000000E+00  0.12221921210E+03  0.12221921210E+03  0.00000000000E+00 0.  1.
          3   -1    0    0  502    0 -0.00000000000E+00 -0.00000000000E+00 -0.14878144885E+03  0.14878144885E+03  0.00000000000E+00 0. -1.
         23    2    1    2    0    0  0.11462329644E+02  0.40114391388E+02 -0.26029028085E+02  0.10470734902E+03  0.92442248129E+02 0.  0.
         23    2    1    2    0    0  0.14167795264E+02 -0.68275934614E+02 -0.30938131193E+02  0.11756513595E+03  0.89454254003E+02 0.  0.
        -11    1    3    3    0    0 -0.17672453130E+01 -0.26232324211E+02  0.99144167787E+01  0.28098997305E+02  0.00000000000E+00 0.  1.
         11    1    3    3    0    0  0.13229574957E+02  0.66346715599E+02 -0.35943444863E+02  0.76608351718E+02  0.00000000000E+00 0. -1.
        -13    1    4    4    0    0 -0.34055879076E+00 -0.82850433506E+02 -0.43388962197E+02  0.93524929045E+02  0.00000000000E+00 0.  1.
         13    1    4    4    0    0  0.14508354055E+02  0.14574498892E+02  0.12450831004E+02  0.24040206905E+02  0.00000000000E+00 0. -1.
          3    1    1    2  501    0 -0.25630124909E+02  0.28161543226E+02  0.30404922532E+02  0.48728175975E+02  0.00000000000E+00 0. -1.
<scales pt_clust_5="13000.00000" pt_clust_6="13000.00000" pt_clust_7="13000.00000" pt_clust_8="13000.00000" pt_clust_9="38.07855"></scales>
<clustering>
<clus scale="   38.079">  1  9  2 -1</clus>
<clus scale="   89.454">  7  8 -1 -1</clus>
<clus scale="   92.442">  5  6 -1 -1</clus>
<clus scale="  104.244">  1  7  2 -1</clus>
<clus scale="   38.079">  1  5  2 -1</clus>
</clustering>
</event>
<event>
 9    1  0.1321469E-005  0.1088508E+03  0.7546771E-02  0.1263067E+00
         -2   -1    0    0    0  501 -0.00000000000E+00  0.00000000000E+00  0.44063371401E+03  0.44063371401E+03  0.00000000000E+00 0.  1.
         21   -1    0    0  501  502  0.00000000000E+00 -0.00000000000E+00 -0.78992100983E+02  0.78992100983E+02  0.00000000000E+00 0.  1.
         23    2    1    2    0    0 -0.24696753874E+02 -0.27074869412E+02  0.18476752905E+03  0.20951345529E+03  0.91727149472E+02 0.  0.
         23    2    1    2    0    0  0.86696161327E+02  0.33740786981E+02  0.20361726453E+03  0.24226282995E+03  0.92610060270E+02 0.  0.
        -11    1    4    4    0    0  0.62665173588E+02  0.59403477556E+02  0.18077045338E+03  0.20033385620E+03  0.00000000000E+00 0.  1.
         11    1    4    4    0    0  0.24030987739E+02 -0.25662690575E+02  0.22846811155E+02  0.41928973744E+02  0.00000000000E+00 0. -1.
        -13    1    3    3    0    0 -0.53404122069E+02 -0.18017612921E+02  0.16270895789E+03  0.17219419156E+03  0.00000000000E+00 0. -1.
         13    1    3    3    0    0  0.28707368195E+02 -0.90572564909E+01  0.22058571167E+02  0.37319263735E+02  0.00000000000E+00 0.  1.
         -2    1    1    2    0  502 -0.61999407454E+02 -0.66659175688E+01 -0.26743180558E+02  0.67849529755E+02  0.00000000000E+00 0.  1.
<scales pt_clust_5="13000.00000" pt_clust_6="13000.00000" pt_clust_7="13000.00000" pt_clust_8="13000.00000" pt_clust_9="62.35672"></scales>
<clustering>
<clus scale="   62.357">  2  9  1 -1</clus>
<clus scale="   91.727">  7  8 -1 -1</clus>
<clus scale="   92.610">  5  6 -1 -1</clus>
<clus scale="  108.101">  1  7  2 -1</clus>
<clus scale="   62.357">  2  5  1 -1</clus>
</clustering>
</event>
<event>
 9    1  0.1321469E-005  0.9369946E+02  0.7546771E-02  0.1294365E+00
         21   -1    0    0  501  502  0.00000000000E+00  0.00000000000E+00  0.50066847472E+03  0.50066847472E+03  0.00000000000E+00 0. -1.
          3   -1    0    0  502    0 -0.00000000000E+00 -0.00000000000E+00 -0.66094300679E+02  0.66094300679E+02  0.00000000000E+00 0. -1.
         23    2    1    2    0    0 -0.24332781808E+02 -0.52287365348E+01  0.24080430860E+02  0.97413432511E+02  0.91049907890E+02 0.  0.
         23    2    1    2    0    0  0.28636914428E+01 -0.47904126914E+02  0.70238370058E+02  0.12430189404E+03  0.90634023019E+02 0.  0.
        -11    1    4    4    0    0  0.12242716462E+02  0.25589479807E+02  0.17044943302E+02  0.33094345066E+02  0.00000000000E+00 0.  1.
         11    1    4    4    0    0 -0.93790250189E+01 -0.73493606721E+02  0.53193426756E+02  0.91207548971E+02  0.00000000000E+00 0. -1.
        -11    1    3    3    0    0 -0.54836738932E+02  0.15893788402E+02  0.11539887022E+02  0.58248171121E+02  0.00000000000E+00 0. -1.
         11    1    3    3    0    0  0.30503957124E+02 -0.21122524937E+02  0.12540543838E+02  0.39165261389E+02  0.00000000000E+00 0.  1.
          3    1    1    2  501    0  0.21469090365E+02  0.53132863449E+02  0.34025537312E+03  0.34504744885E+03  0.00000000000E+00 0. -1.
<scales pt_clust_5="13000.00000" pt_clust_6="13000.00000" pt_clust_7="13000.00000" pt_clust_8="13000.00000" pt_clust_9="57.30640"></scales>
<clustering>
<clus scale="   57.306">  1  9  2 -1</clus>
<clus scale="   90.634">  5  6 -1 -1</clus>
<clus scale="   91.050">  7  8 -1 -1</clus>
<clus scale="   93.295">  1  5  2 -1</clus>
<clus scale="   57.306">  1  5  2 -1</clus>
</clustering>
</event>
<event>
 9    1  0.1321469E-005  0.1003061E+03  0.7546771E-02  0.1283676E+00
         -1   -1    0    0    0  501 -0.00000000000E+00  0.00000000000E+00  0.93668208217E+02  0.93668208217E+02  0.00000000000E+00 0.  1.
         21   -1    0    0  501  502  0.00000000000E+00 -0.00000000000E+00 -0.16942423035E+03  0.16942423035E+03  0.00000000000E+00 0. -1.
         23    2    1    2    0    0 -0.23472580562E+02 -0.71251520445E+01  0.30959064380E+02  0.99224963511E+02  0.91024171991E+02 0.  0.
         23    2    1    2    0    0  0.28162017028E+00  0.59929125070E+01 -0.72354807126E+02  0.12239783062E+03  0.98539416051E+02 0.  0.
        -11    1    3    3    0    0  0.14813472235E+02  0.19358911747E+02 -0.19023312365E+02  0.30920750913E+02  0.00000000000E+00 0. -1.
         11    1    3    3    0    0 -0.38286052798E+02 -0.26484063791E+02  0.49982376744E+02  0.68304212599E+02  0.00000000000E+00 0.  1.
        -13    1    4    4    0    0 -0.12031093341E+02 -0.41752098446E+02 -0.13249297243E+02  0.45426080714E+02  0.00000000000E+00 0.  1.
         13    1    4    4    0    0  0.12312713511E+02  0.47745010953E+02 -0.59105509883E+02  0.76971749905E+02  0.00000000000E+00 0. -1.
         -1    1    1    2    0  502  0.23190960392E+02  0.11322395374E+01 -0.34360279386E+02  0.41469644438E+02  0.00000000000E+00 0.  1.
<scales pt_clust_5="13000.00000" pt_clust_6="13000.00000" pt_clust_7="13000.00000" pt_clust_8="13000.00000" pt_clust_9="23.21858"></scales>
<clustering>
<clus scale="   23.219">  2  9  1 -1</clus>
<clus scale="   91.024">  5  6 -1 -1</clus>
<clus scale="   92.934">  1  5  2 -1</clus>
<clus scale="   98.539">  7  8 -1 -1</clus>
<clus scale="   23.219">  2  5  1 -1</clus>
</clustering>
</event>
<event>
 9    1  0.1321469E-005  0.2066631E+03  0.7546771E-02  0.1144442E+00
         -2   -1    0    0    0  501 -0.00000000000E+00  0.00000000000E+00  0.59591704361E+02  0.59591704361E+02  0.00000000000E+00 0.  1.
         21   -1    0    0  501  502  0.00000000000E+00 -0.00000000000E+00 -0.13805310470E+04  0.13805310470E+04  0.00000000000E+00 0.  1.
         23    2    1    2    0    0 -0.40025104528E+02  0.21266658216E+03 -0.35304815740E+03  0.42455818613E+03  0.93688674926E+02 0.  0.
         23    2    1    2    0    0  0.83429696016E+02 -0.13304426600E+03 -0.38581963605E+03  0.42647122783E+03  0.91430988797E+02 0.  0.
        -11    1    3    3    0    0 -0.26675653724E+02  0.43037695174E+01 -0.40410682794E+02  0.48612099497E+02  0.00000000000E+00 0. -1.
         11    1    3    3    0    0 -0.13349450804E+02  0.20836281264E+03 -0.31263747461E+03  0.37594608663E+03  0.00000000000E+00 0.  1.
        -13    1    4    4    0    0  0.93233917549E+02 -0.95895684642E+02 -0.23072070620E+03  0.26668443896E+03  0.00000000000E+00 0.  1.
         13    1    4    4    0    0 -0.98042215332E+01 -0.37148581361E+02 -0.15509892984E+03  0.15978678886E+03  0.00000000000E+00 0. -1.
         -2    1    1    2    0  502 -0.43404591488E+02 -0.79622316155E+02 -0.58207154922E+03  0.58909333743E+03  0.00000000000E+00 0.  1.
<scales pt_clust_5="13000.00000" pt_clust_6="13000.00000" pt_clust_7="13000.00000" pt_clust_8="13000.00000" pt_clust_9="90.68446"></scales>
<clustering>
<clus scale="   90.684">  2  9  1 -1</clus>
<clus scale="   91.431">  7  8 -1 -1</clus>
<clus scale="   93.689">  5  6 -1 -1</clus>
<clus scale="  205.649">  2  7  1 -1</clus>
<clus scale="   90.684">  2  5  1 -1</clus>
</clustering>
</event>
<event>
 9    1  0.1321469E-005  0.9990177E+02  0.7546771E-02  0.1283987E+00
         21   -1    0    0  501  502  0.00000000000E+00  0.00000000000E+00  0.12110762580E+03  0.12110762580E+03  0.00000000000E+00 0.  1.
          2   -1    0    0  502    0 -0.00000000000E+00 -0.00000000000E+00 -0.21691806762E+03  0.21691806762E+03  0.00000000000E+00 0. -1.
         23    2    1    2    0    0 -0.19228621148E+02  0.66484636411E+00 -0.11629581175E+03  0.14829840976E+03  0.89986224587E+02 0.  0.
         23    2    1    2    0    0  0.32527976217E+02  0.64558741960E+02  0.21383627059E+01  0.12067945970E+03  0.96607758481E+02 0.  0.
        -11    1    3    3    0    0 -0.86320752682E+01  0.43788995725E+02 -0.77007034470E+02  0.89006023549E+02  0.00000000000E+00 0.  1.
         11    1    3    3    0    0 -0.10596545880E+02 -0.43124149361E+02 -0.39288777280E+02  0.59292386213E+02  0.00000000000E+00 0. -1.
        -13    1    4    4    0    0 -0.25148043110E+02  0.40414905069E+02 -0.23519881688E+02  0.53094005863E+02  0.00000000000E+00 0. -1.
         13    1    4    4    0    0  0.57676019327E+02  0.24143836891E+02  0.25658244394E+02  0.67585453839E+02  0.00000000000E+00 0.  1.
          2    1    1    2  501    0 -0.13299355069E+02 -0.65223588324E+02  0.18347007229E+02  0.69047823958E+02  0.00000000000E+00 0. -1.
<scales pt_clust_5="13000.00000" pt_clust_6="13000.00000" pt_clust_7="13000.00000" pt_clust_8="13000.00000" pt_clust_9="66.56568"></scales>
<clustering>
<clus scale="   66.566">  1  9  2 -1</clus>
<clus scale="   89.986">  5  6 -1 -1</clus>
<clus scale="   93.514">  2  5  1 -1</clus>
<clus scale="   96.608">  7  8 -1 -1</clus>
<clus scale="   66.566">  1  5  2 -1</clus>
</clustering>
</event>
<event>
 9    1  0.1441732E-005  0.1087222E+03  0.7546771E-02  0.1264917E+00
         21   -1    0    0  501  502  0.00000000000E+00  0.00000000000E+00  0.27651574099E+03  0.27651574099E+03  0.00000000000E+00 0. -1.
          4   -1    0    0  502    0 -0.00000000000E+00 -0.00000000000E+00 -0.23329764769E+03  0.23329764769E+03  0.00000000000E+00 0. -1.
         23    2    1    2    0    0 -0.14558519822E+02  0.29232089795E+02 -0.60273191178E+02  0.11425626494E+03  0.91406624104E+02 0.  0.
         23    2    1    2    0    0  0.74847679922E+02 -0.47547094252E+02 -0.11447080496E+03  0.16867015927E+03  0.86505237295E+02 0.  0.
        -13    1    4    4    0    0  0.68127745250E+02 -0.69879093608E+02 -0.10540789147E+03  0.14364992510E+03  0.00000000000E+00 0. -1.
         13    1    4    4    0    0  0.67199346717E+01  0.22331999356E+02 -0.90629134894E+01  0.25020234175E+02  0.00000000000E+00 0.  1.
        -13    1    3    3    0    0 -0.32601933207E+02  0.19481271619E+02  0.11442644855E+02  0.39665351555E+02  0.00000000000E+00 0.  1.
         13    1    3    3    0    0  0.18043413385E+02  0.97508181755E+01 -0.71715836033E+02  0.74590913385E+02  0.00000000000E+00 0. -1.
          4    1    1    2  501    0 -0.60289160101E+02  0.18315004457E+02  0.21796208944E+03  0.22688696447E+03  0.00000000000E+00 0. -1.
<scales pt_clust_5="13000.00000" pt_clust_6="13000.00000" pt_clust_7="13000.00000" pt_clust_8="13000.00000" pt_clust_9="63.00970"></scales>
<clustering>
<clus scale="   63.010">  1  9  2 -1</clus>
<clus scale="   86.505">  5  6 -1 -1</clus>
<clus scale="   91.407">  7  8 -1 -1</clus>
<clus scale="  104.635">  1  5  2 -1</clus>
<clus scale="   63.010">  1  5  2 -1</clus>
</clustering>
</event>
<event>
 9    1  0.1321469E-005  0.1048119E+03  0.7546771E-02  0.1278320E+00
         21   -1    0    0  501  502  0.00000000000E+00  0.00000000000E+00  0.20572482672E+03  0.20572482672E+03  0.00000000000E+00 0.  1.
          1   -1    0    0  502    0 -0.00000000000E+00 -0.00000000000E+00 -0.19281728946E+03  0.19281728946E+03  0.00000000000E+00 0. -1.
         23    2    1    2    0    0 -0.41624181348E+01 -0.14450969118E+02 -0.11336947194E+03  0.15503574235E+03  0.10467706533E+03 0.  0.
         23    2    1    2    0    0 -0.30043333168E+02 -0.47081843739E+02  0.84873955653E+01  0.10628132670E+03  0.90024344732E+02 0.  0.
        -11    1    4    4    0    0  0.76975670402E+01 -0.43214625943E+02  0.38123844070E+02  0.58139349157E+02  0.00000000000E+00 0.  1.
         11    1    4    4    0    0 -0.37740900208E+02 -0.38672177961E+01 -0.29636448505E+02  0.48141977545E+02  0.00000000000E+00 0. -1.
        -13    1    3    3    0    0 -0.40206720003E+02 -0.40111544441E+02 -0.40389478078E+02  0.69690933917E+02  0.00000000000E+00 0. -1.
         13    1    3    3    0    0  0.36044301868E+02  0.25660575323E+02 -0.72979993860E+02  0.85344808436E+02  0.00000000000E+00 0.  1.
          1    1    1    2  501    0  0.34205751303E+02  0.61532812858E+02  0.11778961363E+03  0.13722504713E+03  0.00000000000E+00 0. -1.
<scales pt_clust_5="13000.00000" pt_clust_6="13000.00000" pt_clust_7="13000.00000" pt_clust_8="13000.00000" pt_clust_9="70.40114"></scales>
<clustering>
<clus scale="   70.401">  1  9  2 -1</clus>
<clus scale="   90.024">  5  6 -1 -1</clus>
<clus scale="   90.181">  1  5  2 -1</clus>
<clus scale="  104.677">  7  8 -1 -1</clus>
<clus scale="   70.401">  1  5  2 -1</clus>
</clustering>
</event>
<event>
 9    1  0.1321469E-005  0.1582958E+03  0.7546771E-02  0.1190851E+00
          1   -1    0    0  502    0 -0.00000000000E+00  0.00000000000E+00  0.85633022298E+03  0.85633022298E+03  0.00000000000E+00 0. -1.
         21   -1    0    0  501  502  0.00000000000E+00 -0.00000000000E+00 -0.11232188070E+03  0.11232188070E+03  0.00000000000E+00 0.  1.
         23    2    1    2    0    0 -0.10670025611E+03  0.11836445381E+03  0.55834211776E+03  0.58778159505E+03  0.91357508864E+02 0.  0.
         23    2    1    2    0    0  0.62209004839E+02 -0.70864865206E+02  0.25409955882E+03  0.28643109101E+03  0.92652008632E+02 0.  0.
        -13    1    3    3    0    0 -0.11533870698E+03  0.71113763672E+02  0.40139712970E+03  0.42365061129E+03  0.00000000000E+00 0.  1.
         13    1    3    3    0    0  0.86384508675E+01  0.47250690140E+02  0.15694498806E+03  0.16413098376E+03  0.00000000000E+00 0. -1.
        -13    1    4    4    0    0  0.51949583614E+02  0.80926822467E+01  0.10089817325E+03  0.11377474285E+03  0.00000000000E+00 0. -1.
         13    1    4    4    0    0  0.10259421225E+02 -0.78957547453E+02  0.15320138557E+03  0.17265634817E+03  0.00000000000E+00 0.  1.
          1    1    1    2  501    0  0.44491251269E+02 -0.47499588606E+02 -0.68433334297E+02  0.94439417619E+02  0.00000000000E+00 0. -1.
<scales pt_clust_5="13000.00000" pt_clust_6="13000.00000" pt_clust_7="13000.00000" pt_clust_8="13000.00000" pt_clust_9="65.08212"></scales>
<clustering>
<clus scale="   65.082">  2  9  1 -1</clus>
<clus scale="   91.358">  5  6 -1 -1</clus>
<clus scale="   92.652">  7  8 -1 -1</clus>
<clus scale="  157.542">  1  5  2 -1</clus>
<clus scale="   65.082">  2  5  1 -1</clus>
</clustering>
</event>
<event>
 9    1  0.1321469E-005  0.1193755E+03  0.7546771E-02  0.1248229E+00
         21   -1    0    0  501  502  0.00000000000E+00  0.00000000000E+00  0.26208764769E+03  0.26208764769E+03  0.00000000000E+00 0.  1.
         -1   -1    0    0    0  501 -0.00000000000E+00 -0.00000000000E+00 -0.16465618782E+03  0.16465618782E+03  0.00000000000E+00 0.  1.
         23    2    1    2    0    0 -0.19943929407E+02 -0.14014971059E+02 -0.87515121804E+01  0.94624098542E+02  0.91010720937E+02 0.  0.
         23    2    1    2    0    0  0.89947484158E+02  0.62269092786E+02 -0.46999459568E+02  0.15692323216E+03  0.10221527170E+03 0.  0.
        -11    1    3    3    0    0 -0.40190336857E+02 -0.40327579181E+02 -0.18763241208E+02  0.59946943541E+02  0.00000000000E+00 0.  1.
         11    1    3    3    0    0  0.20246407450E+02  0.26312608122E+02  0.10011729028E+02  0.34677155001E+02  0.00000000000E+00 0. -1.
        -13    1    4    4    0    0  0.96032257928E+02  0.41163231621E+02 -0.69493902811E+02  0.12548310136E+03  0.00000000000E+00 0.  1.
         13    1    4    4    0    0 -0.60847737702E+01  0.21105861165E+02  0.22494443243E+02  0.31440130791E+02  0.00000000000E+00 0. -1.
         -1    1    1    2    0  502 -0.70003554751E+02 -0.48254121727E+02  0.15318243162E+03  0.17519650481E+03  0.00000000000E+00 0.  1.
<scales pt_clust_5="13000.00000" pt_clust_6="13000.00000" pt_clust_7="13000.00000" pt_clust_8="13000.00000" pt_clust_9="85.02328"></scales>
<clustering>
<clus scale="   85.023">  1  9  2 -1</clus>
<clus scale="   91.011">  5  6 -1 -1</clus>
<clus scale="  102.215">  7  8 -1 -1</clus>
<clus scale="  109.934">  2  5  1 -1</clus>
<clus scale="   85.023">  1  5  2 -1</clus>
</clustering>
</event>
<event>
 9    1  0.1321469E-005  0.1274259E+03  0.7546771E-02  0.1231964E+00
         21   -1    0    0  501  502  0.00000000000E+00  0.00000000000E+00  0.55806845182E+02  0.55806845182E+02  0.00000000000E+00 0.  1.
          1   -1    0    0  502    0 -0.00000000000E+00 -0.00000000000E+00 -0.44651448686E+03  0.44651448686E+03  0.00000000000E+00 0. -1.
         23    2    1    2    0    0 -0.35221569652E+02 -0.92500757244E+02 -0.29707371620E+03  0.32678975655E+03  0.93497609987E+02 0.  0.
         23    2    1    2    0    0  0.26669107657E+02  0.54790941605E+02 -0.66296083590E+02  0.12817619142E+03  0.91217743675E+02 0.  0.
        -13    1    3    3    0    0 -0.19085346077E+02 -0.10514676105E+03 -0.19201590929E+03  0.21975031562E+03  0.00000000000E+00 0.  1.
         13    1    3    3    0    0 -0.16136223575E+02  0.12646003805E+02 -0.10505780690E+03  0.10703944093E+03  0.00000000000E+00 0. -1.
        -13    1    4    4    0    0  0.47373711758E+02 -0.26437928951E+01 -0.19704023807E+02  0.51376130263E+02  0.00000000000E+00 0.  1.
         13    1    4    4    0    0 -0.20704604102E+02  0.57434734500E+02 -0.46592059783E+02  0.76800061152E+02  0.00000000000E+00 0. -1.
          1    1    1    2  501    0  0.85524619954E+01  0.37709815638E+02 -0.27337841895E+02  0.47355384078E+02  0.00000000000E+00 0. -1.
<scales pt_clust_5="13000.00000" pt_clust_6="13000.00000" pt_clust_7="13000.00000" pt_clust_8="13000.00000" pt_clust_9="38.66749"></scales>
<clustering>
<clus scale="   38.667">  1  9  2 -1</clus>
<clus scale="   91.218">  7  8 -1 -1</clus>
<clus scale="   93.498">  5  6 -1 -1</clus>
<clus scale="  125.763">  1  7  2 -1</clus>
<clus scale="   38.667">  1  5  2 -1</clus>
</clustering>
</event>
<event>
 9    1  0.1321469E-005  0.1778144E+03  0.7546771E-02  0.1170350E+00
          2   -1    0    0  502    0 -0.00000000000E+00  0.00000000000E+00  0.87881661073E+03  0.87881661073E+03  0.00000000000E+00 0. -1.
         21   -1    0    0  501  502  0.00000000000E+00 -0.00000000000E+00 -0.18843954900E+03  0.18843954900E+03  0.00000000000E+00 0. -1.
         23    2    1    2    0    0 -0.15530704264E+03  0.85929069885E+01  0.58131385542E+03  0.60892824909E+03  0.93132692908E+02 0.  0.
         23    2    1    2    0    0  0.14228003296E+03 -0.26357521580E+02  0.25723695542E+03  0.30852555939E+03  0.89882383383E+02 0.  0.
        -11    1    3    3    0    0 -0.46122695885E+02 -0.26479905534E+02  0.91179173501E+02  0.10555628903E+03  0.00000000000E+00 0.  1.
         11    1    3    3    0    0 -0.10918434676E+03  0.35072812522E+02  0.49013468192E+03  0.50337196006E+03  0.00000000000E+00 0. -1.
        -11    1    4    4    0    0 -0.49550379492E+01 -0.19826505465E+02  0.51848646160E+02  0.55730824762E+02  0.00000000000E+00 0. -1.
         11    1    4    4    0    0  0.14723507091E+03 -0.65310161146E+01  0.20538830926E+03  0.25279473463E+03  0.00000000000E+00 0.  1.
          2    1    1    2  501    0  0.13027009686E+02  0.17764614591E+02 -0.14817374911E+03  0.14980235124E+03  0.00000000000E+00 0. -1.
<scales pt_clust_5="13000.00000" pt_clust_6="13000.00000" pt_clust_7="13000.00000" pt_clust_8="13000.00000" pt_clust_9="22.02917"></scales>
<clustering>
<clus scale="   22.029">  2  9  1 -1</clus>
<clus scale="   89.882">  7  8 -1 -1</clus>
<clus scale="   93.133">  5  6 -1 -1</clus>
<clus scale="  176.134">  2  7  1 -1</clus>
<clus scale="   22.029">  2  5  1 -1</clus>
</clustering>
</event>
<event>
 9    1  0.1321469E-005  0.1348806E+03  0.7546771E-02  0.1220776E+00
          1   -1    0    0  502    0 -0.00000000000E+00  0.00000000000E+00  0.73876230326E+03  0.73876230326E+03  0.00000000000E+00 0. -1.
         21   -1    0    0  501  502  0.00000000000E+00 -0.00000000000E+00 -0.33846810525E+02  0.33846810525E+02  0.00000000000E+00 0.  1.
         23    2    1    2    0    0  0.70908788071E+02  0.58532777962E+02  0.44360971424E+03  0.46244997469E+03  0.92823801904E+02 0.  0.
         23    2    1    2    0    0 -0.93122264070E+02 -0.52043937738E+02  0.23762832082E+03  0.27705074793E+03  0.94390521528E+02 0.  0.
        -11    1    3    3    0    0  0.71999242503E+02  0.11854299369E+02  0.35360323364E+03  0.36105354475E+03  0.00000000000E+00 0. -1.
         11    1    3    3    0    0 -0.10904544316E+01  0.46678478593E+02  0.90006480596E+02  0.10139642994E+03  0.00000000000E+00 0.  1.
        -13    1    4    4    0    0 -0.36005416336E+02  0.24984613809E+02  0.51119920132E+02  0.67333997111E+02  0.00000000000E+00 0. -1.
         13    1    4    4    0    0 -0.57116847734E+02 -0.77028551547E+02  0.18650840068E+03  0.20971675082E+03  0.00000000000E+00 0.  1.
          1    1    1    2  501    0  0.22213475999E+02 -0.64888402242E+01  0.23677457674E+02  0.33108391161E+02  0.00000000000E+00 0. -1.
<scales pt_clust_5="13000.00000" pt_clust_6="13000.00000" pt_clust_7="13000.00000" pt_clust_8="13000.00000" pt_clust_9="23.14181"></scales>
<clustering>
<clus scale="   23.142">  2  9  1 -1</clus>
<clus scale="   92.824">  5  6 -1 -1</clus>
<clus scale="   94.391">  7  8 -1 -1</clus>
<clus scale="  133.789">  1  5  2 -1</clus>
<clus scale="   23.142">  2  5  1 -1</clus>
</clustering>
</event>
<event>
 9    1  0.1321469E-005  0.1088858E+03  0.7546771E-02  0.1268989E+00
          1   -1    0    0  502    0 -0.00000000000E+00  0.00000000000E+00  0.46625299385E+03  0.46625299385E+03  0.00000000000E+00 0. -1.
         21   -1    0    0  501  502  0.00000000000E+00 -0.00000000000E+00 -0.45703645788E+02  0.45703645788E+02  0.00000000000E+00 0.  1.
         23    2    1    2    0    0  0.23434256162E+02  0.27833894997E+02  0.23090009149E+03  0.24991051867E+03  0.88411113652E+02 0.  0.
         23    2    1    2    0    0 -0.93216164015E+01 -0.47673851694E+02  0.55859418142E+02  0.12605894750E+03  0.10203379333E+03 0.  0.
        -11    1    4    4    0    0  0.15111485588E+02 -0.64152162364E+02  0.35309287657E+01  0.66002457459E+02  0.00000000000E+00 0.  1.
         11    1    4    4    0    0 -0.24433101989E+02  0.16478310670E+02  0.52328489377E+02  0.60056490039E+02  0.00000000000E+00 0. -1.
        -13    1    3    3    0    0  0.34943610860E+02  0.45678893478E+02  0.21709293717E+03  0.22458174596E+03  0.00000000000E+00 0. -1.
         13    1    3    3    0    0 -0.11509354698E+02 -0.17844998481E+02  0.13807154320E+02  0.25328772705E+02  0.00000000000E+00 0.  1.
          1    1    1    2  501    0 -0.14112639760E+02  0.19839956697E+02  0.13378983843E+03  0.13598717347E+03  0.00000000000E+00 0. -1.
<scales pt_clust_5="13000.00000" pt_clust_6="13000.00000" pt_clust_7="13000.00000" pt_clust_8="13000.00000" pt_clust_9="24.34730"></scales>
<clustering>
<clus scale="   24.347">  2  9  1 -1</clus>
<clus scale="   88.411">  7  8 -1 -1</clus>
<clus scale="   96.238">  1  7  2 -1</clus>
<clus scale="  102.034">  5  6 -1 -1</clus>
<clus scale="   24.347">  2  5  1 -1</clus>
</clustering>
</event>
<event>
 9    1  0.1321469E-005  0.9583337E+02  0.7546771E-02  0.1289736E+00
         21   -1    0    0  501  502  0.00000000000E+00  0.00000000000E+00  0.41046764898E+03  0.41046764898E+03  0.00000000000E+00 0.  1.
         -1   -1    0    0    0  501 -0.00000000000E+00 -0.00000000000E+00 -0.81367784407E+02  0.81367784407E+02  0.00000000000E+00 0.  1.
         23    2    1    2    0    0  0.63141457453E+01  0.28307011563E+02 -0.23871564854E+02  0.97774975077E+02  0.90271472807E+02 0.  0.
         23    2    1    2    0    0 -0.44145818311E+02 -0.31467152273E+02  0.12520787110E+03  0.16315471902E+03  0.89461815343E+02 0.  0.
        -11    1    3    3    0    0  0.41340348304E+02  0.40094194566E+02 -0.18124760196E+02  0.60374462880E+02  0.00000000000E+00 0. -1.
         11    1    3    3    0    0 -0.35026202559E+02 -0.11787183004E+02 -0.57468046579E+01  0.37400512198E+02  0.00000000000E+00 0.  1.
        -11    1    4    4    0    0 -0.65425969459E+02 -0.38791922283E+02  0.11627052154E+03  0.13893957281E+03  0.00000000000E+00 0.  1.
         11    1    4    4    0    0  0.21280151147E+02  0.73247700099E+01  0.89373495664E+01  0.24215146207E+02  0.00000000000E+00 0. -1.
         -1    1    1    2    0  502  0.37831672566E+02  0.31601407105E+01  0.22776355832E+03  0.23090573929E+03  0.00000000000E+00 0.  1.
<scales pt_clust_5="13000.00000" pt_clust_6="13000.00000" pt_clust_7="13000.00000" pt_clust_8="13000.00000" pt_clust_9="37.96343"></scales>
<clustering>
<clus scale="   37.963">  1  9  2 -1</clus>
<clus scale="   89.462">  7  8 -1 -1</clus>
<clus scale="   90.271">  5  6 -1 -1</clus>
<clus scale="   95.071">  1  7  2 -1</clus>
<clus scale="   37.963">  1  5  2 -1</clus>
</clustering>
</event>
<event>
 9    1  0.1321469E-005  0.1361545E+03  0.7546771E-02  0.1219347E+00
         21   -1    0    0  501  502  0.00000000000E+00  0.00000000000E+00  0.48963410517E+03  0.48963410517E+03  0.00000000000E+00 0. -1.
         -2   -1    0    0    0  501 -0.00000000000E+00 -0.00000000000E+00 -0.81944212213E+02  0.81944212213E+02  0.00000000000E+00 0.  1.
         23    2    1    2    0    0  0.23629098236E+02  0.10053538876E+03  0.45537475541E+02  0.14300466790E+03  0.87812155680E+02 0.  0.
         23    2    1    2    0    0 -0.63217381262E+02 -0.82241021225E+02  0.12108949210E+03  0.18359763025E+03  0.91024182897E+02 0.  0.
        -11    1    4    4    0    0  0.14207762520E+02 -0.53570432593E+02  0.47121160578E+02  0.72746515643E+02  0.00000000000E+00 0.  1.
         11    1    4    4    0    0 -0.77425143782E+02 -0.28670588632E+02  0.73968331518E+02  0.11085111461E+03  0.00000000000E+00 0. -1.
        -13    1    3    3    0    0  0.41961366486E+02  0.10843022215E+02  0.80551763023E+01  0.44081892806E+02  0.00000000000E+00 0.  1.
         13    1    3    3    0    0 -0.18332268250E+02  0.89692366543E+02  0.37482299238E+02  0.98922775090E+02  0.00000000000E+00 0. -1.
         -2    1    1    2    0  502  0.39588283026E+02 -0.18294367534E+02  0.24106292532E+03  0.24497601924E+03  0.00000000000E+00 0.  1.
<scales pt_clust_5="13000.00000" pt_clust_6="13000.00000" pt_clust_7="13000.00000" pt_clust_8="13000.00000" pt_clust_9="43.61096"></scales>
<clustering>
<clus scale="   43.611">  1  9  2 -1</clus>
<clus scale="   87.812">  7  8 -1 -1</clus>
<clus scale="   91.024">  5  6 -1 -1</clus>
<clus scale="  134.028">  2  7  1 -1</clus>
<clus scale="   43.611">  1  5  2 -1</clus>
</clustering>
</event>
<event>
 9    1  0.2134070E-005  0.1732379E+03  0.7546771E-02  0.1187665E+00
          3   -1    0    0  502    0 -0.00000000000E+00  0.00000000000E+00  0.32176937721E+03  0.32176937721E+03  0.00000000000E+00 0. -1.
         21   -1    0    0  501  502  0.00000000000E+00 -0.00000000000E+00 -0.69090869051E+03  0.69090869051E+03  0.00000000000E+00 0.  1.
         23    2    1    2    0    0  0.63766971083E+02 -0.68705359649E+02 -0.44289127373E+03  0.46128671176E+03  0.88578197387E+02 0.  0.
         23    2    1    2    0    0  0.66477293834E+02  0.82908731181E+02  0.27146879578E+03  0.31420524489E+03  0.11720298859E+03 0.  0.
        -11    1    3    3    0    0 -0.97079536970E+01 -0.24094491184E+02 -0.30641114522E+02  0.40170471363E+02  0.00000000000E+00 0. -1.
         11    1    3    3    0    0  0.73474924780E+02 -0.44610868465E+02 -0.41225015921E+03  0.42111624039E+03  0.00000000000E+00 0.  1.
        -13    1    4    4    0    0 -0.17733778803E+02  0.68167837199E+02  0.14945486946E+03  0.16522136346E+03  0.00000000000E+00 0. -1.
         13    1    4    4    0    0  0.84211072637E+02  0.14740893982E+02  0.12201392631E+03  0.14898388143E+03  0.00000000000E+00 0.  1.
          3    1    1    2  501    0 -0.13024426492E+03 -0.14203371532E+02 -0.19771683535E+03  0.23718611107E+03  0.00000000000E+00 0. -1.
<scales pt_clust_5="13000.00000" pt_clust_6="13000.00000" pt_clust_7="13000.00000" pt_clust_8="13000.00000" pt_clust_9="127.57281"></scales>
<clustering>
<clus scale="   88.578">  5  6 -1 -1</clus>
<clus scale="  117.203">  7  8 -1 -1</clus>
<clus scale="  128.968">  1  5  2 -1</clus>
<clus scale="  127.573">  2  9  1 -1</clus>
<clus scale="  127.573">  2  5  1 -1</clus>
</clustering>
</event>
<event>
 9    1  0.1321469E-005  0.1293038E+03  0.7546771E-02  0.1242687E+00
         21   -1    0    0  501  502  0.00000000000E+00  0.00000000000E+00  0.31052937679E+03  0.31052937679E+03  0.00000000000E+00 0.  1.
          2   -1    0    0  502    0 -0.00000000000E+00 -0.00000000000E+00 -0.71659172734E+02  0.71659172734E+02  0.00000000000E+00 0. -1.
         23    2    1    2    0    0 -0.94332982737E-01 -0.20573098857E+02  0.39383466271E+02  0.13325457638E+03  0.12562827474E+03 0.  0.
         23    2    1    2    0    0  0.11544585129E+02  0.42511326180E+02  0.87402999171E+02  0.13415087965E+03  0.91742487139E+02 0.  0.
        -11    1    4    4    0    0  0.14926356953E+02  0.69082760200E+02  0.44331126369E+02  0.83429447163E+02  0.00000000000E+00 0.  1.
         11    1    4    4    0    0 -0.33817718239E+01 -0.26571434020E+02  0.43071872802E+02  0.50721432484E+02  0.00000000000E+00 0. -1.
        -13    1    3    3    0    0  0.51425251516E+01  0.33517033694E+02  0.64895765386E+02  0.73220881431E+02  0.00000000000E+00 0.  1.
         13    1    3    3    0    0 -0.52368581344E+01 -0.54090132551E+02 -0.25512299115E+02  0.60033694944E+02  0.00000000000E+00 0. -1.
          2    1    1    2  501    0 -0.11450252146E+02 -0.21938227323E+02  0.11208373861E+03  0.11478309350E+03  0.00000000000E+00 0. -1.
<scales pt_clust_5="13000.00000" pt_clust_6="13000.00000" pt_clust_7="13000.00000" pt_clust_8="13000.00000" pt_clust_9="24.74660"></scales>
<clustering>
<clus scale="   24.747">  1  9  2 -1</clus>
<clus scale="   91.742">  5  6 -1 -1</clus>
<clus scale="   96.714">  1  5  2 -1</clus>
<clus scale="  125.628">  7  8 -1 -1</clus>
<clus scale="   24.747">  1  5  2 -1</clus>
</clustering>
</event>
<event>
 9    1  0.1321469E-005  0.1356804E+03  0.7546771E-02  0.1219824E+00
         21   -1    0    0  501  502  0.00000000000E+00  0.00000000000E+00  0.93948149500E+02  0.93948149500E+02  0.00000000000E+00 0. -1.
         -2   -1    0    0    0  501 -0.00000000000E+00 -0.00000000000E+00 -0.61575942327E+03  0.61575942327E+03  0.00000000000E+00 0.  1.
         23    2    1    2    0    0 -0.74189934591E+02  0.93253229153E+02 -0.49158349098E+03  0.51440748198E+03  0.93597103409E+02 0.  0.
         23    2    1    2    0    0 -0.84241198697E-01 -0.33664910099E+02 -0.21845965897E+02  0.99708899711E+02  0.91275874069E+02 0.  0.
        -13    1    4    4    0    0  0.25806773950E+02 -0.43333835268E+02 -0.41893664526E+02  0.65565920935E+02  0.00000000000E+00 0.  1.
         13    1    4    4    0    0 -0.25891015149E+02  0.96689251684E+01  0.20047698629E+02  0.34142978775E+02  0.00000000000E+00 0. -1.
        -13    1    3    3    0    0 -0.59643809586E+02  0.10567042215E+02 -0.28595705792E+03  0.29230204477E+03  0.00000000000E+00 0.  1.
         13    1    3    3    0    0 -0.14546125005E+02  0.82686186938E+02 -0.20562643307E+03  0.22210543721E+03  0.00000000000E+00 0. -1.
         -2    1    1    2    0  502  0.74274175789E+02 -0.59588319054E+02 -0.83818168837E+01  0.95591191075E+02  0.00000000000E+00 0.  1.
<scales pt_clust_5="13000.00000" pt_clust_6="13000.00000" pt_clust_7="13000.00000" pt_clust_8="13000.00000" pt_clust_9="95.22301"></scales>
<clustering>
<clus scale="   91.276">  5  6 -1 -1</clus>
<clus scale="   93.597">  7  8 -1 -1</clus>
<clus scale="   95.223">  1  9  2 -1</clus>
<clus scale="  134.090">  1  5  2 -1</clus>
<clus scale="   95.223">  1  5  2 -1</clus>
</clustering>
</event>
<event>
 9    1  0.1321469E-005  0.2160338E+03  0.7546771E-02  0.1163703E+00
         21   -1    0    0  501  502  0.00000000000E+00  0.00000000000E+00  0.26299313771E+03  0.26299313771E+03  0.00000000000E+00 0. -1.
          1   -1    0    0  502    0 -0.00000000000E+00 -0.00000000000E+00 -0.87360271116E+03  0.87360271116E+03  0.00000000000E+00 0. -1.
         23    2    1    2    0    0 -0.89161117885E+00 -0.19929438820E+02 -0.78764879887E+02  0.13892091792E+03  0.11268157626E+03 0.  0.
         23    2    1    2    0    0  0.38294560536E+02 -0.17601330836E+03 -0.70552682022E+03  0.73317914288E+03  0.85652807362E+02 0.  0.
        -11    1    4    4    0    0  0.26190958994E+02 -0.11993312067E+03 -0.60592706528E+03  0.61823743675E+03  0.00000000000E+00 0. -1.
         11    1    4    4    0    0  0.12103601542E+02 -0.56080187688E+02 -0.99599754946E+02  0.11494170612E+03  0.00000000000E+00 0.  1.
        -13    1    3    3    0    0 -0.11879264507E+02 -0.47653159981E+02  0.56100627886E+01  0.49430895054E+02  0.00000000000E+00 0. -1.
         13    1    3    3    0    0  0.10987653328E+02  0.27723721161E+02 -0.84374942676E+02  0.89490022864E+02  0.00000000000E+00 0.  1.
          1    1    1    2  501    0 -0.37402949357E+02  0.19594274718E+03  0.17368212666E+03  0.26449578808E+03  0.00000000000E+00 0. -1.
<scales pt_clust_5="13000.00000" pt_clust_6="13000.00000" pt_clust_7="13000.00000" pt_clust_8="13000.00000" pt_clust_9="198.32849"></scales>
<clustering>
<clus scale="   85.653">  5  6 -1 -1</clus>
<clus scale="  112.682">  7  8 -1 -1</clus>
<clus scale="  114.434">  2  7  1 -1</clus>
<clus scale="  198.328">  1  9  2 -1</clus>
<clus scale="  198.328">  1  5  2 -1</clus>
</clustering>
</event>
<event>
 9    1  0.1321469E-005  0.1163041E+03  0.7546771E-02  0.1249950E+00
         21   -1    0    0  501  502  0.00000000000E+00  0.00000000000E+00  0.57142769165E+02  0.57142769165E+02  0.00000000000E+00 0.  1.
          1   -1    0    0  502    0 -0.00000000000E+00 -0.00000000000E+00 -0.28786429620E+03  0.28786429620E+03  0.00000000000E+00 0. -1.
         23    2    1    2    0    0 -0.49495833424E+02 -0.52194589983E+02 -0.10422645744E+03  0.15400441003E+03  0.87636129126E+02 0.  0.
         23    2    1    2    0    0  0.34982642681E+02  0.69950310208E+02 -0.11478987986E+03  0.16525562108E+03  0.89531405625E+02 0.  0.
        -13    1    3    3    0    0 -0.45652329503E+02  0.86939621896E+01 -0.21476924360E+02  0.51195492453E+02  0.00000000000E+00 0.  1.
         13    1    3    3    0    0 -0.38435039210E+01 -0.60888552172E+02 -0.82749533083E+02  0.10280891758E+03  0.00000000000E+00 0. -1.
        -13    1    4    4    0    0 -0.24417437032E+02  0.14280412236E+02 -0.62219416443E+02  0.68347620203E+02  0.00000000000E+00 0. -1.
         13    1    4    4    0    0  0.59400079713E+02  0.55669897973E+02 -0.52570463415E+02  0.96908000876E+02  0.00000000000E+00 0.  1.
          1    1    1    2  501    0  0.14513190743E+02 -0.17755720226E+02 -0.11705189738E+02  0.25747034258E+02  0.00000000000E+00 0. -1.
<scales pt_clust_5="13000.00000" pt_clust_6="13000.00000" pt_clust_7="13000.00000" pt_clust_8="13000.00000" pt_clust_9="22.93247"></scales>
<clustering>
<clus scale="   22.932">  1  9  2 -1</clus>
<clus scale="   87.636">  5  6 -1 -1</clus>
<clus scale="   89.531">  7  8 -1 -1</clus>
<clus scale="  114.851">  2  5  1 -1</clus>
<clus scale="   22.932">  1  5  2 -1</clus>
</clustering>
</event>
<event>
 9    1  0.1321469E-005  0.2014659E+03  0.7546771E-02  0.1149420E+00
          2   -1    0    0  502    0 -0.00000000000E+00  0.00000000000E+00  0.54685268104E+03  0.54685268104E+03  0.00000000000E+00 0. -1.
         21   -1    0    0  501  502  0.00000000000E+00 -0.00000000000E+00 -0.98284719120E+02  0.98284719120E+02  0.00000000000E+00 0.  1.
         23    2    1    2    0    0  0.14169538029E+03  0.88111143595E+02  0.23736439872E+03  0.30007102343E+03  0.76548069198E+02 0.  0.
         23    2    1    2    0    0 -0.16758015663E+03 -0.11708995598E+03  0.21069018862E+03  0.30620692786E+03  0.87058373516E+02 0.  0.
        -11    1    4    4    0    0 -0.14755303890E+03 -0.12525729339E+03  0.20846775160E+03  0.28446457125E+03  0.00000000000E+00 0. -1.
         11    1    4    4    0    0 -0.20027117729E+02  0.81673374044E+01  0.22224370190E+01  0.21742356613E+02  0.00000000000E+00 0.  1.
        -13    1    3    3    0    0  0.12041086270E+03  0.50818225015E+02  0.12956143032E+03  0.18403106280E+03  0.00000000000E+00 0.  1.
         13    1    3    3    0    0  0.21284517593E+02  0.37292918579E+02  0.10780296840E+03  0.11603996063E+03  0.00000000000E+00 0. -1.
          2    1    1    2  501    0  0.25884776338E+02  0.28978812388E+02  0.51337457500E+00  0.38859448876E+02  0.00000000000E+00 0. -1.
<scales pt_clust_5="13000.00000" pt_clust_6="13000.00000" pt_clust_7="13000.00000" pt_clust_8="13000.00000" pt_clust_9="38.85606"></scales>
<clustering>
<clus scale="   38.856">  2  9  1 -1</clus>
<clus scale="   76.548">  7  8 -1 -1</clus>
<clus scale="   87.058">  5  6 -1 -1</clus>
<clus scale="  197.152">  1  7  2 -1</clus>
<clus scale="   38.856">  2  5  1 -1</clus>
</clustering>
</event>
<event>
 9    1  0.1321469E-005  0.9987071E+02  0.7546771E-02  0.1281719E+00
          1   -1    0    0  502    0 -0.00000000000E+00  0.00000000000E+00  0.21153617350E+03  0.21153617350E+03  0.00000000000E+00 0. -1.
         21   -1    0    0  501  502  0.00000000000E+00 -0.00000000000E+00 -0.15431896808E+03  0.15431896808E+03  0.00000000000E+00 0.  1.
         23    2    1    2    0    0 -0.50880460426E+01 -0.37001473965E+02  0.16402133621E+03  0.19264885945E+03  0.93891357574E+02 0.  0.
         23    2    1    2    0    0  0.14339024539E+02  0.15500384765E+02 -0.39512654740E+02  0.10196008791E+03  0.91590065453E+02 0.  0.
        -11    1    3    3    0    0 -0.48419495953E+02 -0.15296076812E+02  0.65732515750E+02  0.83061309772E+02  0.00000000000E+00 0. -1.
         11    1    3    3    0    0  0.43331449911E+02 -0.21705397153E+02  0.98288820462E+02  0.10958754968E+03  0.00000000000E+00 0.  1.
        -13    1    4    4    0    0 -0.19383205107E+02 -0.28760235056E+02 -0.29267973344E+02  0.45381428188E+02  0.00000000000E+00 0.  1.
         13    1    4    4    0    0  0.33722229646E+02  0.44260619821E+02 -0.10244681396E+02  0.56578659723E+02  0.00000000000E+00 0. -1.
          1    1    1    2  501    0 -0.92509784965E+01  0.21501089200E+02 -0.67291476053E+02  0.71246194209E+02  0.00000000000E+00 0. -1.
<scales pt_clust_5="13000.00000" pt_clust_6="13000.00000" pt_clust_7="13000.00000" pt_clust_8="13000.00000" pt_clust_9="23.40678"></scales>
<clustering>
<clus scale="   23.407">  2  9  1 -1</clus>
<clus scale="   91.590">  7  8 -1 -1</clus>
<clus scale="   93.891">  5  6 -1 -1</clus>
<clus scale="   97.710">  2  7  1 -1</clus>
<clus scale="   23.407">  2  5  1 -1</clus>
</clustering>
</event>
<event>
 9    1  0.1321469E-005  0.1662590E+03  0.7546771E-02  0.1182057E+00
         21   -1    0    0  501  502  0.00000000000E+00  0.00000000000E+00  0.18778136760E+03  0.18778136760E+03  0.00000000000E+00 0.  1.
          1   -1    0    0  502    0 -0.00000000000E+00 -0.00000000000E+00 -0.31097272232E+03  0.31097272232E+03  0.00000000000E+00 0. -1.
         23    2    1    2    0    0 -0.99637461360E+01 -0.13645078212E+03 -0.20283665633E+03  0.26122578286E+03  0.91532006950E+02 0.  0.
         23    2    1    2    0    0 -0.30602428540E+02  0.14204988648E+03  0.33536431039E+02  0.17585989990E+03  0.93205865170E+02 0.  0.
        -11    1    4    4    0    0  0.76555397581E+01  0.31948738623E+02 -0.28790829264E+02  0.43683418345E+02  0.00000000000E+00 0. -1.
         11    1    4    4    0    0 -0.38257968298E+02  0.11010114786E+03  0.62327260303E+02  0.13217648155E+03  0.00000000000E+00 0.  1.
        -13    1    3    3    0    0  0.25196770353E+02 -0.85692019094E+02 -0.65861466209E+02  0.11097626820E+03  0.00000000000E+00 0.  1.
         13    1    3    3    0    0 -0.35160516489E+02 -0.50758763031E+02 -0.13697519013E+03  0.15024951466E+03  0.00000000000E+00 0. -1.
          1    1    1    2  501    0  0.40566174676E+02 -0.55991043584E+01  0.46108870570E+02  0.61668407168E+02  0.00000000000E+00 0. -1.
<scales pt_clust_5="13000.00000" pt_clust_6="13000.00000" pt_clust_7="13000.00000" pt_clust_8="13000.00000" pt_clust_9="40.95076"></scales>
<clustering>
<clus scale="   40.951">  1  9  2 -1</clus>
<clus scale="   91.532">  7  8 -1 -1</clus>
<clus scale="   93.206">  5  6 -1 -1</clus>
<clus scale="  165.326">  2  7  1 -1</clus>
<clus scale="   40.951">  1  5  2 -1</clus>
</clustering>
</event>
<event>
 9    1  0.1321469E-005  0.1312790E+03  0.7546771E-02  0.1226689E+00
          2   -1    0    0  502    0 -0.00000000000E+00  0.00000000000E+00  0.15896566561E+03  0.15896566561E+03  0.00000000000E+00 0. -1.
         21   -1    0    0  501  502  0.00000000000E+00 -0.00000000000E+00 -0.32173916185E+03  0.32173916185E+03  0.00000000000E+00 0. -1.
         23    2    1    2    0    0 -0.53823071796E+02 -0.84183819244E+02  0.59568488153E+02  0.14883378398E+03  0.92839926725E+02 0.  0.
         23    2    1    2    0    0  0.68073039940E+02  0.51047744181E+02 -0.17674385417E+02  0.12404927577E+03  0.88521341876E+02 0.  0.
        -11    1    4    4    0    0  0.42930008468E+02 -0.17857208332E+02  0.62119696581E+01  0.46908997895E+02  0.00000000000E+00 0.  1.
         11    1    4    4    0    0  0.25143031471E+02  0.68904952513E+02 -0.23886355075E+02  0.77140277878E+02  0.00000000000E+00 0. -1.
        -13    1    3    3    0    0 -0.48930432144E+02 -0.37196804273E+02 -0.12442063862E+02  0.62710400980E+02  0.00000000000E+00 0.  1.
         13    1    3    3    0    0 -0.48926396520E+01 -0.46987014971E+02  0.72010552015E+02  0.86123383005E+02  0.00000000000E+00 0. -1.
          2    1    1    2  501    0 -0.14249968143E+02  0.33136075063E+02 -0.20466759898E+03  0.20782176771E+03  0.00000000000E+00 0. -1.
<scales pt_clust_5="13000.00000" pt_clust_6="13000.00000" pt_clust_7="13000.00000" pt_clust_8="13000.00000" pt_clust_9="36.07022"></scales>
<clustering>
<clus scale="   36.070">  2  9  1 -1</clus>
<clus scale="   88.521">  5  6 -1 -1</clus>
<clus scale="   92.840">  7  8 -1 -1</clus>
<clus scale="  128.261">  2  5  1 -1</clus>
<clus scale="   36.070">  2  5  1 -1</clus>
</clustering>
</event>
<event>
 9    1  0.1321469E-005  0.1030922E+03  0.7546771E-02  0.1274535E+00
         -1   -1    0    0    0  501 -0.00000000000E+00  0.00000000000E+00  0.47271783092E+03  0.47271783092E+03  0.00000000000E+00 0.  1.
         21   -1    0    0  501  502  0.00000000000E+00 -0.00000000000E+00 -0.49524384609E+02  0.49524384609E+02  0.00000000000E+00 0. -1.
         23    2    1    2    0    0  0.20730304624E+02  0.37267327405E+02  0.35065205407E+03  0.36507639145E+03  0.92224234058E+02 0.  0.
         23    2    1    2    0    0 -0.42485900735E+02 -0.43905796278E+02  0.77154079087E+02  0.13395694408E+03  0.90878711696E+02 0.  0.
        -11    1    3    3    0    0  0.54836150453E+02  0.62859225651E+01  0.20575396666E+03  0.21302866243E+03  0.00000000000E+00 0.  1.
         11    1    3    3    0    0 -0.34105845829E+02  0.30981404840E+02  0.14489808740E+03  0.15204772902E+03  0.00000000000E+00 0. -1.
        -13    1    4    4    0    0  0.19380873510E+02  0.72957545213E+01 -0.24854271366E+01  0.20857220335E+02  0.00000000000E+00 0.  1.
         13    1    4    4    0    0 -0.61866774245E+02 -0.51201550799E+02  0.79639506223E+02  0.11309972375E+03  0.00000000000E+00 0. -1.
         -1    1    1    2    0  502  0.21755596110E+02  0.66384688727E+01 -0.46126868438E+01  0.23208880003E+02  0.00000000000E+00 0.  1.
<scales pt_clust_5="13000.00000" pt_clust_6="13000.00000" pt_clust_7="13000.00000" pt_clust_8="13000.00000" pt_clust_9="22.74588"></scales>
<clustering>
<clus scale="   22.746">  2  9  1 -1</clus>
<clus scale="   90.879">  7  8 -1 -1</clus>
<clus scale="   92.224">  5  6 -1 -1</clus>
<clus scale="  101.890">  2  7  1 -1</clus>
<clus scale="   22.746">  2  5  1 -1</clus>
</clustering>
</event>
<event>
 9    1  0.1321469E-005  0.1168881E+03  0.7546771E-02  0.1273059E+00
         21   -1    0    0  501  502  0.00000000000E+00  0.00000000000E+00  0.92900190764E+02  0.92900190764E+02  0.00000000000E+00 0. -1.
         -2   -1    0    0    0  501 -0.00000000000E+00 -0.00000000000E+00 -0.28278826164E+03  0.28278826164E+03  0.00000000000E+00 0.  1.
         23    2    1    2    0    0  0.36432364895E+02  0.62784562149E+01  0.26040542693E+02  0.76485137672E+02  0.61685737385E+02 0.  0.
         23    2    1    2    0    0  0.38837869395E+02 -0.18305348909E+02 -0.19408896940E+03  0.21991129511E+03  0.94058406204E+02 0.  0.
        -13    1    3    3    0    0  0.44339641392E+02 -0.15276620491E+02  0.86638221576E+01  0.47691097144E+02  0.00000000000E+00 0. -1.
         13    1    3    3    0    0 -0.79072764973E+01  0.21555076705E+02  0.17376720535E+02  0.28794040528E+02  0.00000000000E+00 0.  1.
        -13    1    4    4    0    0  0.40540443646E+02  0.96130077969E+01 -0.18626417058E+03  0.19086717563E+03  0.00000000000E+00 0.  1.
         13    1    4    4    0    0 -0.17025742511E+01 -0.27918356706E+02 -0.78247988220E+01  0.29044119488E+02  0.00000000000E+00 0. -1.
         -2    1    1    2    0  502 -0.75270234290E+02  0.12026892694E+02 -0.21839644171E+02  0.79292019620E+02  0.00000000000E+00 0.  1.
<scales pt_clust_5="13000.00000" pt_clust_6="13000.00000" pt_clust_7="13000.00000" pt_clust_8="13000.00000" pt_clust_9="69.39628"></scales>
<clustering>
<clus scale="   61.686">  5  6 -1 -1</clus>
<clus scale="   71.916">  2  5  1 -1</clus>
<clus scale="   69.396">  1  9  2 -1</clus>
<clus scale="   94.058">  7  8 -1 -1</clus>
<clus scale="   69.396">  1  5  2 -1</clus>
</clustering>
</event>
<event>
 9    1  0.1321469E-005  0.1397668E+03  0.7546771E-02  0.1233182E+00
         21   -1    0    0  501  502  0.00000000000E+00  0.00000000000E+00  0.17490588761E+03  0.17490588761E+03  0.00000000000E+00 0. -1.
          3   -1    0    0  502    0 -0.00000000000E+00 -0.00000000000E+00 -0.28462898063E+03  0.28462898063E+03  0.00000000000E+00 0. -1.
         23    2    1    2    0    0  0.29725951876E+02  0.25884120214E+02  0.24455387512E+02  0.96111054226E+02  0.84176296378E+02 0.  0.
         23    2    1    2    0    0 -0.61582133140E+00  0.80963942279E+02 -0.20049636636E+03  0.23434255999E+03  0.90344359603E+02 0.  0.
        -13    1    4    4    0    0  0.17350776816E+02  0.20773603654E+02 -0.31602995834E+01  0.27250312995E+02  0.00000000000E+00 0.  1.
         13    1    4    4    0    0 -0.17966598148E+02  0.60190338625E+02 -0.19733606678E+03  0.20709224699E+03  0.00000000000E+00 0. -1.
        -13    1    3    3    0    0 -0.16844706377E+02 -0.15628222288E+02 -0.97518631176E+01  0.24961656577E+02  0.00000000000E+00 0.  1.
         13    1    3    3    0    0  0.46570658254E+02  0.41512342502E+02  0.34207250630E+02  0.71149397649E+02  0.00000000000E+00 0. -1.
          3    1    1    2  501    0 -0.29110130545E+02 -0.10684806249E+03  0.66317885831E+02  0.12908125402E+03  0.00000000000E+00 0. -1.
<scales pt_clust_5="13000.00000" pt_clust_6="13000.00000" pt_clust_7="13000.00000" pt_clust_8="13000.00000" pt_clust_9="106.64267"></scales>
<clustering>
<clus scale="   84.176">  7  8 -1 -1</clus>
<clus scale="   90.344">  5  6 -1 -1</clus>
<clus scale="   92.948">  2  7  1 -1</clus>
<clus scale="  106.643">  1  9  2 -1</clus>
<clus scale="  106.643">  1  5  2 -1</clus>
</clustering>
</event>
<event>
 9    1  0.1321469E-005  0.9791370E+02  0.7546771E-02  0.1285114E+00
          2   -1    0    0  502    0 -0.00000000000E+00  0.00000000000E+00  0.12734964095E+03  0.12734964095E+03  0.00000000000E+00 0. -1.
         21   -1    0    0  501  502  0.00000000000E+00 -0.00000000000E+00 -0.13184813648E+03  0.13184813648E+03  0.00000000000E+00 0. -1.
         23    2    1    2    0    0  0.10837032430E+02  0.18988823849E+02  0.18674660317E+02  0.95487674037E+02  0.91055676660E+02 0.  0.
         23    2    1    2    0    0 -0.92285621117E+01 -0.46821559111E+02  0.26465957243E+02  0.10677777621E+03  0.91780291151E+02 0.  0.
        -13    1    3    3    0    0  0.26727402395E+02  0.50579978102E+02  0.18501347131E+02  0.60124770846E+02  0.00000000000E+00 0.  1.
         13    1    3    3    0    0 -0.15890369964E+02 -0.31591154253E+02  0.17331318658E+00  0.35362903191E+02  0.00000000000E+00 0. -1.
        -13    1    4    4    0    0  0.16865945710E+02 -0.11418560687E+02 -0.29344741659E+02  0.35720547531E+02  0.00000000000E+00 0.  1.
         13    1    4    4    0    0 -0.26094507822E+02 -0.35402998424E+02  0.55810698902E+02  0.71057228681E+02  0.00000000000E+00 0. -1.
          2    1    1    2  501    0 -0.16084703184E+01  0.27832735262E+02 -0.49639113090E+02  0.56932327172E+02  0.00000000000E+00 0. -1.
<scales pt_clust_5="13000.00000" pt_clust_6="13000.00000" pt_clust_7="13000.00000" pt_clust_8="13000.00000" pt_clust_9="27.87917"></scales>
<clustering>
<clus scale="   27.879">  2  9  1 -1</clus>
<clus scale="   91.056">  5  6 -1 -1</clus>
<clus scale="   91.780">  7  8 -1 -1</clus>
<clus scale="   97.235">  1  5  2 -1</clus>
<clus scale="   27.879">  2  5  1 -1</clus>
</clustering>
</event>
<event>
 9    1  0.1321469E-005  0.1151322E+03  0.7546771E-02  0.1252619E+00
          2   -1    0    0  502    0 -0.00000000000E+00  0.00000000000E+00  0.90064433765E+03  0.90064433765E+03  0.00000000000E+00 0. -1.
         21   -1    0    0  501  502  0.00000000000E+00 -0.00000000000E+00 -0.37902367201E+02  0.37902367201E+02  0.00000000000E+00 0.  1.
         23    2    1    2    0    0  0.77870346075E+02  0.34123670038E+02  0.62218799789E+03  0.63437936783E+03  0.89950330461E+02 0.  0.
         23    2    1    2    0    0 -0.39658398937E+02  0.75686479473E+01  0.22265853641E+03  0.24484913646E+03  0.93510441935E+02 0.  0.
        -11    1    4    4    0    0 -0.18964886174E+02  0.47672200741E+02  0.15705552714E+03  0.16522331626E+03  0.00000000000E+00 0.  1.
         11    1    4    4    0    0 -0.20693512763E+02 -0.40103552794E+02  0.65603009273E+02  0.79625820202E+02  0.00000000000E+00 0. -1.
        -13    1    3    3    0    0  0.83116563783E+02  0.56685633203E+02  0.50479032670E+03  0.51471827063E+03  0.00000000000E+00 0.  1.
         13    1    3    3    0    0 -0.52462177083E+01 -0.22561963165E+02  0.11739767119E+03  0.11966109720E+03  0.00000000000E+00 0. -1.
          2    1    1    2  501    0 -0.38211947138E+02 -0.41692317985E+02  0.17895436147E+02  0.59318200562E+02  0.00000000000E+00 0. -1.
<scales pt_clust_5="13000.00000" pt_clust_6="13000.00000" pt_clust_7="13000.00000" pt_clust_8="13000.00000" pt_clust_9="56.55442"></scales>
<clustering>
<clus scale="   56.554">  2  9  1 -1</clus>
<clus scale="   89.950">  7  8 -1 -1</clus>
<clus scale="   93.510">  5  6 -1 -1</clus>
<clus scale="  112.260">  1  7  2 -1</clus>
<clus scale="   56.554">  2  5  1 -1</clus>
</clustering>
</event>
<event>
 9    1  0.1321469E-005  0.1395397E+03  0.7546771E-02  0.1214134E+00
         21   -1    0    0  501  502  0.00000000000E+00  0.00000000000E+00  0.13077772229E+03  0.13077772229E+03  0.00000000000E+00 0. -1.
          1   -1    0    0  502    0 -0.00000000000E+00 -0.00000000000E+00 -0.20781964964E+03  0.20781964964E+03  0.00000000000E+00 0. -1.
         23    2    1    2    0    0 -0.70681730611E+02 -0.86896135340E+02 -0.74200002197E+02  0.16256203989E+03  0.91509185918E+02 0.  0.
         23    2    1    2    0    0  0.70006702900E+02  0.66354086553E+02 -0.34846630990E+02  0.13799939343E+03  0.92334942688E+02 0.  0.
        -11    1    3    3    0    0 -0.73573352753E+02 -0.66100174816E+02 -0.15363491428E+02  0.10009149921E+03  0.00000000000E+00 0.  1.
         11    1    3    3    0    0  0.28916221418E+01 -0.20795960524E+02 -0.58836510769E+02  0.62470540675E+02  0.00000000000E+00 0. -1.
        -11    1    4    4    0    0  0.35779713179E+02  0.17558586337E+02  0.30028045041E+02  0.49901656469E+02  0.00000000000E+00 0.  1.
         11    1    4    4    0    0  0.34226989721E+02  0.48795500216E+02 -0.64874676031E+02  0.88097736956E+02  0.00000000000E+00 0. -1.
          1    1    1    2  501    0  0.67502771112E+00  0.20542048787E+02  0.32004705838E+02  0.38035938618E+02  0.00000000000E+00 0. -1.
<scales pt_clust_5="13000.00000" pt_clust_6="13000.00000" pt_clust_7="13000.00000" pt_clust_8="13000.00000" pt_clust_9="20.55314"></scales>
<clustering>
<clus scale="   20.553">  1  9  2 -1</clus>
<clus scale="   91.509">  5  6 -1 -1</clus>
<clus scale="   92.335">  7  8 -1 -1</clus>
<clus scale="  138.995">  2  5  1 -1</clus>
<clus scale="   20.553">  1  5  2 -1</clus>
</clustering>
</event>
<event>
 9    1  0.1321469E-005  0.9995040E+02  0.7546771E-02  0.1280578E+00
         -2   -1    0    0    0  501 -0.00000000000E+00  0.00000000000E+00  0.34445347579E+03  0.34445347579E+03  0.00000000000E+00 0.  1.
         21   -1    0    0  501  502  0.00000000000E+00 -0.00000000000E+00 -0.39602272918E+02  0.39602272918E+02  0.00000000000E+00 0. -1.
         23    2    1    2    0    0 -0.35824432830E+02  0.11635060700E+02  0.15472893832E+03  0.18378183377E+03  0.91738505810E+02 0.  0.
         23    2    1    2    0    0  0.44980788226E+02  0.16185665796E+02  0.11281463728E+03  0.15284301024E+03  0.91370653431E+02 0.  0.
        -11    1    4    4    0    0  0.16649578898E+02 -0.22343694565E+02 -0.25274426057E+01  0.27979226766E+02  0.00000000000E+00 0. -1.
         11    1    4    4    0    0  0.28331209328E+02  0.38529360361E+02  0.11534207988E+03  0.12486378347E+03  0.00000000000E+00 0.  1.
        -13    1    3    3    0    0 -0.12101621474E+02 -0.35957732753E+02  0.10228421307E+03  0.10909384965E+03  0.00000000000E+00 0.  1.
         13    1    3    3    0    0 -0.23722811357E+02  0.47592793453E+02  0.52444725245E+02  0.74687984129E+02  0.00000000000E+00 0. -1.
         -2    1    1    2    0  502 -0.91563553960E+01 -0.27820726496E+02  0.37307627283E+02  0.47430904697E+02  0.00000000000E+00 0.  1.
<scales pt_clust_5="13000.00000" pt_clust_6="13000.00000" pt_clust_7="13000.00000" pt_clust_8="13000.00000" pt_clust_9="29.28876"></scales>
<clustering>
<clus scale="   29.289">  2  9  1 -1</clus>
<clus scale="   91.371">  5  6 -1 -1</clus>
<clus scale="   91.739">  7  8 -1 -1</clus>
<clus scale="   99.613">  2  5  1 -1</clus>
<clus scale="   29.289">  2  5  1 -1</clus>
</clustering>
</event>
<event>
 9    1  0.1321469E-005  0.1762013E+03  0.7546771E-02  0.1171841E+00
          1   -1    0    0  502    0 -0.00000000000E+00  0.00000000000E+00  0.12013572491E+04  0.12013572491E+04  0.00000000000E+00 0. -1.
         21   -1    0    0  501  502  0.00000000000E+00 -0.00000000000E+00 -0.45845228905E+02  0.45845228905E+02  0.00000000000E+00 0. -1.
         23    2    1    2    0    0 -0.14110665206E+03 -0.41476303765E+02  0.87717237564E+03  0.89400376484E+03  0.90443263674E+02 0.  0.
         23    2    1    2    0    0  0.14496387322E+03  0.70214892162E+02  0.25702475499E+03  0.31721108842E+03  0.92825073785E+02 0.  0.
        -13    1    3    3    0    0 -0.73003912796E+02 -0.67142268785E+02  0.46576617188E+03  0.47620980923E+03  0.00000000000E+00 0. -1.
         13    1    3    3    0    0 -0.68102739267E+02  0.25665965019E+02  0.41140620376E+03  0.41779395561E+03  0.00000000000E+00 0.  1.
        -13    1    4    4    0    0  0.50019040830E+02 -0.20889488361E+02  0.69967403659E+02  0.88508263707E+02  0.00000000000E+00 0.  1.
         13    1    4    4    0    0  0.94944832387E+02  0.91104380523E+02  0.18705735133E+03  0.22870282472E+03  0.00000000000E+00 0. -1.
          1    1    1    2  501    0 -0.38572211538E+01 -0.28738588397E+02  0.21314889613E+02  0.35987624779E+02  0.00000000000E+00 0. -1.
<scales pt_clust_5="13000.00000" pt_clust_6="13000.00000" pt_clust_7="13000.00000" pt_clust_8="13000.00000" pt_clust_9="28.99629"></scales>
<clustering>
<clus scale="   28.996">  2  9  1 -1</clus>
<clus scale="   90.443">  5  6 -1 -1</clus>
<clus scale="   92.825">  7  8 -1 -1</clus>
<clus scale="  174.958">  1  5  2 -1</clus>
<clus scale="   28.996">  2  5  1 -1</clus>
</clustering>
</event>
<event>
 9    1  0.1321469E-005  0.1751445E+03  0.7546771E-02  0.1192219E+00
         21   -1    0    0  501  502  0.00000000000E+00  0.00000000000E+00  0.79151542797E+02  0.79151542797E+02  0.00000000000E+00 0.  1.
         -2   -1    0    0    0  501 -0.00000000000E+00 -0.00000000000E+00 -0.85316010380E+03  0.85316010380E+03  0.00000000000E+00 0.  1.
         23    2    1    2    0    0 -0.36366014459E+02 -0.56503481519E+02 -0.43648156474E+03  0.45083512179E+03  0.90669841989E+02 0.  0.
         23    2    1    2    0    0 -0.47958938568E+02  0.15885330468E+03 -0.11203695144E+03  0.21988152425E+03  0.90891000782E+02 0.  0.
        -11    1    4    4    0    0 -0.45780971416E+02  0.27040221429E+02 -0.12303472194E+02  0.54575144038E+02  0.00000000000E+00 0. -1.
         11    1    4    4    0    0 -0.21779671518E+01  0.13181308325E+03 -0.99733479246E+02  0.16530638021E+03  0.00000000000E+00 0.  1.
        -11    1    3    3    0    0 -0.59574213920E+02 -0.62930803136E+02 -0.37313816034E+03  0.38306847906E+03  0.00000000000E+00 0. -1.
         11    1    3    3    0    0  0.23208199460E+02  0.64273216168E+01 -0.63343404405E+02  0.67766642731E+02  0.00000000000E+00 0.  1.
         -2    1    1    2    0  502  0.84324953027E+02 -0.10234982316E+03 -0.22549004482E+03  0.26159500056E+03  0.00000000000E+00 0.  1.
<scales pt_clust_5="13000.00000" pt_clust_6="13000.00000" pt_clust_7="13000.00000" pt_clust_8="13000.00000" pt_clust_9="149.71457"></scales>
<clustering>
<clus scale="   90.670">  7  8 -1 -1</clus>
<clus scale="   90.891">  5  6 -1 -1</clus>
<clus scale="  112.855">  2  7  1 -1</clus>
<clus scale="  149.715">  1  9  2 -1</clus>
<clus scale="  149.715">  1  5  2 -1</clus>
</clustering>
</event>
<event>
 9    1  0.1321469E-005  0.1041544E+03  0.7546771E-02  0.1271851E+00
         21   -1    0    0  501  502  0.00000000000E+00  0.00000000000E+00  0.19377262912E+03  0.19377262912E+03  0.00000000000E+00 0. -1.
          1   -1    0    0  502    0 -0.00000000000E+00 -0.00000000000E+00 -0.30250933187E+03  0.30250933187E+03  0.00000000000E+00 0. -1.
         23    2    1    2    0    0  0.46560390571E+02  0.26774125333E+02 -0.20139395906E+03  0.22760465300E+03  0.91430998933E+02 0.  0.
         23    2    1    2    0    0  0.55323199676E+01 -0.66041162117E+02 -0.40770025423E+02  0.12015663541E+03  0.91560801670E+02 0.  0.
        -13    1    4    4    0    0  0.38844812161E+02 -0.24009369178E+02 -0.47751056946E+02  0.66072177802E+02  0.00000000000E+00 0. -1.
         13    1    4    4    0    0 -0.33312492193E+02 -0.42031792940E+02  0.69810315223E+01  0.54084457610E+02  0.00000000000E+00 0.  1.
        -13    1    3    3    0    0 -0.30736645187E+01 -0.25313195044E+02 -0.10050023983E+03  0.10368463465E+03  0.00000000000E+00 0.  1.
         13    1    3    3    0    0  0.49634055090E+02  0.52087320376E+02 -0.10089371923E+03  0.12392001836E+03  0.00000000000E+00 0. -1.
          1    1    1    2  501    0 -0.52092710539E+02  0.39267036785E+02  0.13342728174E+03  0.14852067257E+03  0.00000000000E+00 0. -1.
<scales pt_clust_5="13000.00000" pt_clust_6="13000.00000" pt_clust_7="13000.00000" pt_clust_8="13000.00000" pt_clust_9="65.23458"></scales>
<clustering>
<clus scale="   65.235">  1  9  2 -1</clus>
<clus scale="   91.431">  7  8 -1 -1</clus>
<clus scale="   91.561">  5  6 -1 -1</clus>
<clus scale="  104.040">  2  7  1 -1</clus>
<clus scale="   65.235">  1  5  2 -1</clus>
</clustering>
</event>
<event>
 9    1  0.1321469E-005  0.3097297E+03  0.7546771E-02  0.1113761E+00
         21   -1    0    0  501  502  0.00000000000E+00  0.00000000000E+00  0.22147422157E+04  0.22147422157E+04  0.00000000000E+00 0.  1.
         -2   -1    0    0    0  501 -0.00000000000E+00 -0.00000000000E+00 -0.86585859689E+02  0.86585859689E+02  0.00000000000E+00 0.  1.
         23    2    1    2    0    0  0.82593149498E+02  0.37029726917E+02  0.15879024531E+03  0.20518969124E+03  0.93250406790E+02 0.  0.
         23    2    1    2    0    0 -0.25876054322E+03  0.19389026044E+03  0.52864805466E+03  0.62643518003E+03  0.91661427394E+02 0.  0.
        -11    1    3    3    0    0  0.31022296731E+02 -0.26777456433E+02  0.24279136978E+02  0.47632883178E+02  0.00000000000E+00 0. -1.
         11    1    3    3    0    0  0.51570852768E+02  0.63807183350E+02  0.13451110834E+03  0.15755680807E+03  0.00000000000E+00 0.  1.
        -13    1    4    4    0    0 -0.15854725229E+03  0.16375803409E+03  0.31830927638E+03  0.39150315499E+03  0.00000000000E+00 0.  1.
         13    1    4    4    0    0 -0.10021329093E+03  0.30132226343E+02  0.21033877828E+03  0.23493202504E+03  0.00000000000E+00 0. -1.
         -2    1    1    2    0  502  0.17616739372E+03 -0.23091998735E+03  0.14407180560E+04  0.14697032041E+04  0.00000000000E+00 0.  1.
<scales pt_clust_5="13000.00000" pt_clust_6="13000.00000" pt_clust_7="13000.00000" pt_clust_8="13000.00000" pt_clust_9="295.85578"></scales>
<clustering>
<clus scale="   91.661">  7  8 -1 -1</clus>
<clus scale="   93.250">  5  6 -1 -1</clus>
<clus scale="  129.956">  2  5  1 -1</clus>
<clus scale="  295.856">  1  9  2 -1</clus>
<clus scale="  295.856">  1  5  2 -1</clus>
</clustering>
</event>
<event>
 9    1  0.1321469E-005  0.1652589E+03  0.7546771E-02  0.1184511E+00
         21   -1    0    0  501  502  0.00000000000E+00  0.00000000000E+00  0.11557140732E+03  0.11557140732E+03  0.00000000000E+00 0.  1.
          1   -1    0    0  502    0 -0.00000000000E+00 -0.00000000000E+00 -0.42632157695E+03  0.42632157695E+03  0.00000000000E+00 0. -1.
         23    2    1    2    0    0 -0.19810046798E+02 -0.12383585226E+03 -0.23500503557E+03  0.28166993922E+03  0.91557805013E+02 0.  0.
         23    2    1    2    0    0  0.39604927635E+02  0.17297098117E+03 -0.49039817982E+02  0.20089959179E+03  0.80425316983E+02 0.  0.
        -11    1    3    3    0    0  0.10926214125E+02 -0.74623526153E+02 -0.20037641798E+03  0.21409988718E+03  0.00000000000E+00 0. -1.
         11    1    3    3    0    0 -0.30736260923E+02 -0.49212326103E+02 -0.34628617597E+02  0.67570052040E+02  0.00000000000E+00 0.  1.
        -13    1    4    4    0    0  0.74964459030E+01  0.15991168062E+03 -0.42394742950E+02  0.16560572614E+03  0.00000000000E+00 0.  1.
         13    1    4    4    0    0  0.32108481732E+02  0.13059300547E+02 -0.66450750311E+01  0.35293865644E+02  0.00000000000E+00 0. -1.
          1    1    1    2  501    0 -0.19794880837E+02 -0.49135128916E+02 -0.26705316074E+02  0.59323453268E+02  0.00000000000E+00 0. -1.
<scales pt_clust_5="13000.00000" pt_clust_6="13000.00000" pt_clust_7="13000.00000" pt_clust_8="13000.00000" pt_clust_9="52.97262"></scales>
<clustering>
<clus scale="   52.973">  1  9  2 -1</clus>
<clus scale="   80.425">  7  8 -1 -1</clus>
<clus scale="   91.558">  5  6 -1 -1</clus>
<clus scale="  159.361">  1  7  2 -1</clus>
<clus scale="   52.973">  1  5  2 -1</clus>
</clustering>
</event>
<event>
 9    1  0.1321469E-005  0.9203625E+02  0.7546771E-02  0.1298179E+00
          1   -1    0    0  502    0 -0.00000000000E+00  0.00000000000E+00  0.32689606052E+02  0.32689606052E+02  0.00000000000E+00 0. -1.
         21   -1    0    0  501  502  0.00000000000E+00 -0.00000000000E+00 -0.48864840342E+03  0.48864840342E+03  0.00000000000E+00 0.  1.
         23    2    1    2    0    0 -0.14247417044E+00 -0.73337845968E+01 -0.11222045456E+03  0.14424249163E+03  0.90325308047E+02 0.  0.
         23    2    1    2    0    0 -0.43273961904E+02 -0.20997363549E+02 -0.21217794534E+03  0.23568908567E+03  0.90644026629E+02 0.  0.
        -11    1    4    4    0    0 -0.43439808150E+02 -0.53206990564E+02 -0.16323772844E+03  0.17710041435E+03  0.00000000000E+00 0. -1.
         11    1    4    4    0    0  0.16584624626E+00  0.32209627016E+02 -0.48940216896E+02  0.58588671322E+02  0.00000000000E+00 0.  1.
        -13    1    3    3    0    0  0.10018911223E+02 -0.43659100349E+02 -0.30369671839E+02  0.54118505088E+02  0.00000000000E+00 0. -1.
         13    1    3    3    0    0 -0.10161385394E+02  0.36325315752E+02 -0.81850782721E+02  0.90123986539E+02  0.00000000000E+00 0.  1.
          1    1    1    2  501    0  0.43416436075E+02  0.28331148146E+02 -0.13156039747E+03  0.14140643217E+03  0.00000000000E+00 0. -1.
<scales pt_clust_5="13000.00000" pt_clust_6="13000.00000" pt_clust_7="13000.00000" pt_clust_8="13000.00000" pt_clust_9="51.84246"></scales>
<clustering>
<clus scale="   51.842">  2  9  1 -1</clus>
<clus scale="   90.325">  7  8 -1 -1</clus>
<clus scale="   90.644">  5  6 -1 -1</clus>
<clus scale="   91.722">  1  7  2 -1</clus>
<clus scale="   51.842">  2  5  1 -1</clus>
</clustering>
</event>
<event>
 9    1  0.1321469E-005  0.1016233E+03  0.7546771E-02  0.1277358E+00
         21   -1    0    0  501  502  0.00000000000E+00  0.00000000000E+00  0.48074077339E+03  0.48074077339E+03  0.00000000000E+00 0.  1.
          3   -1    0    0  502    0 -0.00000000000E+00 -0.00000000000E+00 -0.29610879957E+02  0.29610879957E+02  0.00000000000E+00 0. -1.
         23    2    1    2    0    0 -0.12859085043E+02 -0.38688812542E+02  0.13745485873E+03  0.17015193067E+03  0.91627839862E+02 0.  0.
         23    2    1    2    0    0  0.34867482001E+02  0.39431331863E+02  0.28732624817E+03  0.30586054064E+03  0.90684762761E+02 0.  0.
        -11    1    3    3    0    0  0.37977217710E+02 -0.29540068916E+02  0.57646065079E+02  0.75086307378E+02  0.00000000000E+00 0.  1.
         11    1    3    3    0    0 -0.50836302754E+02 -0.91487436266E+01  0.79808793650E+02  0.95065623290E+02  0.00000000000E+00 0. -1.
        -13    1    4    4    0    0 -0.14084125321E+02  0.33679052783E+02  0.42068595396E+02  0.55699263021E+02  0.00000000000E+00 0.  1.
         13    1    4    4    0    0  0.48951607322E+02  0.57522790800E+01  0.24525765278E+03  0.25016127762E+03  0.00000000000E+00 0. -1.
          3    1    1    2  501    0 -0.22008396958E+02 -0.74251932081E+00  0.26348786534E+02  0.34339182043E+02  0.00000000000E+00 0. -1.
<scales pt_clust_5="13000.00000" pt_clust_6="13000.00000" pt_clust_7="13000.00000" pt_clust_8="13000.00000" pt_clust_9="22.02093"></scales>
<clustering>
<clus scale="   22.021">  1  9  2 -1</clus>
<clus scale="   90.685">  7  8 -1 -1</clus>
<clus scale="   91.628">  5  6 -1 -1</clus>
<clus scale="  100.774">  1  7  2 -1</clus>
<clus scale="   22.021">  1  5  2 -1</clus>
</clustering>
</event>
<event>
 9    1  0.1321469E-005  0.1161472E+03  0.7546771E-02  0.1249852E+00
         21   -1    0    0  501  502  0.00000000000E+00  0.00000000000E+00  0.26551492633E+03  0.26551492633E+03  0.00000000000E+00 0.  1.
         -2   -1    0    0    0  501 -0.00000000000E+00 -0.00000000000E+00 -0.45730280720E+03  0.45730280720E+03  0.00000000000E+00 0.  1.
         23    2    1    2    0    0  0.75837381887E+02  0.18439663947E+02 -0.35766173680E+03  0.37805493092E+03  0.94404889296E+02 0.  0.
         23    2    1    2    0    0 -0.31647643076E+02 -0.12745345882E+02 -0.57975952281E+02  0.11652193222E+03  0.95142695421E+02 0.  0.
        -11    1    3    3    0    0  0.52474499288E+02 -0.29777389579E+02 -0.25738183502E+03  0.26435898888E+03  0.00000000000E+00 0.  1.
         11    1    3    3    0    0  0.23362882599E+02  0.48217053527E+02 -0.10027990179E+03  0.11369594204E+03  0.00000000000E+00 0. -1.
        -13    1    4    4    0    0 -0.47446962500E+02  0.28594403753E+02 -0.22460146566E+02  0.59777189297E+02  0.00000000000E+00 0. -1.
         13    1    4    4    0    0  0.15799319424E+02 -0.41339749635E+02 -0.35515805715E+02  0.56744742926E+02  0.00000000000E+00 0.  1.
         -2    1    1    2    0  502 -0.44189738810E+02 -0.56943180654E+01  0.22384980822E+03  0.22824087038E+03  0.00000000000E+00 0.  1.
<scales pt_clust_5="13000.00000" pt_clust_6="13000.00000" pt_clust_7="13000.00000" pt_clust_8="13000.00000" pt_clust_9="44.55512"></scales>
<clustering>
<clus scale="   44.555">  1  9  2 -1</clus>
<clus scale="   94.405">  5  6 -1 -1</clus>
<clus scale="   95.143">  7  8 -1 -1</clus>
<clus scale="  115.544">  2  5  1 -1</clus>
<clus scale="   44.555">  1  5  2 -1</clus>
</clustering>
</event>
<event>
 9    1  0.1321469E-005  0.1095239E+03  0.7546771E-02  0.1261858E+00
         -4   -1    0    0    0  501 -0.00000000000E+00  0.00000000000E+00  0.72105489329E+02  0.72105489329E+02  0.00000000000E+00 0.  1.
         21   -1    0    0  501  502  0.00000000000E+00 -0.00000000000E+00 -0.30185103714E+03  0.30185103714E+03  0.00000000000E+00 0. -1.
         23    2    1    2    0    0  0.14342462600E+01  0.80733094825E+02 -0.38775917422E+02  0.12638517272E+03  0.89161373081E+02 0.  0.
         23    2    1    2    0    0 -0.25341354469E+02 -0.38814228388E+02 -0.84122471010E+02  0.13033204015E+03  0.88097230310E+02 0.  0.
        -11    1    3    3    0    0 -0.25870213544E+02  0.65944061897E+02  0.68796328920E+01  0.71170335091E+02  0.00000000000E+00 0.  1.
         11    1    3    3    0    0  0.27304459804E+02  0.14789032928E+02 -0.45655550314E+02  0.55214837631E+02  0.00000000000E+00 0. -1.
        -13    1    4    4    0    0 -0.35571313049E+02  0.17898868352E+02 -0.47793043054E+02  0.62208221038E+02  0.00000000000E+00 0.  1.
         13    1    4    4    0    0  0.10229958580E+02 -0.56713096740E+02 -0.36329427956E+02  0.68123819109E+02  0.00000000000E+00 0. -1.
         -4    1    1    2    0  502  0.23907108209E+02 -0.41918866437E+02 -0.10684715938E+03  0.11723931360E+03  0.00000000000E+00 0.  1.
<scales pt_clust_5="13000.00000" pt_clust_6="13000.00000" pt_clust_7="13000.00000" pt_clust_8="13000.00000" pt_clust_9="48.25703"></scales>
<clustering>
<clus scale="   48.257">  2  9  1 -1</clus>
<clus scale="   88.097">  7  8 -1 -1</clus>
<clus scale="   89.161">  5  6 -1 -1</clus>
<clus scale="  108.659">  2  7  1 -1</clus>
<clus scale="   48.257">  2  5  1 -1</clus>
</clustering>
</event>
<event>
 9    1  0.1321469E-005  0.1241759E+03  0.7546771E-02  0.1236473E+00
          1   -1    0    0  502    0 -0.00000000000E+00  0.00000000000E+00  0.76550948279E+03  0.76550948279E+03  0.00000000000E+00 0. -1.
         21   -1    0    0  501  502  0.00000000000E+00 -0.00000000000E+00 -0.88447015233E+02  0.88447015233E+02  0.00000000000E+00 0. -1.
         23    2    1    2    0    0 -0.97996665447E+01 -0.85998169072E+02  0.61231444047E+03  0.62521926674E+03  0.92078439049E+02 0.  0.
         23    2    1    2    0    0  0.41386437486E+02  0.64843212208E+02  0.11482453361E+03  0.16586503709E+03  0.91700914017E+02 0.  0.
        -13    1    3    3    0    0 -0.27060258381E+02  0.42295264769E+01  0.69783470244E+02  0.74965853541E+02  0.00000000000E+00 0.  1.
         13    1    3    3    0    0  0.17260591836E+02 -0.90227695548E+02  0.54253097023E+03  0.55025341320E+03  0.00000000000E+00 0. -1.
        -13    1    4    4    0    0 -0.29359326918E+02  0.23425254006E+02  0.40064024427E+02  0.54916651897E+02  0.00000000000E+00 0.  1.
         13    1    4    4    0    0  0.70745764404E+02  0.41417958201E+02  0.74760509184E+02  0.11094838519E+03  0.00000000000E+00 0. -1.
          1    1    1    2  501    0 -0.31586770941E+02  0.21154956864E+02 -0.50076506524E+02  0.62872194205E+02  0.00000000000E+00 0. -1.
<scales pt_clust_5="13000.00000" pt_clust_6="13000.00000" pt_clust_7="13000.00000" pt_clust_8="13000.00000" pt_clust_9="38.01653"></scales>
<clustering>
<clus scale="   38.017">  2  9  1 -1</clus>
<clus scale="   91.701">  7  8 -1 -1</clus>
<clus scale="   92.078">  5  6 -1 -1</clus>
<clus scale="  123.896">  2  7  1 -1</clus>
<clus scale="   38.017">  2  5  1 -1</clus>
</clustering>
</event>
<event>
 9    1  0.1321469E-005  0.1107780E+03  0.7546771E-02  0.1261158E+00
         21   -1    0    0  501  502  0.00000000000E+00  0.00000000000E+00  0.15818562692E+03  0.15818562692E+03  0.00000000000E+00 0.  1.
         -3   -1    0    0    0  501 -0.00000000000E+00 -0.00000000000E+00 -0.22576594726E+03  0.22576594726E+03  0.00000000000E+00 0.  1.
         23    2    1    2    0    0  0.19719824423E+02  0.37665083523E+02 -0.13945813298E+03  0.17732575845E+03  0.10093722685E+03 0.  0.
         23    2    1    2    0    0 -0.49499184988E+02 -0.31815851401E+02 -0.15789467332E+02  0.11385418317E+03  0.96182379007E+02 0.  0.
        -13    1    4    4    0    0  0.55710793080E+01 -0.52235547438E+02  0.17380263234E+01  0.52560537253E+02  0.00000000000E+00 0. -1.
         13    1    4    4    0    0 -0.55070264296E+02  0.20419696036E+02 -0.17527493655E+02  0.61293645916E+02  0.00000000000E+00 0.  1.
        -13    1    3    3    0    0  0.52727482659E+02  0.47098418778E+02 -0.68216009982E+02  0.98243943817E+02  0.00000000000E+00 0. -1.
         13    1    3    3    0    0 -0.33007658236E+02 -0.94333352546E+01 -0.71242122996E+02  0.79081814630E+02  0.00000000000E+00 0.  1.
         -3    1    1    2    0  502  0.29779360565E+02 -0.58492321216E+01  0.87667279973E+02  0.92771632571E+02  0.00000000000E+00 0.  1.
<scales pt_clust_5="13000.00000" pt_clust_6="13000.00000" pt_clust_7="13000.00000" pt_clust_8="13000.00000" pt_clust_9="30.34837"></scales>
<clustering>
<clus scale="   30.348">  1  9  2 -1</clus>
<clus scale="   96.182">  5  6 -1 -1</clus>
<clus scale="  100.937">  7  8 -1 -1</clus>
<clus scale="  106.464">  1  5  2 -1</clus>
<clus scale="   30.348">  1  5  2 -1</clus>
</clustering>
</event>
<event>
 9    1  0.1321469E-005  0.9487028E+02  0.7546771E-02  0.1292083E+00
         21   -1    0    0  501  502  0.00000000000E+00  0.00000000000E+00  0.30746041441E+03  0.30746041441E+03  0.00000000000E+00 0. -1.
         -1   -1    0    0    0  501 -0.00000000000E+00 -0.00000000000E+00 -0.61706188508E+02  0.61706188508E+02  0.00000000000E+00 0.  1.
         23    2    1    2    0    0 -0.26585248696E+01  0.19611961541E+02  0.17792888657E+02  0.94766862660E+02  0.90953144980E+02 0.  0.
         23    2    1    2    0    0  0.79021829669E+01 -0.40104932582E+02  0.86091224545E+02  0.13096129810E+03  0.89823786061E+02 0.  0.
        -13    1    4    4    0    0  0.20981158336E+02  0.24179565049E+02  0.19502563172E+02  0.37486135322E+02  0.00000000000E+00 0.  1.
         13    1    4    4    0    0 -0.13078975369E+02 -0.64284497631E+02  0.66588661373E+02  0.93475162775E+02  0.00000000000E+00 0. -1.
        -13    1    3    3    0    0 -0.35861397592E+02  0.35614165406E+02  0.26249596721E+02  0.56951294479E+02  0.00000000000E+00 0.  1.
         13    1    3    3    0    0  0.33202872722E+02 -0.16002203865E+02 -0.84567080641E+01  0.37815568181E+02  0.00000000000E+00 0. -1.
         -1    1    1    2    0  502 -0.52436580973E+01  0.20492971041E+02  0.14187011270E+03  0.14343844216E+03  0.00000000000E+00 0.  1.
<scales pt_clust_5="13000.00000" pt_clust_6="13000.00000" pt_clust_7="13000.00000" pt_clust_8="13000.00000" pt_clust_9="21.15320"></scales>
<clustering>
<clus scale="   21.153">  1  9  2 -1</clus>
<clus scale="   89.824">  5  6 -1 -1</clus>
<clus scale="   90.953">  7  8 -1 -1</clus>
<clus scale="   93.788">  1  5  2 -1</clus>
<clus scale="   21.153">  1  5  2 -1</clus>
</clustering>
</event>
<event>
 9    1  0.1321469E-005  0.1475920E+03  0.7546771E-02  0.1213064E+00
         21   -1    0    0  501  502  0.00000000000E+00  0.00000000000E+00  0.31649573046E+03  0.31649573046E+03  0.00000000000E+00 0.  1.
         -1   -1    0    0    0  501 -0.00000000000E+00 -0.00000000000E+00 -0.23314373759E+03  0.23314373759E+03  0.00000000000E+00 0.  1.
         23    2    1    2    0    0 -0.11324482521E+03  0.39017217880E+02 -0.13320780071E+03  0.21845466459E+03  0.12502555171E+03 0.  0.
         23    2    1    2    0    0  0.33728069413E+02  0.79700680488E+01  0.18172568972E+01  0.97421939531E+02  0.91030913586E+02 0.  0.
        -11    1    3    3    0    0 -0.76473335039E+02  0.80547793060E+02 -0.58879302034E+02  0.12570954676E+03  0.00000000000E+00 0.  1.
         11    1    3    3    0    0 -0.36771490174E+02 -0.41530575180E+02 -0.74328498681E+02  0.92745117826E+02  0.00000000000E+00 0. -1.
        -13    1    4    4    0    0  0.29189895532E+02 -0.39823808598E+02  0.19126748919E+01  0.49412994826E+02  0.00000000000E+00 0. -1.
         13    1    4    4    0    0  0.45381738806E+01  0.47793876647E+02 -0.95417994636E-01  0.48008944705E+02  0.00000000000E+00 0.  1.
         -1    1    1    2    0  502  0.79516755800E+02 -0.46987285929E+02  0.21474253669E+03  0.23376286393E+03  0.00000000000E+00 0.  1.
<scales pt_clust_5="13000.00000" pt_clust_6="13000.00000" pt_clust_7="13000.00000" pt_clust_8="13000.00000" pt_clust_9="92.36189"></scales>
<clustering>
<clus scale="   91.031">  7  8 -1 -1</clus>
<clus scale="   92.362">  1  9  2 -1</clus>
<clus scale="  120.161">  1  7  2 -1</clus>
<clus scale="  125.026">  5  6 -1 -1</clus>
<clus scale="   92.362">  1  5  2 -1</clus>
</clustering>
</event>
<event>
 9    1  0.1321469E-005  0.1050832E+03  0.7546771E-02  0.1270428E+00
          1   -1    0    0  502    0 -0.00000000000E+00  0.00000000000E+00  0.94174777876E+02  0.94174777876E+02  0.00000000000E+00 0. -1.
         21   -1    0    0  501  502  0.00000000000E+00 -0.00000000000E+00 -0.20422758954E+03  0.20422758954E+03  0.00000000000E+00 0. -1.
         23    2    1    2    0    0 -0.15006181211E+02  0.44501258820E+02  0.62803997040E+01  0.99554938632E+02  0.87556809412E+02 0.  0.
         23    2    1    2    0    0  0.34695685909E+02 -0.74456077385E+02 -0.63717534756E+02  0.13518129041E+03  0.86409252749E+02 0.  0.
        -11    1    4    4    0    0  0.23926379304E+02 -0.54844052101E+02  0.77107289009E+01  0.60330730293E+02  0.00000000000E+00 0. -1.
         11    1    4    4    0    0  0.10769306605E+02 -0.19612025284E+02 -0.71428263657E+02  0.74850560115E+02  0.00000000000E+00 0.  1.
        -13    1    3    3    0    0 -0.46054986263E+02  0.13067231864E+01  0.83451901794E+00  0.46081077539E+02  0.00000000000E+00 0.  1.
         13    1    3    3    0    0  0.31048805052E+02  0.43194535633E+02  0.54458806860E+01  0.53473861093E+02  0.00000000000E+00 0. -1.
          1    1    1    2  501    0 -0.19689504698E+02  0.29954818565E+02 -0.52615676616E+02  0.63666138380E+02  0.00000000000E+00 0. -1.
<scales pt_clust_5="13000.00000" pt_clust_6="13000.00000" pt_clust_7="13000.00000" pt_clust_8="13000.00000" pt_clust_9="35.84645"></scales>
<clustering>
<clus scale="   35.846">  2  9  1 -1</clus>
<clus scale="   86.409">  5  6 -1 -1</clus>
<clus scale="   87.557">  7  8 -1 -1</clus>
<clus scale="  104.129">  2  5  1 -1</clus>
<clus scale="   35.846">  2  5  1 -1</clus>
</clustering>
</event>
<event>
 9    1  0.1321469E-005  0.1033533E+03  0.7546771E-02  0.1279366E+00
         21   -1    0    0  501  502  0.00000000000E+00  0.00000000000E+00  0.48363063268E+02  0.48363063268E+02  0.00000000000E+00 0. -1.
          1   -1    0    0  502    0 -0.00000000000E+00 -0.00000000000E+00 -0.56887240429E+03  0.56887240429E+03  0.00000000000E+00 0. -1.
         23    2    1    2    0    0  0.19316603142E+02  0.54273703843E+02 -0.28946224609E+03  0.30780173467E+03  0.87377055741E+02 0.  0.
         23    2    1    2    0    0  0.60440498808E+01  0.57107779203E+00 -0.22830051065E+03  0.24894690358E+03  0.99078660521E+02 0.  0.
        -11    1    4    4    0    0  0.40580241172E+02 -0.31760744437E+02 -0.13047356170E+03  0.14028132863E+03  0.00000000000E+00 0.  1.
         11    1    4    4    0    0 -0.34536191291E+02  0.32331822229E+02 -0.97826948949E+02  0.10866557495E+03  0.00000000000E+00 0. -1.
        -13    1    3    3    0    0  0.30858005571E+02  0.71308779172E+02 -0.17455981791E+03  0.19107142257E+03  0.00000000000E+00 0. -1.
         13    1    3    3    0    0 -0.11541402429E+02 -0.17035075329E+02 -0.11490242818E+03  0.11673031210E+03  0.00000000000E+00 0.  1.
          1    1    1    2  501    0 -0.25360653023E+02 -0.54844781635E+02 -0.27465842835E+01  0.60486829307E+02  0.00000000000E+00 0. -1.
<scales pt_clust_5="13000.00000" pt_clust_6="13000.00000" pt_clust_7="13000.00000" pt_clust_8="13000.00000" pt_clust_9="60.42444"></scales>
<clustering>
<clus scale="   60.424">  1  9  2 -1</clus>
<clus scale="   87.377">  7  8 -1 -1</clus>
<clus scale="   92.196">  2  7  1 -1</clus>
<clus scale="   99.079">  5  6 -1 -1</clus>
<clus scale="   60.424">  1  5  2 -1</clus>
</clustering>
</event>
<event>
 9    1  0.1321469E-005  0.9854881E+02  0.7546771E-02  0.1284688E+00
         -1   -1    0    0    0  501 -0.00000000000E+00  0.00000000000E+00  0.18872436521E+03  0.18872436521E+03  0.00000000000E+00 0.  1.
         21   -1    0    0  501  502  0.00000000000E+00 -0.00000000000E+00 -0.88411250418E+02  0.88411250418E+02  0.00000000000E+00 0.  1.
         23    2    1    2    0    0 -0.37716871323E+02  0.41869078364E+02  0.82921445202E+02  0.13584691199E+03  0.91666980521E+02 0.  0.
         23    2    1    2    0    0  0.12068105070E+02  0.54100228986E+00  0.18253071022E+02  0.91718388283E+02  0.89068267660E+02 0.  0.
        -11    1    3    3    0    0 -0.51894554672E+02  0.11114629832E+02  0.86822210617E+02  0.10175792872E+03  0.00000000000E+00 0.  1.
         11    1    3    3    0    0  0.14177683350E+02  0.30754448532E+02 -0.39007654147E+01  0.34088983272E+02  0.00000000000E+00 0. -1.
        -13    1    4    4    0    0  0.11591007117E+02  0.43501729900E+02  0.18709952825E+02  0.48752582341E+02  0.00000000000E+00 0.  1.
         13    1    4    4    0    0  0.47709795315E+00 -0.42960727610E+02 -0.45688180237E+00  0.42965805941E+02  0.00000000000E+00 0. -1.
         -1    1    1    2    0  502  0.25648766253E+02 -0.42410080654E+02 -0.86140143689E+00  0.49570315349E+02  0.00000000000E+00 0.  1.
<scales pt_clust_5="13000.00000" pt_clust_6="13000.00000" pt_clust_7="13000.00000" pt_clust_8="13000.00000" pt_clust_9="49.56283"></scales>
<clustering>
<clus scale="   49.563">  2  9  1 -1</clus>
<clus scale="   89.068">  7  8 -1 -1</clus>
<clus scale="   91.667">  5  6 -1 -1</clus>
<clus scale="   96.136">  2  7  1 -1</clus>
<clus scale="   49.563">  2  5  1 -1</clus>
</clustering>
</event>
<event>
 9    1  0.1321469E-005  0.9992975E+02  0.7546771E-02  0.1280894E+00
         21   -1    0    0  501  502  0.00000000000E+00  0.00000000000E+00  0.45874855504E+02  0.45874855504E+02  0.00000000000E+00 0. -1.
          1   -1    0    0  502    0 -0.00000000000E+00 -0.00000000000E+00 -0.56258359439E+03  0.56258359439E+03  0.00000000000E+00 0. -1.
         23    2    1    2    0    0  0.21194486325E+02  0.34287698182E+02 -0.39820566094E+03  0.41086378278E+03  0.92824819408E+02 0.  0.
         23    2    1    2    0    0 -0.28177258811E+02 -0.15476248503E+02 -0.13847740552E+03  0.16928206368E+03  0.91907306914E+02 0.  0.
        -11    1    4    4    0    0  0.28573125637E+02  0.15712360365E+02 -0.45731454341E+02  0.56166428523E+02  0.00000000000E+00 0. -1.
         11    1    4    4    0    0 -0.56750384447E+02 -0.31188608868E+02 -0.92745951177E+02  0.11311563516E+03  0.00000000000E+00 0.  1.
        -13    1    3    3    0    0  0.45068242202E+02 -0.12640399746E+02 -0.14993161472E+03  0.15706818664E+03  0.00000000000E+00 0.  1.
         13    1    3    3    0    0 -0.23873755877E+02  0.46928097928E+02 -0.24827404622E+03  0.25379559614E+03  0.00000000000E+00 0. -1.
          1    1    1    2  501    0  0.69827724856E+01 -0.18811449679E+02  0.19974327577E+02  0.28312603426E+02  0.00000000000E+00 0. -1.
<scales pt_clust_5="13000.00000" pt_clust_6="13000.00000" pt_clust_7="13000.00000" pt_clust_8="13000.00000" pt_clust_9="20.06564"></scales>
<clustering>
<clus scale="   20.066">  1  9  2 -1</clus>
<clus scale="   91.907">  5  6 -1 -1</clus>
<clus scale="   92.825">  7  8 -1 -1</clus>
<clus scale="   99.078">  1  5  2 -1</clus>
<clus scale="   20.066">  1  5  2 -1</clus>
</clustering>
</event>
<event>
 9    1  0.1321469E-005  0.9740699E+02  0.7546771E-02  0.1288085E+00
          2   -1    0    0  502    0 -0.00000000000E+00  0.00000000000E+00  0.24860085858E+03  0.24860085858E+03  0.00000000000E+00 0. -1.
         21   -1    0    0  501  502  0.00000000000E+00 -0.00000000000E+00 -0.13977360298E+03  0.13977360298E+03  0.00000000000E+00 0. -1.
         23    2    1    2    0    0 -0.57020010700E+00  0.29370586687E+02  0.12865488609E+03  0.16320706251E+03  0.96028688659E+02 0.  0.
         23    2    1    2    0    0  0.12362595972E+02  0.23616378627E+01  0.78262583586E+02  0.12139994379E+03  0.91948372748E+02 0.  0.
        -11    1    3    3    0    0  0.21870482180E+02 -0.19966521581E+02  0.76020587709E+01  0.30574029378E+02  0.00000000000E+00 0.  1.
         11    1    3    3    0    0 -0.22440682287E+02  0.49337108268E+02  0.12105282732E+03  0.13263303313E+03  0.00000000000E+00 0. -1.
        -13    1    4    4    0    0  0.69625060482E+00 -0.32542520853E+02 -0.25016749286E+01  0.32645961554E+02  0.00000000000E+00 0.  1.
         13    1    4    4    0    0  0.11666345367E+02  0.34904158716E+02  0.80764258514E+02  0.88753982239E+02  0.00000000000E+00 0. -1.
          2    1    1    2  501    0 -0.11792395865E+02 -0.31732224549E+02 -0.98090214075E+02  0.10376745527E+03  0.00000000000E+00 0. -1.
<scales pt_clust_5="13000.00000" pt_clust_6="13000.00000" pt_clust_7="13000.00000" pt_clust_8="13000.00000" pt_clust_9="33.85254"></scales>
<clustering>
<clus scale="   33.853">  2  9  1 -1</clus>
<clus scale="   91.948">  7  8 -1 -1</clus>
<clus scale="   93.387">  2  7  1 -1</clus>
<clus scale="   96.029">  5  6 -1 -1</clus>
<clus scale="   33.853">  2  5  1 -1</clus>
</clustering>
</event>
<event>
 9    1  0.1321469E-005  0.9374950E+02  0.7546771E-02  0.1295274E+00
         21   -1    0    0  501  502  0.00000000000E+00  0.00000000000E+00  0.29364733825E+03  0.29364733825E+03  0.00000000000E+00 0.  1.
         -2   -1    0    0    0  501 -0.00000000000E+00 -0.00000000000E+00 -0.16323813227E+03  0.16323813227E+03  0.00000000000E+00 0.  1.
         23    2    1    2    0    0  0.27114094185E+02 -0.14376102767E+02 -0.11314662453E+03  0.14650023932E+03  0.87853941541E+02 0.  0.
         23    2    1    2    0    0 -0.52354351817E+02 -0.15826861710E+02  0.50573809762E+02  0.11343003325E+03  0.85540601489E+02 0.  0.
        -13    1    4    4    0    0 -0.45300390934E+02 -0.44162014884E+02  0.55082766329E+02  0.83883968217E+02  0.00000000000E+00 0.  1.
         13    1    4    4    0    0 -0.70539608829E+01  0.28335153173E+02 -0.45089565668E+01  0.29546065031E+02  0.00000000000E+00 0. -1.
        -13    1    3    3    0    0 -0.63308465089E+01  0.32316424362E+02 -0.58989496945E+02  0.67558801432E+02  0.00000000000E+00 0. -1.
         13    1    3    3    0    0  0.33444940694E+02 -0.46692527129E+02 -0.54157127584E+02  0.78941437889E+02  0.00000000000E+00 0.  1.
         -2    1    1    2    0  502  0.25240257632E+02  0.30202964477E+02  0.19298202075E+03  0.19695519796E+03  0.00000000000E+00 0.  1.
<scales pt_clust_5="13000.00000" pt_clust_6="13000.00000" pt_clust_7="13000.00000" pt_clust_8="13000.00000" pt_clust_9="39.36102"></scales>
<clustering>
<clus scale="   39.361">  1  9  2 -1</clus>
<clus scale="   85.541">  5  6 -1 -1</clus>
<clus scale="   87.854">  7  8 -1 -1</clus>
<clus scale="   91.585">  1  5  2 -1</clus>
<clus scale="   39.361">  1  5  2 -1</clus>
</clustering>
</event>
<event>
 9    1  0.1321469E-005  0.1601109E+03  0.7546771E-02  0.1212963E+00
         21   -1    0    0  501  502  0.00000000000E+00  0.00000000000E+00  0.55373374817E+03  0.55373374817E+03  0.00000000000E+00 0.  1.
          1   -1    0    0  502    0 -0.00000000000E+00 -0.00000000000E+00 -0.78694794018E+02  0.78694794018E+02  0.00000000000E+00 0. -1.
         23    2    1    2    0    0  0.92475489128E+01 -0.32395329766E+02  0.31084845458E+02  0.99314758534E+02  0.88103229759E+02 0.  0.
         23    2    1    2    0    0  0.12093811551E+03 -0.17048240665E+02  0.19096135178E+03  0.24432612996E+03  0.91172087910E+02 0.  0.
        -11    1    3    3    0    0  0.37337121942E+02 -0.45024087004E+02  0.45595582709E+01  0.58668719579E+02  0.00000000000E+00 0.  1.
         11    1    3    3    0    0 -0.28089573029E+02  0.12628757238E+02  0.26525287187E+02  0.40646038954E+02  0.00000000000E+00 0. -1.
        -11    1    4    4    0    0  0.22819545209E+02  0.98830308859E+01 -0.32468575667E+01  0.25078836239E+02  0.00000000000E+00 0. -1.
         11    1    4    4    0    0  0.98118570299E+02 -0.26931271551E+02  0.19420820935E+03  0.21924729372E+03  0.00000000000E+00 0.  1.
          1    1    1    2  501    0 -0.13018566442E+03  0.49443570432E+02  0.25299275691E+03  0.28878765369E+03  0.00000000000E+00 0. -1.
<scales pt_clust_5="13000.00000" pt_clust_6="13000.00000" pt_clust_7="13000.00000" pt_clust_8="13000.00000" pt_clust_9="131.61743"></scales>
<clustering>
<clus scale="   88.103">  5  6 -1 -1</clus>
<clus scale="   91.172">  7  8 -1 -1</clus>
<clus scale="   94.325">  2  5  1 -1</clus>
<clus scale="  131.617">  1  9  2 -1</clus>
<clus scale="  131.617">  1  5  2 -1</clus>
</clustering>
</event>
<event>
 9    1  0.1321469E-005  0.1005670E+03  0.7546771E-02  0.1279640E+00
         21   -1    0    0  501  502  0.00000000000E+00  0.00000000000E+00  0.11326529105E+03  0.11326529105E+03  0.00000000000E+00 0. -1.
         -3   -1    0    0    0  501 -0.00000000000E+00 -0.00000000000E+00 -0.32496151055E+03  0.32496151055E+03  0.00000000000E+00 0.  1.
         23    2    1    2    0    0 -0.28478912940E+02 -0.38776575270E+02 -0.20493465757E+03  0.22909194221E+03  0.90389340293E+02 0.  0.
         23    2    1    2    0    0 -0.16255597456E+02  0.47996863917E+02 -0.74927862921E+02  0.12708100674E+03  0.89260597347E+02 0.  0.
        -13    1    3    3    0    0 -0.57753767064E+02 -0.15118894374E+02 -0.15817025616E+03  0.16906184818E+03  0.00000000000E+00 0. -1.
         13    1    3    3    0    0  0.29274854124E+02 -0.23657680895E+02 -0.46764401416E+02  0.60030094029E+02  0.00000000000E+00 0.  1.
        -13    1    4    4    0    0  0.28066975437E+02  0.50205511886E+02 -0.34640067064E+02  0.67143747141E+02  0.00000000000E+00 0.  1.
         13    1    4    4    0    0 -0.44322572893E+02 -0.22086479692E+01 -0.40287795857E+02  0.59937259604E+02  0.00000000000E+00 0. -1.
         -3    1    1    2    0  502  0.44734510396E+02 -0.92202886472E+01  0.68166300997E+02  0.82053852650E+02  0.00000000000E+00 0.  1.
<scales pt_clust_5="13000.00000" pt_clust_6="13000.00000" pt_clust_7="13000.00000" pt_clust_8="13000.00000" pt_clust_9="45.67483"></scales>
<clustering>
<clus scale="   45.675">  1  9  2 -1</clus>
<clus scale="   89.261">  7  8 -1 -1</clus>
<clus scale="   90.389">  5  6 -1 -1</clus>
<clus scale="   99.554">  1  7  2 -1</clus>
<clus scale="   45.675">  1  5  2 -1</clus>
</clustering>
</event>
<event>
 9    1  0.1321469E-005  0.9882006E+02  0.7546771E-02  0.1284890E+00
          2   -1    0    0  502    0 -0.00000000000E+00  0.00000000000E+00  0.28745988750E+03  0.28745988750E+03  0.00000000000E+00 0. -1.
         21   -1    0    0  501  502  0.00000000000E+00 -0.00000000000E+00 -0.13344004034E+03  0.13344004034E+03  0.00000000000E+00 0. -1.
         23    2    1    2    0    0  0.40013442463E+02 -0.14343053478E+02  0.15493783610E+03  0.18327277581E+03  0.88183777064E+02 0.  0.
         23    2    1    2    0    0 -0.27726464888E+02 -0.79299695078E+01  0.96696129334E+02  0.13675310454E+03  0.92301835847E+02 0.  0.
        -13    1    3    3    0    0  0.27307640447E+02 -0.46975437482E+02  0.12811691122E+03  0.13916300476E+03  0.00000000000E+00 0. -1.
         13    1    3    3    0    0  0.12705802016E+02  0.32632384005E+02  0.26820924881E+02  0.44109771051E+02  0.00000000000E+00 0.  1.
        -13    1    4    4    0    0  0.29429963673E+02 -0.23019509424E+02  0.32967340273E+02  0.49828366425E+02  0.00000000000E+00 0. -1.
         13    1    4    4    0    0 -0.57156428561E+02  0.15089539916E+02  0.63728789061E+02  0.86924738112E+02  0.00000000000E+00 0.  1.
          2    1    1    2  501    0 -0.12286977575E+02  0.22273022985E+02 -0.97614118273E+02  0.10087404749E+03  0.00000000000E+00 0. -1.
<scales pt_clust_5="13000.00000" pt_clust_6="13000.00000" pt_clust_7="13000.00000" pt_clust_8="13000.00000" pt_clust_9="25.43732"></scales>
<clustering>
<clus scale="   25.437">  2  9  1 -1</clus>
<clus scale="   88.184">  5  6 -1 -1</clus>
<clus scale="   92.302">  7  8 -1 -1</clus>
<clus scale="   94.985">  1  5  2 -1</clus>
<clus scale="   25.437">  2  5  1 -1</clus>
</clustering>
</event>
<event>
 9    1  0.1321469E-005  0.2742818E+03  0.7546771E-02  0.1099401E+00
          1   -1    0    0  502    0 -0.00000000000E+00  0.00000000000E+00  0.15172931449E+04  0.15172931449E+04  0.00000000000E+00 0. -1.
         21   -1    0    0  501  502  0.00000000000E+00 -0.00000000000E+00 -0.12225873336E+03  0.12225873336E+03  0.00000000000E+00 0. -1.
         23    2    1    2    0    0  0.17449921709E+03  0.13935984621E+03  0.68726282544E+03  0.72873798188E+03  0.94115415881E+02 0.  0.
         23    2    1    2    0    0 -0.34500727388E+03 -0.17584377369E+03  0.44659699547E+03  0.59678166685E+03  0.82148826797E+02 0.  0.
        -11    1    3    3    0    0  0.64239362448E+01  0.19714525303E+02  0.15167772782E+02  0.25690286024E+02  0.00000000000E+00 0.  1.
         11    1    3    3    0    0  0.16807528084E+03  0.11964532091E+03  0.67209505265E+03  0.70304769586E+03  0.00000000000E+00 0. -1.
        -13    1    4    4    0    0 -0.28735931176E+03 -0.15200274054E+03  0.41404625375E+03  0.52641666713E+03  0.00000000000E+00 0. -1.
         13    1    4    4    0    0 -0.57647962124E+02 -0.23841033142E+02  0.32550741716E+02  0.70364999713E+02  0.00000000000E+00 0.  1.
          1    1    1    2  501    0  0.17050805679E+03  0.36483927473E+02  0.26117459065E+03  0.31403222955E+03  0.00000000000E+00 0. -1.
<scales pt_clust_5="13000.00000" pt_clust_6="13000.00000" pt_clust_7="13000.00000" pt_clust_8="13000.00000" pt_clust_9="174.36764"></scales>
<clustering>
<clus scale="   82.149">  7  8 -1 -1</clus>
<clus scale="   94.115">  5  6 -1 -1</clus>
<clus scale="  174.368">  2  9  1 -1</clus>
<clus scale="  270.409">  2  7  1 -1</clus>
<clus scale="  174.368">  2  5  1 -1</clus>
</clustering>
</event>
<event>
 9    1  0.1321469E-005  0.1332347E+03  0.7546771E-02  0.1223675E+00
         21   -1    0    0  501  502  0.00000000000E+00  0.00000000000E+00  0.13950543315E+03  0.13950543315E+03  0.00000000000E+00 0. -1.
          2   -1    0    0  502    0 -0.00000000000E+00 -0.00000000000E+00 -0.27249025245E+03  0.27249025245E+03  0.00000000000E+00 0. -1.
         23    2    1    2    0    0 -0.50163717549E+02 -0.91299544820E+02 -0.14677886939E+03  0.20014209159E+03  0.87526081151E+02 0.  0.
         23    2    1    2    0    0  0.26052170891E+02  0.83022699656E+02 -0.55640612513E+02  0.13788707984E+03  0.91353624770E+02 0.  0.
        -11    1    3    3    0    0 -0.50134535314E+01 -0.73465448523E+02 -0.12882177780E+03  0.14838246958E+03  0.00000000000E+00 0. -1.
         11    1    3    3    0    0 -0.45150264018E+02 -0.17834096297E+02 -0.17957091589E+02  0.51759622003E+02  0.00000000000E+00 0.  1.
        -11    1    4    4    0    0 -0.23512595350E+02  0.71244576106E+02 -0.36866687461E+02  0.83592968657E+02  0.00000000000E+00 0. -1.
         11    1    4    4    0    0  0.49564766241E+02  0.11778123550E+02 -0.18773925052E+02  0.54294111179E+02  0.00000000000E+00 0.  1.
          2    1    1    2  501    0  0.24111546659E+02  0.82768451648E+01  0.69434662605E+02  0.73966514175E+02  0.00000000000E+00 0. -1.
<scales pt_clust_5="13000.00000" pt_clust_6="13000.00000" pt_clust_7="13000.00000" pt_clust_8="13000.00000" pt_clust_9="25.49260"></scales>
<clustering>
<clus scale="   25.493">  1  9  2 -1</clus>
<clus scale="   87.526">  5  6 -1 -1</clus>
<clus scale="   91.354">  7  8 -1 -1</clus>
<clus scale="  130.640">  2  5  1 -1</clus>
<clus scale="   25.493">  1  5  2 -1</clus>
</clustering>
</event>
<event>
 9    1  0.1321469E-005  0.1179900E+03  0.7546771E-02  0.1247721E+00
         21   -1    0    0  501  502  0.00000000000E+00  0.00000000000E+00  0.81729485895E+02  0.81729485895E+02  0.00000000000E+00 0. -1.
          1   -1    0    0  502    0 -0.00000000000E+00 -0.00000000000E+00 -0.73456119286E+03  0.73456119286E+03  0.00000000000E+00 0. -1.
         23    2    1    2    0    0  0.26193093503E+02  0.76655198347E+02 -0.53711883698E+03  0.55055915319E+03  0.89758779713E+02 0.  0.
         23    2    1    2    0    0 -0.28526753152E+02 -0.43846164433E+02 -0.17076062782E+03  0.20160560011E+03  0.93538036116E+02 0.  0.
        -11    1    3    3    0    0 -0.22486250461E+02  0.67033632908E+02 -0.34173471105E+03  0.34897242318E+03  0.00000000000E+00 0.  1.
         11    1    3    3    0    0  0.48679343964E+02  0.96215654393E+01 -0.19538412593E+03  0.20158673001E+03  0.00000000000E+00 0. -1.
        -13    1    4    4    0    0 -0.26325233169E+02  0.10524705236E+02 -0.72291063367E+01  0.29258286008E+02  0.00000000000E+00 0. -1.
         13    1    4    4    0    0 -0.22015199832E+01 -0.54370869669E+02 -0.16353152148E+03  0.17234731410E+03  0.00000000000E+00 0.  1.
          1    1    1    2  501    0  0.23336596490E+01 -0.32809033914E+02  0.55047757835E+02  0.64125925463E+02  0.00000000000E+00 0. -1.
<scales pt_clust_5="13000.00000" pt_clust_6="13000.00000" pt_clust_7="13000.00000" pt_clust_8="13000.00000" pt_clust_9="32.89192"></scales>
<clustering>
<clus scale="   32.892">  1  9  2 -1</clus>
<clus scale="   89.759">  5  6 -1 -1</clus>
<clus scale="   93.538">  7  8 -1 -1</clus>
<clus scale="  115.017">  2  5  1 -1</clus>
<clus scale="   32.892">  1  5  2 -1</clus>
</clustering>
</event>
<event>
 9    1  0.1321469E-005  0.1032981E+03  0.7546771E-02  0.1275700E+00
         21   -1    0    0  501  502  0.00000000000E+00  0.00000000000E+00  0.29464708998E+02  0.29464708998E+02  0.00000000000E+00 0. -1.
          1   -1    0    0  502    0 -0.00000000000E+00 -0.00000000000E+00 -0.84762010306E+03  0.84762010306E+03  0.00000000000E+00 0. -1.
         23    2    1    2    0    0  0.17018929722E+02 -0.15432105336E+02 -0.32897692236E+03  0.34092737175E+03  0.86474640888E+02 0.  0.
         23    2    1    2    0    0 -0.87051552880E+02  0.37771075861E+02 -0.39690695784E+03  0.41818443416E+03  0.91315172672E+02 0.  0.
        -13    1    4    4    0    0 -0.99278685236E+02  0.10128226906E+02 -0.33016382364E+03  0.34491591549E+03  0.00000000000E+00 0. -1.
         13    1    4    4    0    0  0.12227132357E+02  0.27642848955E+02 -0.66743134202E+02  0.73268518663E+02  0.00000000000E+00 0.  1.
        -13    1    3    3    0    0  0.24898551690E+02 -0.46987107725E+02 -0.15319097662E+03  0.16215795228E+03  0.00000000000E+00 0.  1.
         13    1    3    3    0    0 -0.78796219672E+01  0.31555002389E+02 -0.17578594574E+03  0.17876941947E+03  0.00000000000E+00 0. -1.
          1    1    1    2  501    0  0.70032623157E+02 -0.22338970525E+02 -0.92271513862E+02  0.11797300615E+03  0.00000000000E+00 0. -1.
<scales pt_clust_5="13000.00000" pt_clust_6="13000.00000" pt_clust_7="13000.00000" pt_clust_8="13000.00000" pt_clust_9="73.50917"></scales>
<clustering>
<clus scale="   73.509">  1  9  2 -1</clus>
<clus scale="   86.475">  7  8 -1 -1</clus>
<clus scale="   91.315">  5  6 -1 -1</clus>
<clus scale="   99.045">  2  7  1 -1</clus>
<clus scale="   73.509">  1  5  2 -1</clus>
</clustering>
</event>
<event>
 9    1  0.1321469E-005  0.9468708E+02  0.7546771E-02  0.1293303E+00
         21   -1    0    0  501  502  0.00000000000E+00  0.00000000000E+00  0.21609022124E+03  0.21609022124E+03  0.00000000000E+00 0. -1.
         -1   -1    0    0    0  501 -0.00000000000E+00 -0.00000000000E+00 -0.78998020185E+02  0.78998020185E+02  0.00000000000E+00 0.  1.
         23    2    1    2    0    0 -0.19176550889E+02  0.67221380830E+01  0.41063842514E+01  0.94037345462E+02  0.91723675818E+02 0.  0.
         23    2    1    2    0    0 -0.10336710626E+02 -0.55583629874E+01  0.39184953983E+02  0.10270971007E+03  0.94212955254E+02 0.  0.
        -11    1    3    3    0    0 -0.37028239182E+02  0.38890554318E+02  0.14843731888E+02  0.55712674397E+02  0.00000000000E+00 0. -1.
         11    1    3    3    0    0  0.17851688293E+02 -0.32168416235E+02 -0.10737347637E+02  0.38324671065E+02  0.00000000000E+00 0.  1.
        -13    1    4    4    0    0  0.30510506517E+02 -0.51343417036E+01 -0.15377354340E+02  0.34550188120E+02  0.00000000000E+00 0.  1.
         13    1    4    4    0    0 -0.40847217143E+02 -0.42402128375E+00  0.54562308323E+02  0.68159521946E+02  0.00000000000E+00 0. -1.
         -1    1    1    2    0  502  0.29513261515E+02 -0.11637750956E+01  0.93800862824E+02  0.98341185900E+02  0.00000000000E+00 0.  1.
<scales pt_clust_5="13000.00000" pt_clust_6="13000.00000" pt_clust_7="13000.00000" pt_clust_8="13000.00000" pt_clust_9="29.53620"></scales>
<clustering>
<clus scale="   29.536">  1  9  2 -1</clus>
<clus scale="   91.724">  5  6 -1 -1</clus>
<clus scale="   92.211">  2  5  1 -1</clus>
<clus scale="   94.213">  7  8 -1 -1</clus>
<clus scale="   29.536">  1  5  2 -1</clus>
</clustering>
</event>
<event>
 9    1  0.1321469E-005  0.2214113E+03  0.7546771E-02  0.1133046E+00
         -3   -1    0    0    0  501 -0.00000000000E+00  0.00000000000E+00  0.24661903324E+03  0.24661903324E+03  0.00000000000E+00 0.  1.
         21   -1    0    0  501  502  0.00000000000E+00 -0.00000000000E+00 -0.70644383640E+03  0.70644383640E+03  0.00000000000E+00 0.  1.
         23    2    1    2    0    0  0.16497263690E+02  0.18124430284E+03  0.33776466339E+02  0.20770241231E+03  0.94222000523E+02 0.  0.
         23    2    1    2    0    0 -0.15888916644E+03 -0.28720795137E+03 -0.44660435994E+03  0.56175093064E+03  0.91512180663E+02 0.  0.
        -11    1    4    4    0    0 -0.11979201305E+03 -0.27303957053E+03 -0.37680406603E+03  0.48050186018E+03  0.00000000000E+00 0.  1.
         11    1    4    4    0    0 -0.39097153389E+02 -0.14168380840E+02 -0.69800293918E+02  0.81249070455E+02  0.00000000000E+00 0. -1.
        -13    1    3    3    0    0 -0.29782501016E+02  0.26524998684E+02 -0.84783926802E+01  0.40773227300E+02  0.00000000000E+00 0.  1.
         13    1    3    3    0    0  0.46279764707E+02  0.15471930415E+03  0.42254859019E+02  0.16692918501E+03  0.00000000000E+00 0. -1.
         -3    1    1    2    0  502  0.14239190275E+03  0.10596364853E+03 -0.46996909557E+02  0.18360952668E+03  0.00000000000E+00 0.  1.
<scales pt_clust_5="13000.00000" pt_clust_6="13000.00000" pt_clust_7="13000.00000" pt_clust_8="13000.00000" pt_clust_9="177.49304"></scales>
<clustering>
<clus scale="   91.512">  5  6 -1 -1</clus>
<clus scale="   94.222">  7  8 -1 -1</clus>
<clus scale="  177.493">  2  9  1 -1</clus>
<clus scale="  220.272">  2  5  1 -1</clus>
<clus scale="  177.493">  2  5  1 -1</clus>
</clustering>
</event>
<event>
 9    1  0.1321469E-005  0.1048203E+03  0.7546771E-02  0.1273487E+00
         21   -1    0    0  501  502  0.00000000000E+00  0.00000000000E+00  0.11134653658E+03  0.11134653658E+03  0.00000000000E+00 0. -1.
          2   -1    0    0  502    0 -0.00000000000E+00 -0.00000000000E+00 -0.22426543119E+03  0.22426543119E+03  0.00000000000E+00 0. -1.
         23    2    1    2    0    0 -0.15652261186E+02 -0.42980385192E+02 -0.14619937374E+03  0.18028400616E+03  0.95056610528E+02 0.  0.
         23    2    1    2    0    0 -0.20330683445E+02  0.45866010792E+02 -0.60978747323E+01  0.10190742349E+03  0.88492436119E+02 0.  0.
        -11    1    4    4    0    0  0.13054023918E+02  0.59000356998E+02  0.12182493538E+02  0.61643027304E+02  0.00000000000E+00 0. -1.
         11    1    4    4    0    0 -0.33384707363E+02 -0.13134346206E+02 -0.18280368270E+02  0.40264396184E+02  0.00000000000E+00 0.  1.
        -13    1    3    3    0    0  0.39673370330E+02 -0.22803984605E+02 -0.52811868472E+02  0.69879120477E+02  0.00000000000E+00 0.  1.
         13    1    3    3    0    0 -0.55325631516E+02 -0.20176400587E+02 -0.93387505267E+02  0.11040488569E+03  0.00000000000E+00 0. -1.
          2    1    1    2  501    0  0.35982944632E+02 -0.28856256005E+01  0.39378353861E+02  0.53420538113E+02  0.00000000000E+00 0. -1.
<scales pt_clust_5="13000.00000" pt_clust_6="13000.00000" pt_clust_7="13000.00000" pt_clust_8="13000.00000" pt_clust_9="36.09846"></scales>
<clustering>
<clus scale="   36.098">  1  9  2 -1</clus>
<clus scale="   88.492">  5  6 -1 -1</clus>
<clus scale="   95.057">  7  8 -1 -1</clus>
<clus scale="   98.906">  1  5  2 -1</clus>
<clus scale="   36.098">  1  5  2 -1</clus>
</clustering>
</event>
<event>
 9    1  0.1321469E-005  0.1176268E+03  0.7546771E-02  0.1248112E+00
          2   -1    0    0  502    0 -0.00000000000E+00  0.00000000000E+00  0.10803630310E+03  0.10803630310E+03  0.00000000000E+00 0. -1.
         21   -1    0    0  501  502  0.00000000000E+00 -0.00000000000E+00 -0.44119091955E+03  0.44119091955E+03  0.00000000000E+00 0. -1.
         23    2    1    2    0    0 -0.24389373217E+02  0.73331937598E+02  0.54552195708E+02  0.13326912717E+03  0.93873870710E+02 0.  0.
         23    2    1    2    0    0  0.18194999076E+01 -0.24335517339E+02 -0.28240740696E+03  0.29764489623E+03  0.90791039014E+02 0.  0.
        -11    1    3    3    0    0  0.33836993554E+02  0.13894171844E+02  0.63979575404E+01  0.37133866008E+02  0.00000000000E+00 0.  1.
         11    1    3    3    0    0 -0.58226366771E+02  0.59437765754E+02  0.48154238167E+02  0.96135261161E+02  0.00000000000E+00 0. -1.
        -13    1    4    4    0    0 -0.44401853720E+02 -0.93741663113E+01 -0.13152553307E+03  0.13913434320E+03  0.00000000000E+00 0. -1.
         13    1    4    4    0    0  0.46221353628E+02 -0.14961351028E+02 -0.15088187389E+03  0.15851055303E+03  0.00000000000E+00 0.  1.
          2    1    1    2  501    0  0.22569873309E+02 -0.48996420259E+02 -0.10529940521E+03  0.11831319925E+03  0.00000000000E+00 0. -1.
<scales pt_clust_5="13000.00000" pt_clust_6="13000.00000" pt_clust_7="13000.00000" pt_clust_8="13000.00000" pt_clust_9="53.94486"></scales>
<clustering>
<clus scale="   53.945">  2  9  1 -1</clus>
<clus scale="   90.791">  7  8 -1 -1</clus>
<clus scale="   93.874">  5  6 -1 -1</clus>
<clus scale="  115.181">  2  7  1 -1</clus>
<clus scale="   53.945">  2  5  1 -1</clus>
</clustering>
</event>
<event>
 9    1  0.1321469E-005  0.9671047E+02  0.7546771E-02  0.1287813E+00
         21   -1    0    0  501  502  0.00000000000E+00  0.00000000000E+00  0.88896199759E+02  0.88896199759E+02  0.00000000000E+00 0.  1.
          3   -1    0    0  502    0 -0.00000000000E+00 -0.00000000000E+00 -0.20110792995E+03  0.20110792995E+03  0.00000000000E+00 0. -1.
         23    2    1    2    0    0 -0.13340765719E+02  0.33528457616E+02 -0.91144871011E+02  0.13417021491E+03  0.91608545220E+02 0.  0.
         23    2    1    2    0    0  0.12873557434E+02 -0.11385161616E+02  0.32456319151E+02  0.97909183811E+02  0.90760372606E+02 0.  0.
        -11    1    3    3    0    0 -0.31461745581E+02 -0.12217981694E+02 -0.38589915351E+01  0.33970756944E+02  0.00000000000E+00 0. -1.
         11    1    3    3    0    0  0.18120979862E+02  0.45746439311E+02 -0.87285879476E+02  0.10019945797E+03  0.00000000000E+00 0.  1.
        -11    1    4    4    0    0 -0.36423840258E+02  0.60471644477E+01  0.10991445276E+01  0.36938766299E+02  0.00000000000E+00 0. -1.
         11    1    4    4    0    0  0.49297397692E+02 -0.17432326064E+02  0.31357174624E+02  0.60970417512E+02  0.00000000000E+00 0.  1.
          3    1    1    2  501    0  0.46720828474E+00 -0.22143296000E+02 -0.53523178330E+02  0.57924730987E+02  0.00000000000E+00 0. -1.
<scales pt_clust_5="13000.00000" pt_clust_6="13000.00000" pt_clust_7="13000.00000" pt_clust_8="13000.00000" pt_clust_9="22.14824"></scales>
<clustering>
<clus scale="   22.148">  1  9  2 -1</clus>
<clus scale="   90.760">  7  8 -1 -1</clus>
<clus scale="   91.609">  5  6 -1 -1</clus>
<clus scale="   95.907">  1  7  2 -1</clus>
<clus scale="   22.148">  1  5  2 -1</clus>
</clustering>
</event>
<event>
 9    1  0.1381895E-005  0.9700005E+02  0.7546771E-02  0.1287634E+00
         -3   -1    0    0    0  501 -0.00000000000E+00  0.00000000000E+00  0.22914780203E+03  0.22914780203E+03  0.00000000000E+00 0.  1.
         21   -1    0    0  501  502  0.00000000000E+00 -0.00000000000E+00 -0.19073472033E+03  0.19073472033E+03  0.00000000000E+00 0. -1.
         23    2    1    2    0    0 -0.30500118593E+02 -0.18030219457E+02  0.18133350755E+03  0.20553505191E+03  0.90041493508E+02 0.  0.
         23    2    1    2    0    0  0.42519895880E+01  0.13247124641E+02 -0.28844364346E+02  0.97192914069E+02  0.91765458992E+02 0.  0.
        -11    1    4    4    0    0  0.98507221107E+01 -0.25729993333E+02  0.20297573168E+02  0.34220765035E+02  0.00000000000E+00 0.  1.
         11    1    4    4    0    0 -0.55987325228E+01  0.38977117974E+02 -0.49141937514E+02  0.62972149035E+02  0.00000000000E+00 0. -1.
        -13    1    3    3    0    0 -0.73350259837E+01  0.36598489254E+02  0.65559355857E+02  0.75440580341E+02  0.00000000000E+00 0. -1.
         13    1    3    3    0    0 -0.23165092609E+02 -0.54628708711E+02  0.11577415170E+03  0.13009447157E+03  0.00000000000E+00 0.  1.
         -3    1    1    2    0  502  0.26248129005E+02  0.47830948166E+01 -0.11407606151E+03  0.11715455639E+03  0.00000000000E+00 0.  1.
<scales pt_clust_5="13000.00000" pt_clust_6="13000.00000" pt_clust_7="13000.00000" pt_clust_8="13000.00000" pt_clust_9="26.68037"></scales>
<clustering>
<clus scale="   26.680">  2  9  1 -1</clus>
<clus scale="   90.041">  7  8 -1 -1</clus>
<clus scale="   91.765">  5  6 -1 -1</clus>
<clus scale="   95.371">  1  7  2 -1</clus>
<clus scale="   26.680">  2  5  1 -1</clus>
</clustering>
</event>
<event>
 9    1  0.1321469E-005  0.1522826E+03  0.7546771E-02  0.1198504E+00
         21   -1    0    0  501  502  0.00000000000E+00  0.00000000000E+00  0.35408566630E+03  0.35408566630E+03  0.00000000000E+00 0.  1.
         -2   -1    0    0    0  501 -0.00000000000E+00 -0.00000000000E+00 -0.22048541577E+03  0.22048541577E+03  0.00000000000E+00 0.  1.
         23    2    1    2    0    0  0.86378615870E+02 -0.66859719940E+02 -0.82212944223E+02  0.16554568724E+03  0.93353730175E+02 0.  0.
         23    2    1    2    0    0 -0.10150355920E+03  0.96189868788E+02 -0.23548439721E+02  0.16739962302E+03  0.88953029098E+02 0.  0.
        -11    1    4    4    0    0 -0.93563009549E+02  0.40541729145E+02  0.91340147230E+01  0.10237723762E+03  0.00000000000E+00 0. -1.
         11    1    4    4    0    0 -0.79405496527E+01  0.55648139643E+02 -0.32682454444E+02  0.65022385399E+02  0.00000000000E+00 0.  1.
        -11    1    3    3    0    0  0.59215230451E+02  0.77609136270E+01 -0.15169095100E+02  0.61617990424E+02  0.00000000000E+00 0.  1.
         11    1    3    3    0    0  0.27163385418E+02 -0.74620633567E+02 -0.67043849123E+02  0.10392769682E+03  0.00000000000E+00 0. -1.
         -2    1    1    2    0  502  0.15124943332E+02 -0.29330148848E+02  0.23936163447E+03  0.24162577180E+03  0.00000000000E+00 0.  1.
<scales pt_clust_5="13000.00000" pt_clust_6="13000.00000" pt_clust_7="13000.00000" pt_clust_8="13000.00000" pt_clust_9="33.00033"></scales>
<clustering>
<clus scale="   33.000">  1  9  2 -1</clus>
<clus scale="   88.953">  5  6 -1 -1</clus>
<clus scale="   93.354">  7  8 -1 -1</clus>
<clus scale="  149.625">  1  5  2 -1</clus>
<clus scale="   33.000">  1  5  2 -1</clus>
</clustering>
</event>
<event>
 9    1  0.1321469E-005  0.1149206E+03  0.7546771E-02  0.1253288E+00
          3   -1    0    0  502    0 -0.00000000000E+00  0.00000000000E+00  0.36598297641E+03  0.36598297641E+03  0.00000000000E+00 0. -1.
         21   -1    0    0  501  502  0.00000000000E+00 -0.00000000000E+00 -0.88374636098E+02  0.88374636098E+02  0.00000000000E+00 0. -1.
         23    2    1    2    0    0  0.52310211851E+02 -0.36038069546E+02  0.20413184871E+03  0.23368994644E+03  0.94372022798E+02 0.  0.
         23    2    1    2    0    0 -0.41667283058E+02  0.57690937411E+02  0.12137005820E+03  0.16704013264E+03  0.90040591670E+02 0.  0.
        -11    1    3    3    0    0 -0.19720448596E+02 -0.18974924266E+02  0.16432710622E+02  0.31921432019E+02  0.00000000000E+00 0. -1.
         11    1    3    3    0    0  0.72030660447E+02 -0.17063145280E+02  0.18769913809E+03  0.20176851442E+03  0.00000000000E+00 0.  1.
        -13    1    4    4    0    0 -0.39837327803E+02  0.13873087462E+02  0.47548357425E+01  0.42450956469E+02  0.00000000000E+00 0.  1.
         13    1    4    4    0    0 -0.18299552546E+01  0.43817849949E+02  0.11661522245E+03  0.12458917617E+03  0.00000000000E+00 0. -1.
          3    1    1    2  501    0 -0.10642928794E+02 -0.21652867865E+02 -0.47893566599E+02  0.53627533429E+02  0.00000000000E+00 0. -1.
<scales pt_clust_5="13000.00000" pt_clust_6="13000.00000" pt_clust_7="13000.00000" pt_clust_8="13000.00000" pt_clust_9="24.12713"></scales>
<clustering>
<clus scale="   24.127">  2  9  1 -1</clus>
<clus scale="   90.041">  7  8 -1 -1</clus>
<clus scale="   94.372">  5  6 -1 -1</clus>
<clus scale="  111.391">  2  7  1 -1</clus>
<clus scale="   24.127">  2  5  1 -1</clus>
</clustering>
</event>
<event>
 9    1  0.1321469E-005  0.1588086E+03  0.7546771E-02  0.1192416E+00
         21   -1    0    0  501  502  0.00000000000E+00  0.00000000000E+00  0.30573108360E+02  0.30573108360E+02  0.00000000000E+00 0.  1.
          2   -1    0    0  502    0 -0.00000000000E+00 -0.00000000000E+00 -0.10142899422E+04  0.10142899422E+04  0.00000000000E+00 0. -1.
         23    2    1    2    0    0 -0.72425194197E+02  0.96442096773E+02 -0.49584975366E+03  0.51839465126E+03  0.91211564292E+02 0.  0.
         23    2    1    2    0    0  0.91247621136E+02 -0.79104437174E+02 -0.46699841014E+03  0.49344750312E+03  0.10401578210E+03 0.  0.
        -11    1    4    4    0    0  0.11276092033E+03 -0.52122098930E+02 -0.38278903101E+03  0.40244152446E+03  0.00000000000E+00 0.  1.
         11    1    4    4    0    0 -0.21513299192E+02 -0.26982338244E+02 -0.84209379130E+02  0.91005978665E+02  0.00000000000E+00 0. -1.
        -11    1    3    3    0    0 -0.65454443312E+02  0.32348985403E+02 -0.36841039637E+03  0.37557550660E+03  0.00000000000E+00 0. -1.
         11    1    3    3    0    0 -0.69707508856E+01  0.64093111369E+02 -0.12743935729E+03  0.14281914465E+03  0.00000000000E+00 0.  1.
          2    1    1    2  501    0 -0.18822426939E+02 -0.17337659598E+02 -0.20868670083E+02  0.33020896221E+02  0.00000000000E+00 0. -1.
<scales pt_clust_5="13000.00000" pt_clust_6="13000.00000" pt_clust_7="13000.00000" pt_clust_8="13000.00000" pt_clust_9="25.59059"></scales>
<clustering>
<clus scale="   25.591">  1  9  2 -1</clus>
<clus scale="   91.212">  7  8 -1 -1</clus>
<clus scale="  104.016">  5  6 -1 -1</clus>
<clus scale="  150.733">  2  7  1 -1</clus>
<clus scale="   25.591">  1  5  2 -1</clus>
</clustering>
</event>
<event>
 9    1  0.1321469E-005  0.1039456E+03  0.7546771E-02  0.1273616E+00
          2   -1    0    0  502    0 -0.00000000000E+00  0.00000000000E+00  0.42231557309E+03  0.42231557309E+03  0.00000000000E+00 0. -1.
         21   -1    0    0  501  502  0.00000000000E+00 -0.00000000000E+00 -0.40269560461E+02  0.40269560461E+02  0.00000000000E+00 0.  1.
         23    2    1    2    0    0  0.46192106996E+02 -0.21080926058E+02  0.23342673475E+03  0.25510505394E+03  0.89512188304E+02 0.  0.
         23    2    1    2    0    0 -0.63483157996E+02 -0.11229474906E+02  0.10372924336E+03  0.14953132938E+03  0.86276590575E+02 0.  0.
        -11    1    4    4    0    0 -0.20766237086E+02  0.37032095562E+02  0.50225773680E+02  0.65766564805E+02  0.00000000000E+00 0.  1.
         11    1    4    4    0    0 -0.42716920910E+02 -0.48261570468E+02  0.53503469680E+02  0.83764764572E+02  0.00000000000E+00 0. -1.
        -13    1    3    3    0    0  0.72000310981E+02 -0.52088971028E+01  0.15346598898E+03  0.16959654231E+03  0.00000000000E+00 0.  1.
         13    1    3    3    0    0 -0.25808203984E+02 -0.15872028955E+02  0.79960745768E+02  0.85508511622E+02  0.00000000000E+00 0. -1.
          2    1    1    2  501    0  0.17291051000E+02  0.32310400964E+02  0.44890034519E+02  0.57948750239E+02  0.00000000000E+00 0. -1.
<scales pt_clust_5="13000.00000" pt_clust_6="13000.00000" pt_clust_7="13000.00000" pt_clust_8="13000.00000" pt_clust_9="36.64618"></scales>
<clustering>
<clus scale="   36.646">  2  9  1 -1</clus>
<clus scale="   86.277">  5  6 -1 -1</clus>
<clus scale="   89.512">  7  8 -1 -1</clus>
<clus scale="  101.173">  2  5  1 -1</clus>
<clus scale="   36.646">  2  5  1 -1</clus>
</clustering>
</event>
<event>
 9    1  0.1321469E-005  0.2068557E+03  0.7546771E-02  0.1144091E+00
         21   -1    0    0  501  502  0.00000000000E+00  0.00000000000E+00  0.32778224551E+03  0.32778224551E+03  0.00000000000E+00 0. -1.
          2   -1    0    0  502    0 -0.00000000000E+00 -0.00000000000E+00 -0.19623911080E+03  0.19623911080E+03  0.00000000000E+00 0. -1.
         23    2    1    2    0    0  0.13460272158E+03 -0.13977257364E+03 -0.13604927224E+02  0.21438037718E+03  0.90108751381E+02 0.  0.
         23    2    1    2    0    0 -0.16467497643E+03  0.75225802349E+02  0.11147526605E+03  0.23087243606E+03  0.89992097396E+02 0.  0.
        -11    1    3    3    0    0  0.23718067058E+02  0.96215169919E+01  0.86231115945E+01  0.27008856839E+02  0.00000000000E+00 0.  1.
         11    1    3    3    0    0  0.11088465452E+03 -0.14939409063E+03 -0.22228038819E+02  0.18737152034E+03  0.00000000000E+00 0. -1.
        -13    1    4    4    0    0 -0.13504775731E+03  0.18660873214E+02  0.60434023590E+02  0.14912543763E+03  0.00000000000E+00 0. -1.
         13    1    4    4    0    0 -0.29627219123E+02  0.56564929134E+02  0.51041242455E+02  0.81746998430E+02  0.00000000000E+00 0.  1.
          2    1    1    2  501    0  0.30072254849E+02  0.64546771291E+02  0.33672795889E+02  0.78768543078E+02  0.00000000000E+00 0. -1.
<scales pt_clust_5="13000.00000" pt_clust_6="13000.00000" pt_clust_7="13000.00000" pt_clust_8="13000.00000" pt_clust_9="71.20833"></scales>
<clustering>
<clus scale="   71.208">  1  9  2 -1</clus>
<clus scale="   89.992">  7  8 -1 -1</clus>
<clus scale="   90.109">  5  6 -1 -1</clus>
<clus scale="  206.805">  1  7  2 -1</clus>
<clus scale="   71.208">  1  5  2 -1</clus>
</clustering>
</event>
<event>
 9    1  0.1321469E-005  0.1077261E+03  0.7546771E-02  0.1265333E+00
         -1   -1    0    0    0  501 -0.00000000000E+00  0.00000000000E+00  0.99833657939E+02  0.99833657939E+02  0.00000000000E+00 0.  1.
         21   -1    0    0  501  502  0.00000000000E+00 -0.00000000000E+00 -0.52862989180E+03  0.52862989180E+03  0.00000000000E+00 0.  1.
         23    2    1    2    0    0  0.17976949628E+02  0.28117524611E+01 -0.32393358005E+02  0.10056667510E+03  0.93451858348E+02 0.  0.
         23    2    1    2    0    0 -0.55395698214E+02 -0.83056960354E+02 -0.15478588325E+02  0.13681789416E+03  0.92262708733E+02 0.  0.
        -13    1    3    3    0    0  0.29676048153E+02  0.29956215577E+02 -0.50588028809E+02  0.65857356040E+02  0.00000000000E+00 0. -1.
         13    1    3    3    0    0 -0.11699098525E+02 -0.27144463116E+02  0.18194670805E+02  0.34709319064E+02  0.00000000000E+00 0.  1.
        -13    1    4    4    0    0 -0.76156144165E+02 -0.84606807757E+02 -0.19835187791E+02  0.11554871219E+03  0.00000000000E+00 0.  1.
         13    1    4    4    0    0  0.20760445952E+02  0.15498474032E+01  0.43565994663E+01  0.21269181977E+02  0.00000000000E+00 0. -1.
         -1    1    1    2    0  502  0.37418748586E+02  0.80245207893E+02 -0.38092428753E+03  0.39107898047E+03  0.00000000000E+00 0.  1.
<scales pt_clust_5="13000.00000" pt_clust_6="13000.00000" pt_clust_7="13000.00000" pt_clust_8="13000.00000" pt_clust_9="88.54070"></scales>
<clustering>
<clus scale="   88.541">  2  9  1 -1</clus>
<clus scale="   92.263">  7  8 -1 -1</clus>
<clus scale="   93.452">  5  6 -1 -1</clus>
<clus scale="  106.696">  2  7  1 -1</clus>
<clus scale="   88.541">  2  5  1 -1</clus>
</clustering>
</event>
<event>
 9    1  0.1321469E-005  0.2570213E+03  0.7546771E-02  0.1109666E+00
         21   -1    0    0  501  502  0.00000000000E+00  0.00000000000E+00  0.89759954229E+03  0.89759954229E+03  0.00000000000E+00 0.  1.
         -2   -1    0    0    0  501 -0.00000000000E+00 -0.00000000000E+00 -0.14697216940E+03  0.14697216940E+03  0.00000000000E+00 0.  1.
         23    2    1    2    0    0 -0.10294616179E+03 -0.25330255880E+03  0.78820716968E+02  0.30377506631E+03  0.10633196587E+03 0.  0.
         23    2    1    2    0    0  0.91760299650E+02  0.12042864343E+03  0.40237418154E+03  0.44017319461E+03  0.94469299412E+02 0.  0.
        -13    1    4    4    0    0  0.74444221092E+02  0.13597778612E+03  0.34322649090E+03  0.37661163607E+03  0.00000000000E+00 0. -1.
         13    1    4    4    0    0  0.17316078557E+02 -0.15549142690E+02  0.59147690646E+02  0.63561558538E+02  0.00000000000E+00 0.  1.
        -13    1    3    3    0    0 -0.70677992093E+02 -0.21735312277E+03  0.10189412640E+03  0.25024022766E+03  0.00000000000E+00 0.  1.
         13    1    3    3    0    0 -0.32268169702E+02 -0.35949436028E+02 -0.23073409430E+02  0.53534838651E+02  0.00000000000E+00 0. -1.
         -2    1    1    2    0  502  0.11185862145E+02  0.13287391537E+03  0.26943247438E+03  0.30062345076E+03  0.00000000000E+00 0.  1.
<scales pt_clust_5="13000.00000" pt_clust_6="13000.00000" pt_clust_7="13000.00000" pt_clust_8="13000.00000" pt_clust_9="133.34392"></scales>
<clustering>
<clus scale="   94.469">  5  6 -1 -1</clus>
<clus scale="  106.332">  7  8 -1 -1</clus>
<clus scale="  133.344">  1  9  2 -1</clus>
<clus scale="  252.345">  1  5  2 -1</clus>
<clus scale="  133.344">  1  5  2 -1</clus>
</clustering>
</event>
<event>
 9    1  0.1321469E-005  0.1639145E+03  0.7546771E-02  0.1192332E+00
         21   -1    0    0  501  502  0.00000000000E+00  0.00000000000E+00  0.89330622534E+03  0.89330622534E+03  0.00000000000E+00 0. -1.
         -3   -1    0    0    0  501 -0.00000000000E+00 -0.00000000000E+00 -0.56925851674E+02  0.56925851674E+02  0.00000000000E+00 0.  1.
         23    2    1    2    0    0 -0.52892180999E+02 -0.89131881415E+02  0.16460268399E+03  0.21438688263E+03  0.90142203052E+02 0.  0.
         23    2    1    2    0    0 -0.64378977182E+01  0.11860030044E+03  0.63841021590E+03  0.66167084392E+03  0.12701662939E+03 0.  0.
        -11    1    4    4    0    0  0.56475197496E+02  0.40437199556E+02  0.33416199204E+03  0.34130463220E+03  0.00000000000E+00 0.  1.
         11    1    4    4    0    0 -0.62913095214E+02  0.78163100881E+02  0.30424822386E+03  0.32036621172E+03  0.00000000000E+00 0. -1.
        -11    1    3    3    0    0 -0.75008398854E+02 -0.43827318496E+02  0.10746058101E+03  0.13818418946E+03  0.00000000000E+00 0. -1.
         11    1    3    3    0    0  0.22116217855E+02 -0.45304562919E+02  0.57142102982E+02  0.76202693172E+02  0.00000000000E+00 0.  1.
         -3    1    1    2    0  502  0.59330078717E+02 -0.29468419022E+02  0.33367473773E+02  0.74174350461E+02  0.00000000000E+00 0.  1.
<scales pt_clust_5="13000.00000" pt_clust_6="13000.00000" pt_clust_7="13000.00000" pt_clust_8="13000.00000" pt_clust_9="66.24538"></scales>
<clustering>
<clus scale="   66.245">  1  9  2 -1</clus>
<clus scale="   90.142">  7  8 -1 -1</clus>
<clus scale="  127.017">  5  6 -1 -1</clus>
<clus scale="  137.333">  2  7  1 -1</clus>
<clus scale="   66.245">  1  5  2 -1</clus>
</clustering>
</event>
<event>
 9    1  0.1321469E-005  0.1115143E+03  0.7546771E-02  0.1260442E+00
          4   -1    0    0  502    0 -0.00000000000E+00  0.00000000000E+00  0.49739066741E+03  0.49739066741E+03  0.00000000000E+00 0. -1.
         21   -1    0    0  501  502  0.00000000000E+00 -0.00000000000E+00 -0.52155309997E+02  0.52155309997E+02  0.00000000000E+00 0. -1.
         23    2    1    2    0    0  0.53714745931E+01  0.51678826015E+02  0.23948273831E+03  0.26164316599E+03  0.91682116921E+02 0.  0.
         23    2    1    2    0    0 -0.75775939028E+01 -0.77389433553E+02  0.22701180571E+03  0.25446846804E+03  0.84695318272E+02 0.  0.
        -11    1    3    3    0    0  0.47418377283E+02  0.21993131314E+02  0.97644537862E+02  0.11075493715E+03  0.00000000000E+00 0.  1.
         11    1    3    3    0    0 -0.42046902690E+02  0.29685694701E+02  0.14183820045E+03  0.15088822884E+03  0.00000000000E+00 0. -1.
        -13    1    4    4    0    0  0.32631137661E+02 -0.56899442359E+02  0.99206950303E+02  0.11893004950E+03  0.00000000000E+00 0.  1.
         13    1    4    4    0    0 -0.40208731564E+02 -0.20489991194E+02  0.12780485541E+03  0.13553841853E+03  0.00000000000E+00 0. -1.
          4    1    1    2  501    0  0.22061193098E+01  0.25710607538E+02 -0.21259186606E+02  0.33434343384E+02  0.00000000000E+00 0. -1.
<scales pt_clust_5="13000.00000" pt_clust_6="13000.00000" pt_clust_7="13000.00000" pt_clust_8="13000.00000" pt_clust_9="25.80508"></scales>
<clustering>
<clus scale="   25.805">  2  9  1 -1</clus>
<clus scale="   84.695">  7  8 -1 -1</clus>
<clus scale="   91.682">  5  6 -1 -1</clus>
<clus scale="  105.845">  2  7  1 -1</clus>
<clus scale="   25.805">  2  5  1 -1</clus>
</clustering>
</event>
<event>
 9    1  0.1321469E-005  0.1274186E+03  0.7546771E-02  0.1231358E+00
         -1   -1    0    0    0  501 -0.00000000000E+00  0.00000000000E+00  0.37269751724E+03  0.37269751724E+03  0.00000000000E+00 0.  1.
         21   -1    0    0  501  502  0.00000000000E+00 -0.00000000000E+00 -0.23069444703E+03  0.23069444703E+03  0.00000000000E+00 0.  1.
         23    2    1    2    0    0  0.92259224061E+01 -0.77227374154E+02  0.21381721575E+03  0.24548535321E+03  0.92174139150E+02 0.  0.
         23    2    1    2    0    0 -0.32726661835E+02  0.10861578640E+03  0.10298452303E+03  0.17876395362E+03  0.92099487945E+02 0.  0.
        -11    1    3    3    0    0  0.14091528872E+02 -0.33135368552E+02  0.10675238542E+02  0.37556418266E+02  0.00000000000E+00 0. -1.
         11    1    3    3    0    0 -0.48656064661E+01 -0.44092005602E+02  0.20314197721E+03  0.20792893495E+03  0.00000000000E+00 0.  1.
        -13    1    4    4    0    0 -0.49305396729E+02  0.25343754321E+02  0.17149006842E+02  0.58029444813E+02  0.00000000000E+00 0.  1.
         13    1    4    4    0    0  0.16578734894E+02  0.83272032077E+02  0.85835516193E+02  0.12073450881E+03  0.00000000000E+00 0. -1.
         -1    1    1    2    0  502  0.23500739429E+02 -0.31388412244E+02 -0.17479866857E+03  0.17914265743E+03  0.00000000000E+00 0.  1.
<scales pt_clust_5="13000.00000" pt_clust_6="13000.00000" pt_clust_7="13000.00000" pt_clust_8="13000.00000" pt_clust_9="39.21119"></scales>
<clustering>
<clus scale="   39.211">  2  9  1 -1</clus>
<clus scale="   92.099">  7  8 -1 -1</clus>
<clus scale="   92.174">  5  6 -1 -1</clus>
<clus scale="  127.365">  2  7  1 -1</clus>
<clus scale="   39.211">  2  5  1 -1</clus>
</clustering>
</event>
<event>
 9    1  0.1321469E-005  0.1095416E+03  0.7546771E-02  0.1261651E+00
         21   -1    0    0  501  502  0.00000000000E+00  0.00000000000E+00  0.61401981692E+02  0.61401981692E+02  0.00000000000E+00 0.  1.
          1   -1    0    0  502    0 -0.00000000000E+00 -0.00000000000E+00 -0.73468175117E+03  0.73468175117E+03  0.00000000000E+00 0. -1.
         23    2    1    2    0    0  0.33084309789E+02  0.45903700990E+02 -0.60492745836E+03  0.61442731991E+03  0.91553155407E+02 0.  0.
         23    2    1    2    0    0 -0.61135460327E+02 -0.50123905811E+02 -0.85515650183E+02  0.14850136230E+03  0.92139989889E+02 0.  0.
        -13    1    3    3    0    0 -0.21574444442E+01 -0.26524182385E+02 -0.12675808026E+03  0.12952141804E+03  0.00000000000E+00 0.  1.
         13    1    3    3    0    0  0.35241754233E+02  0.72427883375E+02 -0.47816937809E+03  0.48490590188E+03  0.00000000000E+00 0. -1.
        -13    1    4    4    0    0 -0.43456980557E+02 -0.28420541374E+02  0.64922117922E+01  0.52329581931E+02  0.00000000000E+00 0.  1.
         13    1    4    4    0    0 -0.17678479770E+02 -0.21703364436E+02 -0.92007861975E+02  0.96171780372E+02  0.00000000000E+00 0. -1.
          1    1    1    2  501    0  0.28051150538E+02  0.42202048205E+01  0.17163339064E+02  0.33155050642E+02  0.00000000000E+00 0. -1.
<scales pt_clust_5="13000.00000" pt_clust_6="13000.00000" pt_clust_7="13000.00000" pt_clust_8="13000.00000" pt_clust_9="28.36683"></scales>
<clustering>
<clus scale="   28.367">  1  9  2 -1</clus>
<clus scale="   91.553">  5  6 -1 -1</clus>
<clus scale="   92.140">  7  8 -1 -1</clus>
<clus scale="  109.048">  2  5  1 -1</clus>
<clus scale="   28.367">  1  5  2 -1</clus>
</clustering>
</event>
<event>
 9    1  0.1321469E-005  0.1238260E+03  0.7546771E-02  0.1237026E+00
          2   -1    0    0  502    0 -0.00000000000E+00  0.00000000000E+00  0.15393375473E+03  0.15393375473E+03  0.00000000000E+00 0. -1.
         21   -1    0    0  501  502  0.00000000000E+00 -0.00000000000E+00 -0.26481005146E+03  0.26481005146E+03  0.00000000000E+00 0. -1.
         23    2    1    2    0    0  0.71081782755E+02  0.35022078500E+02  0.79593033237E+02  0.14436853775E+03  0.90708643082E+02 0.  0.
         23    2    1    2    0    0 -0.98246009373E+02 -0.26903201564E+02 -0.75823789404E+02  0.15627610951E+03  0.91087401719E+02 0.  0.
        -13    1    3    3    0    0 -0.19608629186E+02 -0.65550174099E+01  0.14103716040E+02  0.25027612709E+02  0.00000000000E+00 0.  1.
         13    1    3    3    0    0  0.90690411941E+02  0.41577095910E+02  0.65489317197E+02  0.11934092504E+03  0.00000000000E+00 0. -1.
        -13    1    4    4    0    0 -0.31922305621E+02  0.26793947537E+02  0.65894134416E+00  0.41681931631E+02  0.00000000000E+00 0. -1.
         13    1    4    4    0    0 -0.66323703752E+02 -0.53697149102E+02 -0.76482730748E+02  0.11459417788E+03  0.00000000000E+00 0.  1.
          2    1    1    2  501    0  0.27164226618E+02 -0.81188769353E+01 -0.11464554056E+03  0.11809915893E+03  0.00000000000E+00 0. -1.
<scales pt_clust_5="13000.00000" pt_clust_6="13000.00000" pt_clust_7="13000.00000" pt_clust_8="13000.00000" pt_clust_9="28.35157"></scales>
<clustering>
<clus scale="   28.352">  2  9  1 -1</clus>
<clus scale="   90.709">  5  6 -1 -1</clus>
<clus scale="   91.087">  7  8 -1 -1</clus>
<clus scale="  123.548">  1  5  2 -1</clus>
<clus scale="   28.352">  2  5  1 -1</clus>
</clustering>
</event>
<event>
 9    1  0.1321469E-005  0.1545973E+03  0.7546771E-02  0.1196052E+00
          2   -1    0    0  502    0 -0.00000000000E+00  0.00000000000E+00  0.71441734624E+03  0.71441734624E+03  0.00000000000E+00 0. -1.
         21   -1    0    0  501  502  0.00000000000E+00 -0.00000000000E+00 -0.75463436256E+02  0.75463436256E+02  0.00000000000E+00 0. -1.
         23    2    1    2    0    0  0.97471668514E+01  0.13181208512E+03  0.53141251391E+03  0.55514766787E+03  0.91215350441E+02 0.  0.
         23    2    1    2    0    0  0.37251152326E+02 -0.73874781816E+02  0.39238601349E+02  0.13358547557E+03  0.97263969228E+02 0.  0.
        -11    1    4    4    0    0  0.44751091634E+02 -0.14016674104E+02 -0.18186158142E+02  0.50297750480E+02  0.00000000000E+00 0. -1.
         11    1    4    4    0    0 -0.74999393077E+01 -0.59858107712E+02  0.57424759490E+02  0.83287725092E+02  0.00000000000E+00 0.  1.
        -11    1    3    3    0    0 -0.27334909268E+02  0.71498571333E+01  0.63633393878E+02  0.69624180700E+02  0.00000000000E+00 0.  1.
         11    1    3    3    0    0  0.37082076119E+02  0.12466222798E+03  0.46777912004E+03  0.48552348717E+03  0.00000000000E+00 0. -1.
          2    1    1    2  501    0 -0.46998319178E+02 -0.57937303301E+02  0.68302794725E+02  0.10114763906E+03  0.00000000000E+00 0. -1.
<scales pt_clust_5="13000.00000" pt_clust_6="13000.00000" pt_clust_7="13000.00000" pt_clust_8="13000.00000" pt_clust_9="74.60277"></scales>
<clustering>
<clus scale="   74.603">  2  9  1 -1</clus>
<clus scale="   91.215">  7  8 -1 -1</clus>
<clus scale="   97.264">  5  6 -1 -1</clus>
<clus scale="  150.865">  1  7  2 -1</clus>
<clus scale="   74.603">  2  5  1 -1</clus>
</clustering>
</event>
<event>
 9    1  0.1321469E-005  0.1057818E+03  0.7546771E-02  0.1270798E+00
         21   -1    0    0  501  502  0.00000000000E+00  0.00000000000E+00  0.40567782096E+02  0.40567782096E+02  0.00000000000E+00 0. -1.
          2   -1    0    0  502    0 -0.00000000000E+00 -0.00000000000E+00 -0.82943043914E+03  0.82943043914E+03  0.00000000000E+00 0. -1.
         23    2    1    2    0    0  0.59632965402E+02  0.78835091065E+01 -0.57467580082E+03  0.58561262972E+03  0.95245135102E+02 0.  0.
         23    2    1    2    0    0 -0.21123265628E+02  0.20402315290E+02 -0.21664467234E+03  0.23654078304E+03  0.90300504804E+02 0.  0.
        -13    1    4    4    0    0 -0.56246787630E+02  0.68319158578E+01 -0.14330753962E+03  0.15410200227E+03  0.00000000000E+00 0. -1.
         13    1    4    4    0    0  0.35123522002E+02  0.13570399432E+02 -0.73337132719E+02  0.82438780765E+02  0.00000000000E+00 0.  1.
        -13    1    3    3    0    0  0.67611747414E+02 -0.29809407760E+02 -0.35960990533E+03  0.36712291292E+03  0.00000000000E+00 0.  1.
         13    1    3    3    0    0 -0.79787820116E+01  0.37692916866E+02 -0.21506589549E+03  0.21848971680E+03  0.00000000000E+00 0. -1.
          2    1    1    2  501    0 -0.38509699775E+02 -0.28285824396E+02  0.24578161123E+01  0.47844808481E+02  0.00000000000E+00 0. -1.
<scales pt_clust_5="13000.00000" pt_clust_6="13000.00000" pt_clust_7="13000.00000" pt_clust_8="13000.00000" pt_clust_9="47.78164"></scales>
<clustering>
<clus scale="   47.782">  1  9  2 -1</clus>
<clus scale="   90.301">  5  6 -1 -1</clus>
<clus scale="   95.245">  7  8 -1 -1</clus>
<clus scale="  101.352">  1  5  2 -1</clus>
<clus scale="   47.782">  1  5  2 -1</clus>
</clustering>
</event>
<event>
 9    1  0.1321469E-005  0.1115659E+03  0.7546771E-02  0.1261790E+00
          3   -1    0    0  502    0 -0.00000000000E+00  0.00000000000E+00  0.87650873204E+02  0.87650873204E+02  0.00000000000E+00 0. -1.
         21   -1    0    0  501  502  0.00000000000E+00 -0.00000000000E+00 -0.37436995928E+03  0.37436995928E+03  0.00000000000E+00 0.  1.
         23    2    1    2    0    0 -0.39081049440E+02 -0.48702286238E+02  0.18753590139E+02  0.10606432214E+03  0.83658246323E+02 0.  0.
         23    2    1    2    0    0  0.68335547763E+02  0.46295844581E+01 -0.13897504205E+03  0.18125765260E+03  0.94069624071E+02 0.  0.
        -11    1    3    3    0    0 -0.21227820147E+02  0.22366366906E+02  0.91221638597E+01  0.32157247865E+02  0.00000000000E+00 0.  1.
         11    1    3    3    0    0 -0.17853229293E+02 -0.71068653143E+02  0.96314262789E+01  0.73907074276E+02  0.00000000000E+00 0. -1.
        -11    1    4    4    0    0  0.42646592799E+02  0.30502628042E+01 -0.14794706889E+03  0.15400120511E+03  0.00000000000E+00 0.  1.
         11    1    4    4    0    0  0.25688954964E+02  0.15793216539E+01  0.89720268464E+01  0.27256447490E+02  0.00000000000E+00 0. -1.
          3    1    1    2  501    0 -0.29254498323E+02  0.44072701779E+02 -0.16649763416E+03  0.17469885774E+03  0.00000000000E+00 0. -1.
<scales pt_clust_5="13000.00000" pt_clust_6="13000.00000" pt_clust_7="13000.00000" pt_clust_8="13000.00000" pt_clust_9="52.89829"></scales>
<clustering>
<clus scale="   52.898">  2  9  1 -1</clus>
<clus scale="   83.658">  5  6 -1 -1</clus>
<clus scale="   94.070">  7  8 -1 -1</clus>
<clus scale="  102.940">  1  5  2 -1</clus>
<clus scale="   52.898">  2  5  1 -1</clus>
</clustering>
</event>
<event>
 9    1  0.1321469E-005  0.1893168E+03  0.7546771E-02  0.1159301E+00
         21   -1    0    0  501  502  0.00000000000E+00  0.00000000000E+00  0.27639091968E+03  0.27639091968E+03  0.00000000000E+00 0.  1.
          1   -1    0    0  502    0 -0.00000000000E+00 -0.00000000000E+00 -0.23920925035E+03  0.23920925035E+03  0.00000000000E+00 0. -1.
         23    2    1    2    0    0 -0.16529759299E+03 -0.54119330222E+02 -0.94724889013E+02  0.21708450763E+03  0.88885784595E+02 0.  0.
         23    2    1    2    0    0  0.14877629331E+03  0.38731321143E+02  0.14772714622E+02  0.17922575708E+03  0.90934802008E+02 0.  0.
        -11    1    4    4    0    0  0.20013102629E+02 -0.60927312892E+01 -0.29242456861E+02  0.35955068275E+02  0.00000000000E+00 0.  1.
         11    1    4    4    0    0  0.12876319068E+03  0.44824052432E+02  0.44015171484E+02  0.14327068881E+03  0.00000000000E+00 0. -1.
        -13    1    3    3    0    0 -0.13200610531E+03 -0.71181010135E+02 -0.98587750672E+02  0.17947671889E+03  0.00000000000E+00 0. -1.
         13    1    3    3    0    0 -0.33291487681E+02  0.17061679913E+02  0.38628616590E+01  0.37607788737E+02  0.00000000000E+00 0.  1.
          1    1    1    2  501    0  0.16521299678E+02  0.15388009079E+02  0.11713384372E+03  0.11928990532E+03  0.00000000000E+00 0. -1.
<scales pt_clust_5="13000.00000" pt_clust_6="13000.00000" pt_clust_7="13000.00000" pt_clust_8="13000.00000" pt_clust_9="22.57751"></scales>
<clustering>
<clus scale="   22.578">  1  9  2 -1</clus>
<clus scale="   88.886">  7  8 -1 -1</clus>
<clus scale="   90.935">  5  6 -1 -1</clus>
<clus scale="  188.341">  2  7  1 -1</clus>
<clus scale="   22.578">  1  5  2 -1</clus>
</clustering>
</event>
<event>
 9    1  0.1321469E-005  0.1032124E+03  0.7546771E-02  0.1275761E+00
         -1   -1    0    0    0  501 -0.00000000000E+00  0.00000000000E+00  0.32676613799E+03  0.32676613799E+03  0.00000000000E+00 0.  1.
         21   -1    0    0  501  502  0.00000000000E+00 -0.00000000000E+00 -0.62387577579E+02  0.62387577579E+02  0.00000000000E+00 0. -1.
         23    2    1    2    0    0 -0.28990158593E+02  0.21247469601E+02  0.18032431758E+03  0.20568541280E+03  0.92183215778E+02 0.  0.
         23    2    1    2    0    0  0.53492476831E+02 -0.39494600103E+02  0.10029821317E+03  0.14886789897E+03  0.87639324866E+02 0.  0.
        -13    1    3    3    0    0  0.45991276527E+00  0.47113995412E+02  0.46341871092E+02  0.66087132634E+02  0.00000000000E+00 0.  1.
         13    1    3    3    0    0 -0.29450071358E+02 -0.25866525811E+02  0.13398244648E+03  0.13959828017E+03  0.00000000000E+00 0. -1.
        -13    1    4    4    0    0  0.22374058542E+02 -0.21956781957E+02 -0.10020294188E+02  0.32910561605E+02  0.00000000000E+00 0. -1.
         13    1    4    4    0    0  0.31118418289E+02 -0.17537818146E+02  0.11031850736E+03  0.11595733736E+03  0.00000000000E+00 0.  1.
         -1    1    1    2    0  502 -0.24502318238E+02  0.18247130502E+02 -0.16243970338E+02  0.34600403797E+02  0.00000000000E+00 0.  1.
<scales pt_clust_5="13000.00000" pt_clust_6="13000.00000" pt_clust_7="13000.00000" pt_clust_8="13000.00000" pt_clust_9="30.55031"></scales>
<clustering>
<clus scale="   30.550">  2  9  1 -1</clus>
<clus scale="   87.639">  7  8 -1 -1</clus>
<clus scale="   92.183">  5  6 -1 -1</clus>
<clus scale="   99.175">  2  7  1 -1</clus>
<clus scale="   30.550">  2  5  1 -1</clus>
</clustering>
</event>
<event>
 9    1  0.1321469E-005  0.1064259E+03  0.7546771E-02  0.1270490E+00
          1   -1    0    0  502    0 -0.00000000000E+00  0.00000000000E+00  0.45979100305E+03  0.45979100305E+03  0.00000000000E+00 0. -1.
         21   -1    0    0  501  502  0.00000000000E+00 -0.00000000000E+00 -0.63821662188E+02  0.63821662188E+02  0.00000000000E+00 0.  1.
         23    2    1    2    0    0 -0.41803031396E+02 -0.45572462687E+02  0.33664105331E+03  0.35275665250E+03  0.85356395893E+02 0.  0.
         23    2    1    2    0    0 -0.14723374322E+02  0.33333181136E+02  0.52624316187E+02  0.11263249697E+03  0.92676221350E+02 0.  0.
        -11    1    4    4    0    0 -0.64461913779E+00 -0.27678029840E+02  0.40177832103E+02  0.48792899711E+02  0.00000000000E+00 0.  1.
         11    1    4    4    0    0 -0.14078755184E+02  0.61011210976E+02  0.12446484083E+02  0.63839597260E+02  0.00000000000E+00 0. -1.
        -13    1    3    3    0    0 -0.66364551057E+02 -0.30247428545E+02  0.19512441779E+03  0.20830914284E+03  0.00000000000E+00 0. -1.
         13    1    3    3    0    0  0.24561519661E+02 -0.15325034142E+02  0.14151663552E+03  0.14444750967E+03  0.00000000000E+00 0.  1.
          1    1    1    2  501    0  0.56526405718E+02  0.12239281551E+02  0.67039713653E+01  0.58223515768E+02  0.00000000000E+00 0. -1.
<scales pt_clust_5="13000.00000" pt_clust_6="13000.00000" pt_clust_7="13000.00000" pt_clust_8="13000.00000" pt_clust_9="57.83627"></scales>
<clustering>
<clus scale="   57.836">  2  9  1 -1</clus>
<clus scale="   85.356">  7  8 -1 -1</clus>
<clus scale="   92.676">  5  6 -1 -1</clus>
<clus scale="  100.117">  1  7  2 -1</clus>
<clus scale="   57.836">  2  5  1 -1</clus>
</clustering>
</event>
<event>
 9    1  0.1321469E-005  0.9546916E+02  0.7546771E-02  0.1291666E+00
         -1   -1    0    0    0  501 -0.00000000000E+00  0.00000000000E+00  0.29312436289E+03  0.29312436289E+03  0.00000000000E+00 0.  1.
         21   -1    0    0  501  502  0.00000000000E+00 -0.00000000000E+00 -0.18551226505E+03  0.18551226505E+03  0.00000000000E+00 0.  1.
         23    2    1    2    0    0  0.82228733536E+01  0.82716205744E+01  0.22422275022E+03  0.24337028626E+03  0.93900048818E+02 0.  0.
         23    2    1    2    0    0  0.22067013124E+01 -0.60299626047E+02 -0.23965713736E+01  0.10932768327E+03  0.91136624591E+02 0.  0.
        -11    1    3    3    0    0  0.38886933843E+02 -0.25966335599E+02  0.88774793333E+02  0.10033647462E+03  0.00000000000E+00 0.  1.
         11    1    3    3    0    0 -0.30664060490E+02  0.34237956174E+02  0.13544795689E+03  0.14303381164E+03  0.00000000000E+00 0. -1.
        -13    1    4    4    0    0 -0.32945274835E+02 -0.58120110925E+02  0.17249671395E+02  0.68999199930E+02  0.00000000000E+00 0.  1.
         13    1    4    4    0    0  0.35151976147E+02 -0.21795151226E+01 -0.19646242768E+02  0.40328483335E+02  0.00000000000E+00 0. -1.
         -1    1    1    2    0  502 -0.10429574666E+02  0.52028005473E+02 -0.11421408101E+03  0.12593865841E+03  0.00000000000E+00 0.  1.
<scales pt_clust_5="13000.00000" pt_clust_6="13000.00000" pt_clust_7="13000.00000" pt_clust_8="13000.00000" pt_clust_9="53.06307"></scales>
<clustering>
<clus scale="   53.063">  2  9  1 -1</clus>
<clus scale="   91.137">  7  8 -1 -1</clus>
<clus scale="   92.752">  2  7  1 -1</clus>
<clus scale="   93.900">  5  6 -1 -1</clus>
<clus scale="   53.063">  2  5  1 -1</clus>
</clustering>
</event>
<event>
 9    1  0.1321469E-005  0.1245603E+03  0.7546771E-02  0.1236456E+00
         21   -1    0    0  501  502  0.00000000000E+00  0.00000000000E+00  0.70532997612E+02  0.70532997612E+02  0.00000000000E+00 0.  1.
          1   -1    0    0  502    0 -0.00000000000E+00 -0.00000000000E+00 -0.38239619333E+03  0.38239619333E+03  0.00000000000E+00 0. -1.
         23    2    1    2    0    0 -0.55114069117E+02  0.64622894970E+02 -0.24729730501E+03  0.27655512313E+03  0.90072747791E+02 0.  0.
         23    2    1    2    0    0  0.69815752251E+02 -0.44238036650E+02 -0.79333318618E+02  0.14722344410E+03  0.92464717060E+02 0.  0.
        -13    1    3    3    0    0 -0.21265333878E+02  0.20931986990E+02 -0.79086542316E+01  0.30869229275E+02  0.00000000000E+00 0.  1.
         13    1    3    3    0    0 -0.33848735239E+02  0.43690907980E+02 -0.23938865077E+03  0.24568589385E+03  0.00000000000E+00 0. -1.
        -13    1    4    4    0    0 -0.10837401410E+02 -0.41957614695E+02 -0.27739296723E+02  0.51452495400E+02  0.00000000000E+00 0.  1.
         13    1    4    4    0    0  0.80653153661E+02 -0.22804219547E+01 -0.51594021895E+02  0.95770948701E+02  0.00000000000E+00 0. -1.
          1    1    1    2  501    0 -0.14701683134E+02 -0.20384858320E+02  0.14767427909E+02  0.29150623711E+02  0.00000000000E+00 0. -1.
<scales pt_clust_5="13000.00000" pt_clust_6="13000.00000" pt_clust_7="13000.00000" pt_clust_8="13000.00000" pt_clust_9="25.13328"></scales>
<clustering>
<clus scale="   25.133">  1  9  2 -1</clus>
<clus scale="   90.073">  5  6 -1 -1</clus>
<clus scale="   92.465">  7  8 -1 -1</clus>
<clus scale="  122.795">  2  5  1 -1</clus>
<clus scale="   25.133">  1  5  2 -1</clus>
</clustering>
</event>
<event>
 9    1  0.1321469E-005  0.9994907E+02  0.7546771E-02  0.1280703E+00
          1   -1    0    0  502    0 -0.00000000000E+00  0.00000000000E+00  0.12547554283E+03  0.12547554283E+03  0.00000000000E+00 0. -1.
         21   -1    0    0  501  502  0.00000000000E+00 -0.00000000000E+00 -0.19680204194E+03  0.19680204194E+03  0.00000000000E+00 0. -1.
         23    2    1    2    0    0  0.11303008256E+02  0.45594214971E+02  0.71119743565E+02  0.12553396948E+03  0.92163816843E+02 0.  0.
         23    2    1    2    0    0 -0.74303357803E+01 -0.80728603036E+01 -0.72570972988E+02  0.11733704779E+03  0.91548105929E+02 0.  0.
        -11    1    4    4    0    0  0.15698963520E+02 -0.45424840558E+02 -0.33964233406E+02  0.58851021624E+02  0.00000000000E+00 0.  1.
         11    1    4    4    0    0 -0.23129299300E+02  0.37351980254E+02 -0.38606739582E+02  0.58486026162E+02  0.00000000000E+00 0. -1.
        -13    1    3    3    0    0 -0.32452498022E+02 -0.83406861596E-01  0.30242658935E+01  0.32593216607E+02  0.00000000000E+00 0.  1.
         13    1    3    3    0    0  0.43755506278E+02  0.45677621833E+02  0.68095477672E+02  0.92940752877E+02  0.00000000000E+00 0. -1.
          1    1    1    2  501    0 -0.38726724759E+01 -0.37521354667E+02 -0.69875269692E+02  0.79406567504E+02  0.00000000000E+00 0. -1.
<scales pt_clust_5="13000.00000" pt_clust_6="13000.00000" pt_clust_7="13000.00000" pt_clust_8="13000.00000" pt_clust_9="37.72068"></scales>
<clustering>
<clus scale="   37.721">  2  9  1 -1</clus>
<clus scale="   91.548">  5  6 -1 -1</clus>
<clus scale="   92.164">  7  8 -1 -1</clus>
<clus scale="   99.382">  2  5  1 -1</clus>
<clus scale="   37.721">  2  5  1 -1</clus>
</clustering>
</event>
<event>
 9    1  0.1321469E-005  0.1145847E+03  0.7546771E-02  0.1252376E+00
         21   -1    0    0  501  502  0.00000000000E+00  0.00000000000E+00  0.34485474765E+03  0.34485474765E+03  0.00000000000E+00 0. -1.
          2   -1    0    0  502    0 -0.00000000000E+00 -0.00000000000E+00 -0.10808698858E+03  0.10808698858E+03  0.00000000000E+00 0. -1.
         23    2    1    2    0    0 -0.39530379903E+02 -0.49858701342E+02 -0.38472609120E+02  0.11791925657E+03  0.91521955739E+02 0.  0.
         23    2    1    2    0    0  0.56331969349E+02  0.65012680707E+02  0.10653686330E+03  0.16480847007E+03  0.91715806384E+02 0.  0.
        -11    1    4    4    0    0  0.33380247961E+02  0.64849181304E+02  0.11833104909E+03  0.13900321740E+03  0.00000000000E+00 0.  1.
         11    1    4    4    0    0  0.22951721387E+02  0.16349940328E+00 -0.11794185788E+02  0.25805252665E+02  0.00000000000E+00 0. -1.
        -13    1    3    3    0    0 -0.12423871651E+02  0.24574300744E+02 -0.25728410882E+02  0.37685540601E+02  0.00000000000E+00 0.  1.
         13    1    3    3    0    0 -0.27106508252E+02 -0.74433002086E+02 -0.12744198237E+02  0.80233715967E+02  0.00000000000E+00 0. -1.
          2    1    1    2  501    0 -0.16801589446E+02 -0.15153979365E+02  0.16870350489E+03  0.17021400959E+03  0.00000000000E+00 0. -1.
<scales pt_clust_5="13000.00000" pt_clust_6="13000.00000" pt_clust_7="13000.00000" pt_clust_8="13000.00000" pt_clust_9="22.62601"></scales>
<clustering>
<clus scale="   22.626">  1  9  2 -1</clus>
<clus scale="   91.522">  7  8 -1 -1</clus>
<clus scale="   91.716">  5  6 -1 -1</clus>
<clus scale="  114.430">  2  7  1 -1</clus>
<clus scale="   22.626">  1  5  2 -1</clus>
</clustering>
</event>
<event>
 9    1  0.1321469E-005  0.9459541E+02  0.7546771E-02  0.1292812E+00
         21   -1    0    0  501  502  0.00000000000E+00  0.00000000000E+00  0.27615006392E+03  0.27615006392E+03  0.00000000000E+00 0. -1.
          2   -1    0    0  502    0 -0.00000000000E+00 -0.00000000000E+00 -0.22380286376E+03  0.22380286376E+03  0.00000000000E+00 0. -1.
         23    2    1    2    0    0 -0.10323858771E+02  0.12926857482E+02 -0.11633787679E+03  0.14734198862E+03  0.88890237540E+02 0.  0.
         23    2    1    2    0    0  0.43292811615E+02 -0.29532123940E+02 -0.60409207333E+02  0.12056163866E+03  0.90218748078E+02 0.  0.
        -11    1    3    3    0    0 -0.40376348707E+02 -0.87634665959E+01 -0.23853703011E+02  0.47707934655E+02  0.00000000000E+00 0.  1.
         11    1    3    3    0    0  0.30052489935E+02  0.21690324078E+02 -0.92484173776E+02  0.99634053963E+02  0.00000000000E+00 0. -1.
        -11    1    4    4    0    0  0.15840909238E+02 -0.57975594549E+02 -0.18345861746E+02  0.62838480344E+02  0.00000000000E+00 0.  1.
         11    1    4    4    0    0  0.27451902378E+02  0.28443470609E+02 -0.42063345587E+02  0.57723158319E+02  0.00000000000E+00 0. -1.
          2    1    1    2  501    0 -0.32968952844E+02  0.16605266458E+02  0.22909428428E+03  0.23204930040E+03  0.00000000000E+00 0. -1.
<scales pt_clust_5="13000.00000" pt_clust_6="13000.00000" pt_clust_7="13000.00000" pt_clust_8="13000.00000" pt_clust_9="36.91459"></scales>
<clustering>
<clus scale="   36.915">  1  9  2 -1</clus>
<clus scale="   88.890">  5  6 -1 -1</clus>
<clus scale="   90.219">  7  8 -1 -1</clus>
<clus scale="   93.329">  2  5  1 -1</clus>
<clus scale="   36.915">  1  5  2 -1</clus>
</clustering>
</event>
<event>
 9    1  0.1321469E-005  0.1173296E+03  0.7546771E-02  0.1248588E+00
         21   -1    0    0  501  502  0.00000000000E+00  0.00000000000E+00  0.24669552914E+02  0.24669552914E+02  0.00000000000E+00 0.  1.
          3   -1    0    0  502    0 -0.00000000000E+00 -0.00000000000E+00 -0.76027286384E+03  0.76027286384E+03  0.00000000000E+00 0. -1.
         23    2    1    2    0    0  0.78726365308E+02 -0.15026613372E+02 -0.45891850413E+03  0.47506866762E+03  0.93061301424E+02 0.  0.
         23    2    1    2    0    0 -0.53757565587E+02  0.28038131584E+02 -0.24174594951E+03  0.26500210648E+03  0.90049984190E+02 0.  0.
        -11    1    3    3    0    0  0.75350874770E+01 -0.38972565118E+02 -0.86803295835E+02  0.95448680153E+02  0.00000000000E+00 0. -1.
         11    1    3    3    0    0  0.71191277831E+02  0.23945951746E+02 -0.37211520829E+03  0.37961998747E+03  0.00000000000E+00 0.  1.
        -13    1    4    4    0    0  0.23580296922E+02 -0.44723227222E+01 -0.66807365716E+02  0.70987718567E+02  0.00000000000E+00 0.  1.
         13    1    4    4    0    0 -0.77337862508E+02  0.32510454306E+02 -0.17493858379E+03  0.19401438791E+03  0.00000000000E+00 0. -1.
          3    1    1    2  501    0 -0.24968799721E+02 -0.13011518213E+02 -0.34938857287E+02  0.44871642652E+02  0.00000000000E+00 0. -1.
<scales pt_clust_5="13000.00000" pt_clust_6="13000.00000" pt_clust_7="13000.00000" pt_clust_8="13000.00000" pt_clust_9="28.15565"></scales>
<clustering>
<clus scale="   28.156">  1  9  2 -1</clus>
<clus scale="   90.050">  7  8 -1 -1</clus>
<clus scale="   93.061">  5  6 -1 -1</clus>
<clus scale="  114.956">  1  7  2 -1</clus>
<clus scale="   28.156">  1  5  2 -1</clus>
</clustering>
</event>
<event>
 9    1  0.1321469E-005  0.1436949E+03  0.7546771E-02  0.1208499E+00
         21   -1    0    0  501  502  0.00000000000E+00  0.00000000000E+00  0.83822323320E+02  0.83822323320E+02  0.00000000000E+00 0.  1.
          2   -1    0    0  502    0 -0.00000000000E+00 -0.00000000000E+00 -0.30707853765E+03  0.30707853765E+03  0.00000000000E+00 0. -1.
         23    2    1    2    0    0 -0.34245015150E+02 -0.11872518351E+03 -0.13649091040E+03  0.20518044564E+03  0.90558579886E+02 0.  0.
         23    2    1    2    0    0  0.39785390876E+02  0.89829548308E+02 -0.78618125736E+02  0.15519124879E+03  0.90836605678E+02 0.  0.
        -11    1    3    3    0    0  0.27031733769E+02 -0.10948635939E+02 -0.23891541158E+02  0.37701366001E+02  0.00000000000E+00 0. -1.
         11    1    3    3    0    0 -0.61276748919E+02 -0.10777654757E+03 -0.11259936925E+03  0.16747907964E+03  0.00000000000E+00 0.  1.
        -11    1    4    4    0    0  0.61724867861E+02  0.89715619809E+02 -0.51941412867E+02  0.12065140746E+03  0.00000000000E+00 0. -1.
         11    1    4    4    0    0 -0.21939476986E+02  0.11392849859E+00 -0.26676712869E+02  0.34539841337E+02  0.00000000000E+00 0.  1.
          2    1    1    2  501    0 -0.55403757257E+01  0.28895635198E+02 -0.81471781885E+01  0.30529166531E+02  0.00000000000E+00 0. -1.
<scales pt_clust_5="13000.00000" pt_clust_6="13000.00000" pt_clust_7="13000.00000" pt_clust_8="13000.00000" pt_clust_9="29.42199"></scales>
<clustering>
<clus scale="   29.422">  1  9  2 -1</clus>
<clus scale="   90.559">  5  6 -1 -1</clus>
<clus scale="   90.837">  7  8 -1 -1</clus>
<clus scale="  143.519">  2  5  1 -1</clus>
<clus scale="   29.422">  1  5  2 -1</clus>
</clustering>
</event>
<event>
 9    1  0.1321469E-005  0.1088109E+03  0.7546771E-02  0.1263836E+00
          1   -1    0    0  502    0 -0.00000000000E+00  0.00000000000E+00  0.26688119637E+03  0.26688119637E+03  0.00000000000E+00 0. -1.
         21   -1    0    0  501  502  0.00000000000E+00 -0.00000000000E+00 -0.63282363449E+02  0.63282363449E+02  0.00000000000E+00 0.  1.
         23    2    1    2    0    0 -0.49096863384E+02  0.14753921890E+02  0.13470885555E+03  0.17087463494E+03  0.91779545092E+02 0.  0.
         23    2    1    2    0    0  0.71052894037E+02 -0.79065296358E+01  0.73444571173E+02  0.13584327736E+03  0.89153037008E+02 0.  0.
        -11    1    3    3    0    0  0.19390138032E+02 -0.13947987947E+02  0.64100238095E+02  0.68405879459E+02  0.00000000000E+00 0.  1.
         11    1    3    3    0    0 -0.68487001416E+02  0.28701909837E+02  0.70608617458E+02  0.10246875548E+03  0.00000000000E+00 0. -1.
        -11    1    4    4    0    0  0.76453179016E+02  0.17709976165E+02  0.27860269404E+02  0.83276205777E+02  0.00000000000E+00 0.  1.
         11    1    4    4    0    0 -0.54002849788E+01 -0.25616505800E+02  0.45584301769E+02  0.52567071585E+02  0.00000000000E+00 0. -1.
          1    1    1    2  501    0 -0.21956030653E+02 -0.68473922543E+01 -0.45545938034E+01  0.23445647516E+02  0.00000000000E+00 0. -1.
<scales pt_clust_5="13000.00000" pt_clust_6="13000.00000" pt_clust_7="13000.00000" pt_clust_8="13000.00000" pt_clust_9="22.99900"></scales>
<clustering>
<clus scale="   22.999">  2  9  1 -1</clus>
<clus scale="   89.153">  7  8 -1 -1</clus>
<clus scale="   91.780">  5  6 -1 -1</clus>
<clus scale="  106.605">  2  7  1 -1</clus>
<clus scale="   22.999">  2  5  1 -1</clus>
</clustering>
</event>
<event>
 9    1  0.1321469E-005  0.9167219E+02  0.7546771E-02  0.1301280E+00
          1   -1    0    0  502    0 -0.00000000000E+00  0.00000000000E+00  0.41620771137E+03  0.41620771137E+03  0.00000000000E+00 0. -1.
         21   -1    0    0  501  502  0.00000000000E+00 -0.00000000000E+00 -0.56626724667E+02  0.56626724667E+02  0.00000000000E+00 0. -1.
         23    2    1    2    0    0 -0.81814974007E+00 -0.22098225675E+02  0.23764588122E+03  0.25423412638E+03  0.87580963730E+02 0.  0.
         23    2    1    2    0    0 -0.47329292413E+01 -0.51994542790E+02  0.86038043854E+02  0.13608272456E+03  0.91597651909E+02 0.  0.
        -13    1    4    4    0    0  0.32067149150E+02 -0.59749920440E+02  0.54329371286E+02  0.86890941021E+02  0.00000000000E+00 0. -1.
         13    1    4    4    0    0 -0.36800078391E+02  0.77553776497E+01  0.31708672568E+02  0.49191783543E+02  0.00000000000E+00 0.  1.
        -13    1    3    3    0    0 -0.19950681380E+02 -0.51289379867E+02  0.13362413659E+03  0.14451311377E+03  0.00000000000E+00 0. -1.
         13    1    3    3    0    0  0.19132531640E+02  0.29191154192E+02  0.10402174463E+03  0.10972101260E+03  0.00000000000E+00 0.  1.
          1    1    1    2  501    0  0.55510789814E+01  0.74092768465E+02  0.35897061635E+02  0.82517585100E+02  0.00000000000E+00 0. -1.
<scales pt_clust_5="13000.00000" pt_clust_6="13000.00000" pt_clust_7="13000.00000" pt_clust_8="13000.00000" pt_clust_9="74.30042"></scales>
<clustering>
<clus scale="   74.300">  2  9  1 -1</clus>
<clus scale="   87.581">  7  8 -1 -1</clus>
<clus scale="   87.659">  1  7  2 -1</clus>
<clus scale="   91.598">  5  6 -1 -1</clus>
<clus scale="   74.300">  2  5  1 -1</clus>
</clustering>
</event>
<event>
 9    1  0.1321469E-005  0.9983374E+02  0.7546771E-02  0.1282460E+00
          2   -1    0    0  502    0 -0.00000000000E+00  0.00000000000E+00  0.88558438541E+02  0.88558438541E+02  0.00000000000E+00 0. -1.
         21   -1    0    0  501  502  0.00000000000E+00 -0.00000000000E+00 -0.45808484925E+03  0.45808484925E+03  0.00000000000E+00 0. -1.
         23    2    1    2    0    0  0.16646100654E+02 -0.40885311992E+02  0.43960924396E+02  0.10719190536E+03  0.87228666715E+02 0.  0.
         23    2    1    2    0    0 -0.37526021252E+02 -0.37308407276E+01 -0.29969358306E+03  0.31545303498E+03  0.90951921935E+02 0.  0.
        -11    1    3    3    0    0 -0.24395215622E+02 -0.16334871582E+02 -0.13600168894E+02  0.32356130312E+02  0.00000000000E+00 0.  1.
         11    1    3    3    0    0  0.41041316276E+02 -0.24550440410E+02  0.57561093291E+02  0.74835775046E+02  0.00000000000E+00 0. -1.
        -13    1    4    4    0    0 -0.14107303515E+02 -0.46855366536E+02 -0.13450614417E+03  0.14313051458E+03  0.00000000000E+00 0. -1.
         13    1    4    4    0    0 -0.23418717737E+02  0.43124525808E+02 -0.16518743889E+03  0.17232252039E+03  0.00000000000E+00 0.  1.
          2    1    1    2  501    0  0.20879920598E+02  0.44616152720E+02 -0.11379375204E+03  0.12399834745E+03  0.00000000000E+00 0. -1.
<scales pt_clust_5="13000.00000" pt_clust_6="13000.00000" pt_clust_7="13000.00000" pt_clust_8="13000.00000" pt_clust_9="49.26025"></scales>
<clustering>
<clus scale="   49.260">  2  9  1 -1</clus>
<clus scale="   87.229">  5  6 -1 -1</clus>
<clus scale="   90.952">  7  8 -1 -1</clus>
<clus scale="   96.454">  1  5  2 -1</clus>
<clus scale="   49.260">  2  5  1 -1</clus>
</clustering>
</event>
<event>
 9    1  0.1321469E-005  0.9481237E+02  0.7546771E-02  0.1292840E+00
          1   -1    0    0  502    0 -0.00000000000E+00  0.00000000000E+00  0.49178967151E+03  0.49178967151E+03  0.00000000000E+00 0. -1.
         21   -1    0    0  501  502  0.00000000000E+00 -0.00000000000E+00 -0.65958464207E+02  0.65958464207E+02  0.00000000000E+00 0. -1.
         23    2    1    2    0    0 -0.20923906766E+02  0.13017246893E+02  0.36016665978E+03  0.37222876018E+03  0.90702637758E+02 0.  0.
         23    2    1    2    0    0 -0.16204550148E+01 -0.66537778306E+02  0.63064580756E+02  0.12738629238E+03  0.88432032228E+02 0.  0.
        -11    1    3    3    0    0 -0.56479944360E+02  0.29605579552E+01  0.23587004351E+03  0.24255602743E+03  0.00000000000E+00 0. -1.
         11    1    3    3    0    0  0.35556037595E+02  0.10056688938E+02  0.12429661627E+03  0.12967273274E+03  0.00000000000E+00 0.  1.
        -11    1    4    4    0    0  0.37209269750E+02 -0.62203679968E+01  0.12977190451E+02  0.39895240385E+02  0.00000000000E+00 0.  1.
         11    1    4    4    0    0 -0.38829724765E+02 -0.60317410310E+02  0.50087390305E+02  0.87491051996E+02  0.00000000000E+00 0. -1.
          1    1    1    2  501    0  0.22544361781E+02  0.53520531413E+02  0.25999667732E+01  0.58133083163E+02  0.00000000000E+00 0. -1.
<scales pt_clust_5="13000.00000" pt_clust_6="13000.00000" pt_clust_7="13000.00000" pt_clust_8="13000.00000" pt_clust_9="58.07491"></scales>
<clustering>
<clus scale="   58.075">  2  9  1 -1</clus>
<clus scale="   88.432">  7  8 -1 -1</clus>
<clus scale="   90.703">  5  6 -1 -1</clus>
<clus scale="   92.643">  2  7  1 -1</clus>
<clus scale="   58.075">  2  5  1 -1</clus>
</clustering>
</event>
<event>
 9    1  0.1321469E-005  0.1060084E+03  0.7546771E-02  0.1268933E+00
         21   -1    0    0  501  502  0.00000000000E+00  0.00000000000E+00  0.32674444830E+03  0.32674444830E+03  0.00000000000E+00 0.  1.
          1   -1    0    0  502    0 -0.00000000000E+00 -0.00000000000E+00 -0.54060193590E+02  0.54060193590E+02  0.00000000000E+00 0. -1.
         23    2    1    2    0    0 -0.29726690481E+02 -0.29697721018E+02  0.70022855887E+02  0.12207938585E+03  0.90744395659E+02 0.  0.
         23    2    1    2    0    0  0.69002472145E+02  0.18004018989E+02  0.12637745078E+03  0.17213096973E+03  0.92586850099E+02 0.  0.
        -11    1    4    4    0    0  0.57207471602E+02 -0.23287108193E+02  0.11003217249E+03  0.12618265807E+03  0.00000000000E+00 0.  1.
         11    1    4    4    0    0  0.11795000543E+02  0.41291127183E+02  0.16345278297E+02  0.45948311660E+02  0.00000000000E+00 0. -1.
        -11    1    3    3    0    0 -0.43856724852E+02  0.14724425315E+02  0.57521353356E+02  0.73816848399E+02  0.00000000000E+00 0. -1.
         11    1    3    3    0    0  0.14130034371E+02 -0.44422146333E+02  0.12501502531E+02  0.48262537456E+02  0.00000000000E+00 0.  1.
          1    1    1    2  501    0 -0.39275781663E+02  0.11693702029E+02  0.76283948036E+02  0.86594286303E+02  0.00000000000E+00 0. -1.
<scales pt_clust_5="13000.00000" pt_clust_6="13000.00000" pt_clust_7="13000.00000" pt_clust_8="13000.00000" pt_clust_9="40.97963"></scales>
<clustering>
<clus scale="   40.980">  1  9  2 -1</clus>
<clus scale="   90.744">  7  8 -1 -1</clus>
<clus scale="   92.587">  5  6 -1 -1</clus>
<clus scale="  104.403">  2  7  1 -1</clus>
<clus scale="   40.980">  1  5  2 -1</clus>
</clustering>
</event>
<event>
 9    1  0.1321469E-005  0.1183867E+03  0.7546771E-02  0.1246177E+00
         21   -1    0    0  501  502  0.00000000000E+00  0.00000000000E+00  0.13836194955E+03  0.13836194955E+03  0.00000000000E+00 0. -1.
         -2   -1    0    0    0  501 -0.00000000000E+00 -0.00000000000E+00 -0.18518248279E+03  0.18518248279E+03  0.00000000000E+00 0.  1.
         23    2    1    2    0    0 -0.76389740390E+02  0.20795249417E+02 -0.50908676200E+02  0.13132834338E+03  0.91583872089E+02 0.  0.
         23    2    1    2    0    0  0.69989263561E+02  0.16949884731E+02  0.55439315420E+02  0.12816451467E+03  0.90370512444E+02 0.  0.
        -11    1    4    4    0    0  0.63515194872E+02 -0.26445699330E+02  0.47425672535E+02  0.83562847056E+02  0.00000000000E+00 0. -1.
         11    1    4    4    0    0  0.64740686892E+01  0.43395584061E+02  0.80136428849E+01  0.44601667611E+02  0.00000000000E+00 0.  1.
        -11    1    3    3    0    0  0.39726924107E+01 -0.24481182600E+02  0.21891079325E+01  0.24897846895E+02  0.00000000000E+00 0. -1.
         11    1    3    3    0    0 -0.80362432801E+02  0.45276432017E+02 -0.53097784132E+02  0.10643049648E+03  0.00000000000E+00 0.  1.
         -2    1    1    2    0  502  0.64004768288E+01 -0.37745134148E+02 -0.51351172464E+02  0.64051574289E+02  0.00000000000E+00 0.  1.
<scales pt_clust_5="13000.00000" pt_clust_6="13000.00000" pt_clust_7="13000.00000" pt_clust_8="13000.00000" pt_clust_9="38.28397"></scales>
<clustering>
<clus scale="   38.284">  1  9  2 -1</clus>
<clus scale="   90.371">  5  6 -1 -1</clus>
<clus scale="   91.584">  7  8 -1 -1</clus>
<clus scale="  117.451">  1  5  2 -1</clus>
<clus scale="   38.284">  1  5  2 -1</clus>
</clustering>
</event>
<event>
 9    1  0.1321469E-005  0.2245866E+03  0.7546771E-02  0.1132763E+00
          2   -1    0    0  502    0 -0.00000000000E+00  0.00000000000E+00  0.23548715856E+03  0.23548715856E+03  0.00000000000E+00 0. -1.
         21   -1    0    0  501  502  0.00000000000E+00 -0.00000000000E+00 -0.25164361462E+03  0.25164361462E+03  0.00000000000E+00 0.  1.
         23    2    1    2    0    0 -0.10882941774E+03 -0.16730942598E+03  0.59203839984E+02  0.21565861065E+03  0.56278375015E+02 0.  0.
         23    2    1    2    0    0  0.10113794616E+03  0.19133597905E+03 -0.72755412236E+02  0.24611039194E+03  0.91862037751E+02 0.  0.
        -13    1    3    3    0    0 -0.99293799045E+02 -0.14936483922E+03  0.70137039999E+02  0.19258327577E+03  0.00000000000E+00 0. -1.
         13    1    3    3    0    0 -0.95356186967E+01 -0.17944586753E+02 -0.10933200015E+02  0.23075334889E+02  0.00000000000E+00 0.  1.
        -13    1    4    4    0    0  0.68222863476E+02  0.19031932982E+03 -0.62927000451E+02  0.21174421785E+03  0.00000000000E+00 0.  1.
         13    1    4    4    0    0  0.32915082686E+02  0.10166492269E+01 -0.98284117851E+01  0.34366174098E+02  0.00000000000E+00 0. -1.
          2    1    1    2  501    0  0.76914715789E+01 -0.24026553075E+02 -0.26048838097E+01  0.25361770588E+02  0.00000000000E+00 0. -1.
<scales pt_clust_5="13000.00000" pt_clust_6="13000.00000" pt_clust_7="13000.00000" pt_clust_8="13000.00000" pt_clust_9="25.22764"></scales>
<clustering>
<clus scale="   25.228">  2  9  1 -1</clus>
<clus scale="   56.278">  5  6 -1 -1</clus>
<clus scale="   91.862">  7  8 -1 -1</clus>
<clus scale="  212.527">  1  5  2 -1</clus>
<clus scale="   25.228">  2  5  1 -1</clus>
</clustering>
</event>
<event>
 9    1  0.1321469E-005  0.1187862E+03  0.7546771E-02  0.1246754E+00
         21   -1    0    0  501  502  0.00000000000E+00  0.00000000000E+00  0.29596599958E+03  0.29596599958E+03  0.00000000000E+00 0. -1.
         -3   -1    0    0    0  501 -0.00000000000E+00 -0.00000000000E+00 -0.69080859270E+02  0.69080859270E+02  0.00000000000E+00 0.  1.
         23    2    1    2    0    0  0.43033996676E+02 -0.54506419560E+02  0.25671484819E+02  0.12073748865E+03  0.95371072082E+02 0.  0.
         23    2    1    2    0    0 -0.30038321030E+02  0.69998902043E+02  0.16980840122E+03  0.20695706646E+03  0.90521749947E+02 0.  0.
        -13    1    3    3    0    0  0.68135778209E+02 -0.33519932600E+02  0.39052143986E+02  0.85388173089E+02  0.00000000000E+00 0.  1.
         13    1    3    3    0    0 -0.25101781533E+02 -0.20986486960E+02 -0.13380659166E+02  0.35349315563E+02  0.00000000000E+00 0. -1.
        -13    1    4    4    0    0 -0.50288854085E+02  0.80830722218E+02  0.14070940392E+03  0.16988734753E+03  0.00000000000E+00 0. -1.
         13    1    4    4    0    0  0.20250533055E+02 -0.10831820175E+02  0.29098997297E+02  0.37069718923E+02  0.00000000000E+00 0.  1.
         -3    1    1    2    0  502 -0.12995675646E+02 -0.15492482484E+02  0.31405254273E+02  0.37352303744E+02  0.00000000000E+00 0.  1.
<scales pt_clust_5="13000.00000" pt_clust_6="13000.00000" pt_clust_7="13000.00000" pt_clust_8="13000.00000" pt_clust_9="20.22139"></scales>
<clustering>
<clus scale="   20.221">  1  9  2 -1</clus>
<clus scale="   90.522">  7  8 -1 -1</clus>
<clus scale="   95.371">  5  6 -1 -1</clus>
<clus scale="  114.929">  1  7  2 -1</clus>
<clus scale="   20.221">  1  5  2 -1</clus>
</clustering>
</event>
<event>
 9    1  0.1321469E-005  0.1647422E+03  0.7546771E-02  0.1183761E+00
         21   -1    0    0  501  502  0.00000000000E+00  0.00000000000E+00  0.48639747791E+02  0.48639747791E+02  0.00000000000E+00 0.  1.
          2   -1    0    0  502    0 -0.00000000000E+00 -0.00000000000E+00 -0.72637124203E+03  0.72637124203E+03  0.00000000000E+00 0. -1.
         23    2    1    2    0    0  0.30283245654E+02  0.13943626183E+03 -0.32084387018E+03  0.36327227322E+03  0.93093551753E+02 0.  0.
         23    2    1    2    0    0 -0.95617173911E+01 -0.12782900685E+03 -0.20675230732E+03  0.25973633690E+03  0.91020693758E+02 0.  0.
        -11    1    3    3    0    0 -0.25625297937E+02  0.14029490739E+02 -0.90625149734E+02  0.95217646837E+02  0.00000000000E+00 0. -1.
         11    1    3    3    0    0  0.55908543590E+02  0.12540677109E+03 -0.23021872045E+03  0.26805462638E+03  0.00000000000E+00 0.  1.
        -11    1    4    4    0    0 -0.34917094271E+02 -0.96625907938E+01 -0.43340188268E+02  0.56488415205E+02  0.00000000000E+00 0.  1.
         11    1    4    4    0    0  0.25355376880E+02 -0.11816641606E+03 -0.16341211905E+03  0.20324792170E+03  0.00000000000E+00 0. -1.
          2    1    1    2  501    0 -0.20721528263E+02 -0.11607254979E+02 -0.15013531674E+03  0.15200237970E+03  0.00000000000E+00 0. -1.
<scales pt_clust_5="13000.00000" pt_clust_6="13000.00000" pt_clust_7="13000.00000" pt_clust_8="13000.00000" pt_clust_9="23.75101"></scales>
<clustering>
<clus scale="   23.751">  1  9  2 -1</clus>
<clus scale="   91.021">  7  8 -1 -1</clus>
<clus scale="   93.094">  5  6 -1 -1</clus>
<clus scale="  163.580">  1  7  2 -1</clus>
<clus scale="   23.751">  1  5  2 -1</clus>
</clustering>
</event>
<event>
 9    1  0.1321469E-005  0.1090926E+03  0.7546771E-02  0.1262444E+00
         21   -1    0    0  501  502  0.00000000000E+00  0.00000000000E+00  0.53775709277E+03  0.53775709277E+03  0.00000000000E+00 0.  1.
         -1   -1    0    0    0  501 -0.00000000000E+00 -0.00000000000E+00 -0.63543999280E+02  0.63543999280E+02  0.00000000000E+00 0.  1.
         23    2    1    2    0    0 -0.47964846557E+02  0.36381049158E+02  0.90176471511E+00  0.10957992058E+03  0.91557296656E+02 0.  0.
         23    2    1    2    0    0  0.54016566228E+02 -0.17273902044E+02  0.32977685327E+03  0.34679411382E+03  0.91089007614E+02 0.  0.
        -13    1    3    3    0    0 -0.14308993953E+02 -0.27959699142E+02 -0.15671215608E+02  0.35100984071E+02  0.00000000000E+00 0. -1.
         13    1    3    3    0    0 -0.33655852604E+02  0.64340748300E+02  0.16572980324E+02  0.74478936506E+02  0.00000000000E+00 0.  1.
        -13    1    4    4    0    0  0.32403072917E+02 -0.54949235043E+02  0.20247363488E+03  0.21228506869E+03  0.00000000000E+00 0. -1.
         13    1    4    4    0    0  0.21613493311E+02  0.37675332999E+02  0.12730321840E+03  0.13450904514E+03  0.00000000000E+00 0.  1.
         -1    1    1    2    0  502 -0.60517196710E+01 -0.19107147113E+02  0.14353447550E+03  0.14492705765E+03  0.00000000000E+00 0.  1.
<scales pt_clust_5="13000.00000" pt_clust_6="13000.00000" pt_clust_7="13000.00000" pt_clust_8="13000.00000" pt_clust_9="20.04261"></scales>
<clustering>
<clus scale="   20.043">  1  9  2 -1</clus>
<clus scale="   91.089">  7  8 -1 -1</clus>
<clus scale="   91.557">  5  6 -1 -1</clus>
<clus scale="  108.700">  1  7  2 -1</clus>
<clus scale="   20.043">  1  5  2 -1</clus>
</clustering>
</event>
<event>
 9    1  0.1321469E-005  0.1054924E+03  0.7546771E-02  0.1270135E+00
          1   -1    0    0  502    0 -0.00000000000E+00  0.00000000000E+00  0.40909493839E+03  0.40909493839E+03  0.00000000000E+00 0. -1.
         21   -1    0    0  501  502  0.00000000000E+00 -0.00000000000E+00 -0.42260099131E+02  0.42260099131E+02  0.00000000000E+00 0.  1.
         23    2    1    2    0    0 -0.33423631153E+02  0.37372241047E+02  0.26585289869E+03  0.28596285230E+03  0.92645375686E+02 0.  0.
         23    2    1    2    0    0  0.51276709086E+02 -0.20567062832E+02  0.87622211046E+02  0.13747035184E+03  0.90377767164E+02 0.  0.
        -11    1    3    3    0    0  0.19016771101E+02  0.16683192432E+02  0.16236486709E+02  0.30059773677E+02  0.00000000000E+00 0.  1.
         11    1    3    3    0    0 -0.52440402254E+02  0.20689048615E+02  0.24961641198E+03  0.25590307862E+03  0.00000000000E+00 0. -1.
        -11    1    4    4    0    0  0.74492054745E+02  0.36848549368E+00  0.58081421969E+02  0.94459798748E+02  0.00000000000E+00 0.  1.
         11    1    4    4    0    0 -0.23215345659E+02 -0.20935548325E+02  0.29540789077E+02  0.43010553089E+02  0.00000000000E+00 0. -1.
          1    1    1    2  501    0 -0.17853077932E+02 -0.16805178215E+02  0.13359729532E+02  0.27921833387E+02  0.00000000000E+00 0. -1.
<scales pt_clust_5="13000.00000" pt_clust_6="13000.00000" pt_clust_7="13000.00000" pt_clust_8="13000.00000" pt_clust_9="24.51829"></scales>
<clustering>
<clus scale="   24.518">  2  9  1 -1</clus>
<clus scale="   90.378">  7  8 -1 -1</clus>
<clus scale="   92.645">  5  6 -1 -1</clus>
<clus scale="  103.507">  2  7  1 -1</clus>
<clus scale="   24.518">  2  5  1 -1</clus>
</clustering>
</event>
<event>
 9    1  0.1321469E-005  0.1000438E+03  0.7546771E-02  0.1281338E+00
         -1   -1    0    0    0  501 -0.00000000000E+00  0.00000000000E+00  0.27823352353E+03  0.27823352353E+03  0.00000000000E+00 0.  1.
         21   -1    0    0  501  502  0.00000000000E+00 -0.00000000000E+00 -0.11434984779E+03  0.11434984779E+03  0.00000000000E+00 0.  1.
         23    2    1    2    0    0 -0.30804487033E+02 -0.11772806318E+02  0.21241688071E+03  0.23382435690E+03  0.92007517512E+02 0.  0.
         23    2    1    2    0    0  0.22566168561E+02  0.36620738072E+02 -0.10677766177E-01  0.10362531101E+03  0.94275630723E+02 0.  0.
        -11    1    4    4    0    0  0.15740383061E+02  0.67243232713E+02 -0.11891229852E+02  0.70077195663E+02  0.00000000000E+00 0. -1.
         11    1    4    4    0    0  0.68257855003E+01 -0.30622494641E+02  0.11880552086E+02  0.33548115351E+02  0.00000000000E+00 0.  1.
        -13    1    3    3    0    0 -0.30429631894E+02  0.20502321685E+02  0.26838726597E+02  0.45460146689E+02  0.00000000000E+00 0. -1.
         13    1    3    3    0    0 -0.37485513949E+00 -0.32275128003E+02  0.18557815412E+03  0.18836421021E+03  0.00000000000E+00 0.  1.
         -1    1    1    2    0  502  0.82383184723E+01 -0.24847931754E+02 -0.48522527209E+02  0.55133703399E+02  0.00000000000E+00 0.  1.
<scales pt_clust_5="13000.00000" pt_clust_6="13000.00000" pt_clust_7="13000.00000" pt_clust_8="13000.00000" pt_clust_9="26.17804"></scales>
<clustering>
<clus scale="   26.178">  2  9  1 -1</clus>
<clus scale="   92.008">  7  8 -1 -1</clus>
<clus scale="   94.276">  5  6 -1 -1</clus>
<clus scale="   97.909">  1  7  2 -1</clus>
<clus scale="   26.178">  2  5  1 -1</clus>
</clustering>
</event>
<event>
 9    1  0.1321469E-005  0.9257538E+02  0.7546771E-02  0.1299077E+00
          1   -1    0    0  502    0 -0.00000000000E+00  0.00000000000E+00  0.55031096740E+03  0.55031096740E+03  0.00000000000E+00 0. -1.
         21   -1    0    0  501  502  0.00000000000E+00 -0.00000000000E+00 -0.30588793730E+02  0.30588793730E+02  0.00000000000E+00 0.  1.
         23    2    1    2    0    0 -0.98902249190E+01  0.14732174253E+02  0.26256649044E+03  0.27672637618E+03  0.85565599798E+02 0.  0.
         23    2    1    2    0    0  0.37763091706E+02  0.32163805639E+01  0.25261632484E+03  0.27071216713E+03  0.89630762907E+02 0.  0.
        -13    1    3    3    0    0 -0.24052104038E+01 -0.30515600664E+02  0.17715860840E+03  0.17978364623E+03  0.00000000000E+00 0.  1.
         13    1    3    3    0    0 -0.74850145152E+01  0.45247774917E+02  0.85407882032E+02  0.96942729952E+02  0.00000000000E+00 0. -1.
        -13    1    4    4    0    0  0.66669202915E+02  0.98819608616E+01  0.16618310020E+03  0.17933002693E+03  0.00000000000E+00 0. -1.
         13    1    4    4    0    0 -0.28906111208E+02 -0.66655802978E+01  0.86433224643E+02  0.91382140203E+02  0.00000000000E+00 0.  1.
          1    1    1    2  501    0 -0.27872866787E+02 -0.17948554817E+02  0.45393583946E+01  0.33461217814E+02  0.00000000000E+00 0. -1.
<scales pt_clust_5="13000.00000" pt_clust_6="13000.00000" pt_clust_7="13000.00000" pt_clust_8="13000.00000" pt_clust_9="33.15188"></scales>
<clustering>
<clus scale="   33.152">  2  9  1 -1</clus>
<clus scale="   85.566">  5  6 -1 -1</clus>
<clus scale="   88.645">  1  5  2 -1</clus>
<clus scale="   89.631">  7  8 -1 -1</clus>
<clus scale="   33.152">  2  5  1 -1</clus>
</clustering>
</event>
<event>
 9    1  0.1321469E-005  0.1482286E+03  0.7546771E-02  0.1202926E+00
         -1   -1    0    0    0  501 -0.00000000000E+00  0.00000000000E+00  0.18088429639E+03  0.18088429639E+03  0.00000000000E+00 0.  1.
         21   -1    0    0  501  502  0.00000000000E+00 -0.00000000000E+00 -0.36229931937E+03  0.36229931937E+03  0.00000000000E+00 0.  1.
         23    2    1    2    0    0 -0.13837039596E+03  0.82645110290E+02  0.61918821178E+02  0.19514773584E+03  0.90951182814E+02 0.  0.
         23    2    1    2    0    0  0.53727874198E+02 -0.35674696156E+02 -0.34334759424E+02  0.11770743245E+03  0.92286486215E+02 0.  0.
        -11    1    4    4    0    0  0.59726836590E+02 -0.12163214385E+01 -0.51383026742E+02  0.78797143882E+02  0.00000000000E+00 0.  1.
         11    1    4    4    0    0 -0.59989623919E+01 -0.34458374718E+02  0.17048267318E+02  0.38910288569E+02  0.00000000000E+00 0. -1.
        -13    1    3    3    0    0 -0.46729859028E+02  0.76937950135E+02  0.48808991507E+02  0.10239846458E+03  0.00000000000E+00 0.  1.
         13    1    3    3    0    0 -0.91640536932E+02  0.57071601549E+01  0.13109829671E+02  0.92749271265E+02  0.00000000000E+00 0. -1.
         -1    1    1    2    0  502  0.84642521762E+02 -0.46970414134E+02 -0.20899908474E+03  0.23032844747E+03  0.00000000000E+00 0.  1.
<scales pt_clust_5="13000.00000" pt_clust_6="13000.00000" pt_clust_7="13000.00000" pt_clust_8="13000.00000" pt_clust_9="96.80174"></scales>
<clustering>
<clus scale="   90.951">  7  8 -1 -1</clus>
<clus scale="   92.286">  5  6 -1 -1</clus>
<clus scale="   96.802">  2  9  1 -1</clus>
<clus scale="  147.401">  1  7  2 -1</clus>
<clus scale="   96.802">  2  5  1 -1</clus>
</clustering>
</event>
<event>
 9    1  0.1321469E-005  0.3783278E+03  0.7546771E-02  0.1051588E+00
         21   -1    0    0  501  502  0.00000000000E+00  0.00000000000E+00  0.17405372556E+04  0.17405372556E+04  0.00000000000E+00 0.  1.
          1   -1    0    0  502    0 -0.00000000000E+00 -0.00000000000E+00 -0.60239840173E+03  0.60239840173E+03  0.00000000000E+00 0. -1.
         23    2    1    2    0    0  0.13807219479E+02  0.36150850780E+03 -0.48159490345E+03  0.60884215308E+03  0.88747258108E+02 0.  0.
         23    2    1    2    0    0 -0.73933713420E+02 -0.47189969676E+03  0.11662149027E+04  0.12634760786E+04  0.90327648223E+02 0.  0.
        -11    1    3    3    0    0  0.15509903430E+02  0.10651961830E+03 -0.84159043308E+02  0.13663722318E+03  0.00000000000E+00 0.  1.
         11    1    3    3    0    0 -0.17026839515E+01  0.25498888950E+03 -0.39743586014E+03  0.47220492990E+03  0.00000000000E+00 0. -1.
        -11    1    4    4    0    0 -0.20390686362E+02 -0.34922682501E+03  0.78409281441E+03  0.85858994695E+03  0.00000000000E+00 0.  1.
         11    1    4    4    0    0 -0.53543027058E+02 -0.12267287175E+03  0.38212208833E+03  0.40488613165E+03  0.00000000000E+00 0. -1.
          1    1    1    2  501    0  0.60126493942E+02  0.11039118896E+03  0.45351885462E+03  0.47061742570E+03  0.00000000000E+00 0. -1.
<scales pt_clust_5="13000.00000" pt_clust_6="13000.00000" pt_clust_7="13000.00000" pt_clust_8="13000.00000" pt_clust_9="125.70366"></scales>
<clustering>
<clus scale="   88.747">  5  6 -1 -1</clus>
<clus scale="   90.328">  7  8 -1 -1</clus>
<clus scale="  125.704">  1  9  2 -1</clus>
<clus scale="  377.954">  2  5  1 -1</clus>
<clus scale="  125.704">  1  5  2 -1</clus>
</clustering>
</event>
<event>
 9    1  0.1321469E-005  0.1243116E+03  0.7546771E-02  0.1237001E+00
          1   -1    0    0  502    0 -0.00000000000E+00  0.00000000000E+00  0.67493955131E+03  0.67493955131E+03  0.00000000000E+00 0. -1.
         21   -1    0    0  501  502  0.00000000000E+00 -0.00000000000E+00 -0.45559351103E+02  0.45559351103E+02  0.00000000000E+00 0.  1.
         23    2    1    2    0    0 -0.78209657369E+02 -0.36249652037E+01  0.27368039336E+03  0.29953589104E+03  0.93225004325E+02 0.  0.
         23    2    1    2    0    0  0.74244055436E+02 -0.69589435065E+02  0.29820959888E+03  0.32779006242E+03  0.90346504718E+02 0.  0.
        -11    1    3    3    0    0 -0.47578931319E+02  0.20165628090E+02  0.47942314117E+02  0.70490231555E+02  0.00000000000E+00 0.  1.
         11    1    3    3    0    0 -0.30630726049E+02 -0.23790593294E+02  0.22573807924E+03  0.22904565948E+03  0.00000000000E+00 0. -1.
        -13    1    4    4    0    0  0.39443558178E+02  0.11685902736E+02  0.14681964701E+03  0.15247413995E+03  0.00000000000E+00 0.  1.
         13    1    4    4    0    0  0.34800497259E+02 -0.81275337801E+02  0.15138995187E+03  0.17531592247E+03  0.00000000000E+00 0. -1.
          1    1    1    2  501    0  0.39656019320E+01  0.73214400269E+02  0.57490207967E+02  0.93172948958E+02  0.00000000000E+00 0. -1.
<scales pt_clust_5="13000.00000" pt_clust_6="13000.00000" pt_clust_7="13000.00000" pt_clust_8="13000.00000" pt_clust_9="73.32172"></scales>
<clustering>
<clus scale="   73.322">  2  9  1 -1</clus>
<clus scale="   90.347">  7  8 -1 -1</clus>
<clus scale="   93.225">  5  6 -1 -1</clus>
<clus scale="  122.168">  2  7  1 -1</clus>
<clus scale="   73.322">  2  5  1 -1</clus>
</clustering>
</event>
<event>
 9    1  0.1321469E-005  0.1107286E+03  0.7546771E-02  0.1259644E+00
          1   -1    0    0  502    0 -0.00000000000E+00  0.00000000000E+00  0.83255452394E+03  0.83255452394E+03  0.00000000000E+00 0. -1.
         21   -1    0    0  501  502  0.00000000000E+00 -0.00000000000E+00 -0.20490070382E+02  0.20490070382E+02  0.00000000000E+00 0.  1.
         23    2    1    2    0    0 -0.51254230702E+02  0.66032067002E+01  0.43553661963E+03  0.44831782057E+03  0.92876922311E+02 0.  0.
         23    2    1    2    0    0  0.69608330255E+02  0.86561355446E+01  0.34963335498E+03  0.36876799883E+03  0.93947356123E+02 0.  0.
        -13    1    3    3    0    0 -0.10868648879E+01  0.39524775676E+02  0.10140560381E+03  0.10884156215E+03  0.00000000000E+00 0. -1.
         13    1    3    3    0    0 -0.50167365814E+02 -0.32921568976E+02  0.33413101582E+03  0.33947625842E+03  0.00000000000E+00 0.  1.
        -13    1    4    4    0    0  0.25517096142E+02  0.38949767048E+02  0.70059918652E+02  0.84122522252E+02  0.00000000000E+00 0.  1.
         13    1    4    4    0    0  0.44091234113E+02 -0.30293631503E+02  0.27957343633E+03  0.28464547658E+03  0.00000000000E+00 0. -1.
          1    1    1    2  501    0 -0.18354099553E+02 -0.15259342245E+02  0.26894478949E+02  0.35958774925E+02  0.00000000000E+00 0. -1.
<scales pt_clust_5="13000.00000" pt_clust_6="13000.00000" pt_clust_7="13000.00000" pt_clust_8="13000.00000" pt_clust_9="23.86882"></scales>
<clustering>
<clus scale="   23.869">  2  9  1 -1</clus>
<clus scale="   92.877">  5  6 -1 -1</clus>
<clus scale="   93.947">  7  8 -1 -1</clus>
<clus scale="  109.822">  1  5  2 -1</clus>
<clus scale="   23.869">  2  5  1 -1</clus>
</clustering>
</event>
<event>
 9    1  0.1321469E-005  0.2054490E+03  0.7546771E-02  0.1169826E+00
          1   -1    0    0  502    0 -0.00000000000E+00  0.00000000000E+00  0.77331271114E+03  0.77331271114E+03  0.00000000000E+00 0. -1.
         21   -1    0    0  501  502  0.00000000000E+00 -0.00000000000E+00 -0.97420476403E+02  0.97420476403E+02  0.00000000000E+00 0.  1.
         23    2    1    2    0    0  0.60807834441E+02 -0.25581409118E+02  0.24573335773E+03  0.27155285972E+03  0.94889784988E+02 0.  0.
         23    2    1    2    0    0 -0.14661171250E+03  0.14400702650E+03  0.11761952400E+03  0.25411833409E+03  0.92242925879E+02 0.  0.
        -11    1    4    4    0    0 -0.75057343537E+02  0.13310165983E+03  0.76783273065E+02  0.17101265360E+03  0.00000000000E+00 0.  1.
         11    1    4    4    0    0 -0.71554368963E+02  0.10905366662E+02  0.40836250934E+02  0.83105680493E+02  0.00000000000E+00 0. -1.
        -11    1    3    3    0    0  0.82923280327E+01 -0.33481931203E+02  0.20461342847E+02  0.40105722440E+02  0.00000000000E+00 0.  1.
         11    1    3    3    0    0  0.52515506408E+02  0.79005220855E+01  0.22527201489E+03  0.23144713728E+03  0.00000000000E+00 0. -1.
          1    1    1    2  501    0  0.85803878060E+02 -0.11842561738E+03  0.31253935301E+03  0.34506199374E+03  0.00000000000E+00 0. -1.
<scales pt_clust_5="13000.00000" pt_clust_6="13000.00000" pt_clust_7="13000.00000" pt_clust_8="13000.00000" pt_clust_9="183.57713"></scales>
<clustering>
<clus scale="   92.243">  5  6 -1 -1</clus>
<clus scale="   94.890">  7  8 -1 -1</clus>
<clus scale="  115.568">  1  7  2 -1</clus>
<clus scale="  183.577">  2  9  1 -1</clus>
<clus scale="  183.577">  2  5  1 -1</clus>
</clustering>
</event>
<event>
 9    1  0.1321469E-005  0.1510177E+03  0.7546771E-02  0.1213733E+00
         21   -1    0    0  501  502  0.00000000000E+00  0.00000000000E+00  0.45306451950E+02  0.45306451950E+02  0.00000000000E+00 0. -1.
          2   -1    0    0  502    0 -0.00000000000E+00 -0.00000000000E+00 -0.10750403580E+04  0.10750403580E+04  0.00000000000E+00 0. -1.
         23    2    1    2    0    0  0.52468063341E+02  0.50695759228E+02 -0.52604945961E+03  0.53754746637E+03  0.83104073155E+02 0.  0.
         23    2    1    2    0    0 -0.76489141605E+02  0.86295683235E+02 -0.19532987688E+03  0.24452991239E+03  0.91343218250E+02 0.  0.
        -11    1    3    3    0    0  0.40572151153E+02 -0.12765238880E+02 -0.14665540601E+03  0.15269858835E+03  0.00000000000E+00 0.  1.
         11    1    3    3    0    0  0.11895912188E+02  0.63460998108E+02 -0.37939405360E+03  0.38484887802E+03  0.00000000000E+00 0. -1.
        -11    1    4    4    0    0 -0.19809593694E+02  0.36135511718E+02 -0.15163545050E+03  0.15713530812E+03  0.00000000000E+00 0. -1.
         11    1    4    4    0    0 -0.56679547911E+02  0.50160171517E+02 -0.43694426382E+02  0.87394604267E+02  0.00000000000E+00 0.  1.
          2    1    1    2  501    0  0.24021078264E+02 -0.13699144246E+03 -0.30835456954E+03  0.33826943117E+03  0.00000000000E+00 0. -1.
<scales pt_clust_5="13000.00000" pt_clust_6="13000.00000" pt_clust_7="13000.00000" pt_clust_8="13000.00000" pt_clust_9="120.26123"></scales>
<clustering>
<clus scale="   83.104">  5  6 -1 -1</clus>
<clus scale="   91.343">  7  8 -1 -1</clus>
<clus scale="  110.586">  2  5  1 -1</clus>
<clus scale="  120.261">  1  9  2 -1</clus>
<clus scale="  120.261">  1  5  2 -1</clus>
</clustering>
</event>
<event>
 9    1  0.1321469E-005  0.1359279E+03  0.7546771E-02  0.1218942E+00
         -1   -1    0    0    0  501 -0.00000000000E+00  0.00000000000E+00  0.47524102717E+02  0.47524102717E+02  0.00000000000E+00 0.  1.
         21   -1    0    0  501  502  0.00000000000E+00 -0.00000000000E+00 -0.88481522398E+03  0.88481522398E+03  0.00000000000E+00 0.  1.
         23    2    1    2    0    0  0.75029170671E+02  0.15067365320E+02 -0.15615928069E+03  0.19626575766E+03  0.90984200466E+02 0.  0.
         23    2    1    2    0    0 -0.15945214208E+03  0.12356729998E+02 -0.38081629619E+03  0.42291427203E+03  0.90872194058E+02 0.  0.
        -13    1    3    3    0    0  0.39096880453E+02  0.30664206685E+02 -0.18301660839E+02  0.52951019086E+02  0.00000000000E+00 0.  1.
         13    1    3    3    0    0  0.35932290218E+02 -0.15596841365E+02 -0.13785761985E+03  0.14331473858E+03  0.00000000000E+00 0. -1.
        -13    1    4    4    0    0 -0.55391850034E+01 -0.23290059512E+02 -0.31784874577E+02  0.39791804363E+02  0.00000000000E+00 0. -1.
         13    1    4    4    0    0 -0.15391295708E+03  0.35646789510E+02 -0.34903142162E+03  0.38312246767E+03  0.00000000000E+00 0.  1.
         -1    1    1    2    0  502  0.84422971408E+02 -0.27424095318E+02 -0.30031554438E+03  0.31315929701E+03  0.00000000000E+00 0.  1.
<scales pt_clust_5="13000.00000" pt_clust_6="13000.00000" pt_clust_7="13000.00000" pt_clust_8="13000.00000" pt_clust_9="88.76553"></scales>
<clustering>
<clus scale="   88.766">  2  9  1 -1</clus>
<clus scale="   90.872">  7  8 -1 -1</clus>
<clus scale="   90.984">  5  6 -1 -1</clus>
<clus scale="  135.853">  2  7  1 -1</clus>
<clus scale="   88.766">  2  5  1 -1</clus>
</clustering>
</event>
<event>
 9    1  0.1321469E-005  0.2025129E+03  0.7546771E-02  0.1178182E+00
          1   -1    0    0  502    0 -0.00000000000E+00  0.00000000000E+00  0.45408926553E+03  0.45408926553E+03  0.00000000000E+00 0. -1.
         21   -1    0    0  501  502  0.00000000000E+00 -0.00000000000E+00 -0.19847343928E+03  0.19847343928E+03  0.00000000000E+00 0. -1.
         23    2    1    2    0    0  0.52900870302E+02  0.10240485175E+02  0.22500714606E+03  0.24615033107E+03  0.84014285055E+02 0.  0.
         23    2    1    2    0    0 -0.40212976657E+02  0.17579667007E+03 -0.41793660246E+02  0.20638011465E+03  0.91238637577E+02 0.  0.
        -11    1    4    4    0    0 -0.23800476126E+02 -0.15686826068E+01 -0.73356935967E+01  0.24954675504E+02  0.00000000000E+00 0.  1.
         11    1    4    4    0    0 -0.16412500531E+02  0.17736535268E+03 -0.34457966649E+02  0.18142543915E+03  0.00000000000E+00 0. -1.
        -13    1    3    3    0    0  0.62005228943E+02  0.35553216644E+02  0.14343072310E+03  0.16025308720E+03  0.00000000000E+00 0.  1.
         13    1    3    3    0    0 -0.91043586416E+01 -0.25312731469E+02  0.81576422964E+02  0.85897243869E+02  0.00000000000E+00 0. -1.
          1    1    1    2  501    0 -0.12687893644E+02 -0.18603715524E+03  0.72402340431E+02  0.20003225909E+03  0.00000000000E+00 0. -1.
<scales pt_clust_5="13000.00000" pt_clust_6="13000.00000" pt_clust_7="13000.00000" pt_clust_8="13000.00000" pt_clust_9="180.79557"></scales>
<clustering>
<clus scale="   84.014">  7  8 -1 -1</clus>
<clus scale="   91.239">  5  6 -1 -1</clus>
<clus scale="   99.809">  1  7  2 -1</clus>
<clus scale="  180.796">  2  9  1 -1</clus>
<clus scale="  180.796">  2  5  1 -1</clus>
</clustering>
</event>
<event>
 9    1  0.1321469E-005  0.9386865E+02  0.7546771E-02  0.1294036E+00
          2   -1    0    0  502    0 -0.00000000000E+00  0.00000000000E+00  0.31687443918E+03  0.31687443918E+03  0.00000000000E+00 0. -1.
         21   -1    0    0  501  502  0.00000000000E+00 -0.00000000000E+00 -0.13803171261E+03  0.13803171261E+03  0.00000000000E+00 0.  1.
         23    2    1    2    0    0  0.72044910845E+01  0.18569858110E+02  0.21287526575E+03  0.23285960064E+03  0.92254921385E+02 0.  0.
         23    2    1    2    0    0  0.12898254150E+02 -0.14255217983E+02  0.69377053148E+02  0.11661277918E+03  0.91737607149E+02 0.  0.
        -13    1    4    4    0    0 -0.31287766715E+02  0.58779562819E+01  0.58878773842E+02  0.66934182039E+02  0.00000000000E+00 0. -1.
         13    1    4    4    0    0  0.44186020865E+02 -0.20133174265E+02  0.10498279306E+02  0.49678597144E+02  0.00000000000E+00 0.  1.
        -13    1    3    3    0    0 -0.20155369206E+02  0.47780187412E+02  0.14584485685E+03  0.15478988173E+03  0.00000000000E+00 0. -1.
         13    1    3    3    0    0  0.27359860290E+02 -0.29210329302E+02  0.67030408903E+02  0.78069718910E+02  0.00000000000E+00 0.  1.
          2    1    1    2  501    0 -0.20102745234E+02 -0.43146401265E+01 -0.10340959233E+03  0.10543377196E+03  0.00000000000E+00 0. -1.
<scales pt_clust_5="13000.00000" pt_clust_6="13000.00000" pt_clust_7="13000.00000" pt_clust_8="13000.00000" pt_clust_9="20.56056"></scales>
<clustering>
<clus scale="   20.561">  2  9  1 -1</clus>
<clus scale="   91.738">  5  6 -1 -1</clus>
<clus scale="   92.255">  7  8 -1 -1</clus>
<clus scale="   93.360">  2  5  1 -1</clus>
<clus scale="   20.561">  2  5  1 -1</clus>
</clustering>
</event>
