<event>
 9    1  0.1636528E-005  0.1066115E+03  0.7546771E-02  0.1269738E+00
         21   -1    0    0  501  502  0.00000000000E+00  0.00000000000E+00  0.38528580045E+02  0.38528580045E+02  0.00000000000E+00 0. -1.
          1   -1    0    0  502    0 -0.00000000000E+00 -0.00000000000E+00 -0.11192527649E+04  0.11192527649E+04  0.00000000000E+00 0. -1.
         23    2    1    2    0    0 -0.64797792112E+02  0.45122803502E+01 -0.60701984624E+03  0.61679101123E+03  0.87971263849E+02 0.  0.
         23    2    1    2    0    0  0.18367160272E+02 -0.94266399982E+02 -0.39192062443E+03  0.41098963574E+03  0.78020497884E+02 0.  0.
        -13    1    4    4    0    0  0.26116738326E+02  0.24729792905E+01 -0.69805556069E+02  0.74572215372E+02  0.00000000000E+00 0.  1.
         13    1    4    4    0    0 -0.77495780540E+01 -0.96739379273E+02 -0.32211506837E+03  0.33641742037E+03  0.00000000000E+00 0. -1.
        -13    1    3    3    0    0 -0.50058177155E+02  0.44318999939E+02 -0.36242750969E+03  0.36854266325E+03  0.00000000000E+00 0. -1.
         13    1    3    3    0    0 -0.14739614957E+02 -0.39806719589E+02 -0.24459233655E+03  0.24824834798E+03  0.00000000000E+00 0.  1.
          1    1    1    2  501    0  0.46430631841E+02  0.89754119632E+02 -0.81783714132E+02  0.13000069793E+03  0.00000000000E+00 0. -1.
<scales pt_clust_5="13000.00000" pt_clust_6="13000.00000" pt_clust_7="13000.00000" pt_clust_8="13000.00000" pt_clust_9="101.05249"></scales>
<clustering>
<clus scale="   78.020">  5  6 -1 -1</clus>
<clus scale="   87.971">  7  8 -1 -1</clus>
<clus scale="  101.052">  1  9  2 -1</clus>
<clus scale="  101.052">  1  5  2 -1</clus>
<clus scale="  101.052">  1  5  2 -1</clus>
</clustering>
</event>
<event>
 9    1  0.1636528E-005  0.1108640E+03  0.7546771E-02  0.1259053E+00
          1   -1    0    0  502    0 -0.00000000000E+00  0.00000000000E+00  0.56333855196E+03  0.56333855196E+03  0.00000000000E+00 0. -1.
         21   -1    0    0  501  502  0.00000000000E+00 -0.00000000000E+00 -0.55376132539E+02  0.55376132539E+02  0.00000000000E+00 0. -1.
         23    2    1    2    0    0 -0.70298788642E+02 -0.21977428248E+02  0.36394586656E+03  0.38227288711E+03  0.90835232135E+02 0.  0.
         23    2    1    2    0    0  0.45276342747E+02  0.15725689647E+02  0.17083080988E+03  0.19923680561E+03  0.90636055616E+02 0.  0.
        -11    1    4    4    0    0 -0.14467851357E+02  0.31990148596E+02  0.33208691176E+02  0.48327067982E+02  0.00000000000E+00 0.  1.
         11    1    4    4    0    0  0.59744194104E+02 -0.16264458949E+02  0.13762211871E+03  0.15090973763E+03  0.00000000000E+00 0. -1.
        -13    1    3    3    0    0 -0.13563249857E+02  0.32832585749E+02  0.15271362003E+03  0.15679091229E+03  0.00000000000E+00 0.  1.
         13    1    3    3    0    0 -0.56735538785E+02 -0.54810013997E+02  0.21123224652E+03  0.22548197482E+03  0.00000000000E+00 0. -1.
          1    1    1    2  501    0  0.25022445895E+02  0.62517386015E+01 -0.26814257016E+02  0.37204991782E+02  0.00000000000E+00 0. -1.
<scales pt_clust_5="13000.00000" pt_clust_6="13000.00000" pt_clust_7="13000.00000" pt_clust_8="13000.00000" pt_clust_9="25.79161"></scales>
<clustering>
<clus scale="   25.792">  2  9  1 -1</clus>
<clus scale="   90.636">  5  6 -1 -1</clus>
<clus scale="   90.835">  7  8 -1 -1</clus>
<clus scale="  110.701">  2  5  1 -1</clus>
<clus scale="   25.792">  2  5  1 -1</clus>
</clustering>
</event>
<event>
 9    1  0.1636528E-005  0.1100144E+03  0.7546771E-02  0.1263115E+00
         -1   -1    0    0    0  501 -0.00000000000E+00  0.00000000000E+00  0.24686837113E+03  0.24686837113E+03  0.00000000000E+00 0.  1.
         21   -1    0    0  501  502  0.00000000000E+00 -0.00000000000E+00 -0.31448685232E+03  0.31448685232E+03  0.00000000000E+00 0.  1.
         23    2    1    2    0    0  0.44075812470E+02  0.36316250315E+02  0.19834065917E+03  0.22853170829E+03  0.98113084418E+02 0.  0.
         23    2    1    2    0    0 -0.66931520773E+01 -0.16592389637E+02 -0.38270837617E+02  0.10124532709E+03  0.92010073185E+02 0.  0.
        -11    1    4    4    0    0  0.41153036696E+02 -0.24057815551E+01 -0.56114890734E+01  0.41603473698E+02  0.00000000000E+00 0. -1.
         11    1    4    4    0    0 -0.47846188773E+02 -0.14186608082E+02 -0.32659348544E+02  0.59641853394E+02  0.00000000000E+00 0.  1.
        -13    1    3    3    0    0 -0.23475938634E+02  0.37339548015E+02  0.99164190893E+02  0.10853063298E+03  0.00000000000E+00 0. -1.
         13    1    3    3    0    0  0.67551751104E+02 -0.10232977002E+01  0.99176468277E+02  0.12000107531E+03  0.00000000000E+00 0.  1.
         -1    1    1    2    0  502 -0.37382660393E+02 -0.19723860678E+02 -0.22768830275E+03  0.23157818806E+03  0.00000000000E+00 0.  1.
<scales pt_clust_5="13000.00000" pt_clust_6="13000.00000" pt_clust_7="13000.00000" pt_clust_8="13000.00000" pt_clust_9="42.26694"></scales>
<clustering>
<clus scale="   42.267">  2  9  1 -1</clus>
<clus scale="   92.010">  5  6 -1 -1</clus>
<clus scale="   98.113">  7  8 -1 -1</clus>
<clus scale="  104.608">  2  5  1 -1</clus>
<clus scale="   42.267">  2  5  1 -1</clus>
</clustering>
</event>
<event>
 9    1  0.1636528E-005  0.1099099E+03  0.7546771E-02  0.1262553E+00
         21   -1    0    0  501  502  0.00000000000E+00  0.00000000000E+00  0.39355465451E+03  0.39355465451E+03  0.00000000000E+00 0. -1.
         -4   -1    0    0    0  501 -0.00000000000E+00 -0.00000000000E+00 -0.85310042481E+02  0.85310042481E+02  0.00000000000E+00 0.  1.
         23    2    1    2    0    0 -0.23502093355E+02  0.45280637047E+02 -0.28647129404E+02  0.10851631604E+03  0.91391730155E+02 0.  0.
         23    2    1    2    0    0  0.49168852073E+02 -0.53529326993E+02  0.22361941098E+03  0.25391194235E+03  0.95826241891E+02 0.  0.
        -11    1    4    4    0    0 -0.34261347225E+01 -0.60439000184E+02  0.16005564351E+03  0.17112106872E+03  0.00000000000E+00 0. -1.
         11    1    4    4    0    0  0.52594986795E+02  0.69096731912E+01  0.63563767478E+02  0.82790873625E+02  0.00000000000E+00 0.  1.
        -11    1    3    3    0    0  0.12683129370E+01  0.31660498171E+02 -0.59042629843E+02  0.67007670463E+02  0.00000000000E+00 0.  1.
         11    1    3    3    0    0 -0.24770406292E+02  0.13620138876E+02  0.30395500439E+02  0.41508645579E+02  0.00000000000E+00 0. -1.
         -4    1    1    2    0  502 -0.25666758718E+02  0.82486899456E+01  0.11327233045E+03  0.11643643861E+03  0.00000000000E+00 0.  1.
<scales pt_clust_5="13000.00000" pt_clust_6="13000.00000" pt_clust_7="13000.00000" pt_clust_8="13000.00000" pt_clust_9="26.95966"></scales>
<clustering>
<clus scale="   26.960">  1  9  2 -1</clus>
<clus scale="   91.392">  7  8 -1 -1</clus>
<clus scale="   95.826">  5  6 -1 -1</clus>
<clus scale="  106.066">  2  7  1 -1</clus>
<clus scale="   26.960">  1  5  2 -1</clus>
</clustering>
</event>
<event>
 9    1  0.1636528E-005  0.1509557E+03  0.7546771E-02  0.1206473E+00
         21   -1    0    0  501  502  0.00000000000E+00  0.00000000000E+00  0.15039415139E+03  0.15039415139E+03  0.00000000000E+00 0.  1.
          1   -1    0    0  502    0 -0.00000000000E+00 -0.00000000000E+00 -0.26614428992E+03  0.26614428992E+03  0.00000000000E+00 0. -1.
         23    2    1    2    0    0  0.69585097872E+02 -0.71313058057E+02 -0.18607177150E+03  0.23904155809E+03  0.11220750530E+03 0.  0.
         23    2    1    2    0    0 -0.58387399812E+02  0.89773942665E+02  0.39397179892E+02  0.13978064665E+03  0.80734392652E+02 0.  0.
        -11    1    4    4    0    0 -0.27465518577E+02  0.91432504009E+02  0.81936344133E+01  0.95819586437E+02  0.00000000000E+00 0.  1.
         11    1    4    4    0    0 -0.30921881235E+02 -0.16585613442E+01  0.31203545478E+02  0.43961060216E+02  0.00000000000E+00 0. -1.
        -11    1    3    3    0    0  0.82897323680E+02 -0.24775522699E+02 -0.63688684359E+02  0.10743389276E+03  0.00000000000E+00 0. -1.
         11    1    3    3    0    0 -0.13312225809E+02 -0.46537535358E+02 -0.12238308714E+03  0.13160766532E+03  0.00000000000E+00 0.  1.
          1    1    1    2  501    0 -0.11197698060E+02 -0.18460884608E+02  0.30924453080E+02  0.37716236566E+02  0.00000000000E+00 0. -1.
<scales pt_clust_5="13000.00000" pt_clust_6="13000.00000" pt_clust_7="13000.00000" pt_clust_8="13000.00000" pt_clust_9="21.59150"></scales>
<clustering>
<clus scale="   21.591">  1  9  2 -1</clus>
<clus scale="   80.734">  5  6 -1 -1</clus>
<clus scale="  112.208">  7  8 -1 -1</clus>
<clus scale="  129.287">  1  5  2 -1</clus>
<clus scale="   21.591">  1  5  2 -1</clus>
</clustering>
</event>
<event>
 9    1  0.1636528E-005  0.1438627E+03  0.7546771E-02  0.1209941E+00
         21   -1    0    0  501  502  0.00000000000E+00  0.00000000000E+00  0.53543839844E+02  0.53543839844E+02  0.00000000000E+00 0. -1.
          1   -1    0    0  502    0 -0.00000000000E+00 -0.00000000000E+00 -0.77771838012E+03  0.77771838012E+03  0.00000000000E+00 0. -1.
         23    2    1    2    0    0 -0.13109461030E+03 -0.40795500460E+02 -0.38906631185E+03  0.42326569185E+03  0.94504926696E+02 0.  0.
         23    2    1    2    0    0  0.49006323517E+02  0.33377694668E+02 -0.59880972223E+02  0.12069258936E+03  0.86401852094E+02 0.  0.
        -13    1    4    4    0    0 -0.73018036359E+01  0.30199028929E+02  0.83487278206E+01  0.32171399423E+02  0.00000000000E+00 0. -1.
         13    1    4    4    0    0  0.56308127153E+02  0.31786657387E+01 -0.68229700043E+02  0.88521189934E+02  0.00000000000E+00 0.  1.
        -13    1    3    3    0    0 -0.28097872153E+02  0.28515639293E+02 -0.12934442956E+03  0.13539798212E+03  0.00000000000E+00 0. -1.
         13    1    3    3    0    0 -0.10299673815E+03 -0.69311139754E+02 -0.25972188229E+03  0.28786770973E+03  0.00000000000E+00 0.  1.
          1    1    1    2  501    0  0.82088286784E+02  0.74178057924E+01 -0.27522725620E+03  0.28730393876E+03  0.00000000000E+00 0. -1.
<scales pt_clust_5="13000.00000" pt_clust_6="13000.00000" pt_clust_7="13000.00000" pt_clust_8="13000.00000" pt_clust_9="82.42280"></scales>
<clustering>
<clus scale="   82.423">  1  9  2 -1</clus>
<clus scale="   86.402">  5  6 -1 -1</clus>
<clus scale="   94.505">  7  8 -1 -1</clus>
<clus scale="  138.674">  1  5  2 -1</clus>
<clus scale="   82.423">  1  5  2 -1</clus>
</clustering>
</event>
<event>
 9    1  0.1636528E-005  0.9735408E+02  0.7546771E-02  0.1287313E+00
         21   -1    0    0  501  502  0.00000000000E+00  0.00000000000E+00  0.26697192134E+02  0.26697192134E+02  0.00000000000E+00 0.  1.
          1   -1    0    0  502    0 -0.00000000000E+00 -0.00000000000E+00 -0.59242311612E+03  0.59242311612E+03  0.00000000000E+00 0. -1.
         23    2    1    2    0    0  0.14986247946E+01  0.24449807220E+02 -0.26251567482E+03  0.27821957265E+03  0.88834746174E+02 0.  0.
         23    2    1    2    0    0  0.44224728754E+02 -0.36648725662E+02 -0.22301164179E+03  0.24778116035E+03  0.91445914755E+02 0.  0.
        -11    1    3    3    0    0  0.19772650353E+02  0.44462223161E+02 -0.23349958127E+03  0.23851604023E+03  0.00000000000E+00 0.  1.
         11    1    3    3    0    0 -0.18274025559E+02 -0.20012415942E+02 -0.29016093548E+02  0.39703532421E+02  0.00000000000E+00 0. -1.
        -11    1    4    4    0    0  0.67717719946E+02 -0.42756560201E+01 -0.13422983907E+03  0.15040485539E+03  0.00000000000E+00 0.  1.
         11    1    4    4    0    0 -0.23492991192E+02 -0.32373069641E+02 -0.88781802723E+02  0.97376304961E+02  0.00000000000E+00 0. -1.
          1    1    1    2  501    0 -0.45723353548E+02  0.12198918442E+02 -0.80198607375E+02  0.93119575256E+02  0.00000000000E+00 0. -1.
<scales pt_clust_5="13000.00000" pt_clust_6="13000.00000" pt_clust_7="13000.00000" pt_clust_8="13000.00000" pt_clust_9="47.32271"></scales>
<clustering>
<clus scale="   47.323">  1  9  2 -1</clus>
<clus scale="   88.835">  5  6 -1 -1</clus>
<clus scale="   91.446">  7  8 -1 -1</clus>
<clus scale="   94.906">  2  5  1 -1</clus>
<clus scale="   47.323">  1  5  2 -1</clus>
</clustering>
</event>
<event>
 9    1  0.1636528E-005  0.1174767E+03  0.7546771E-02  0.1254111E+00
          2   -1    0    0  502    0 -0.00000000000E+00  0.00000000000E+00  0.74980566276E+03  0.74980566276E+03  0.00000000000E+00 0. -1.
         21   -1    0    0  501  502  0.00000000000E+00 -0.00000000000E+00 -0.25830889110E+02  0.25830889110E+02  0.00000000000E+00 0.  1.
         23    2    1    2    0    0  0.29070416478E+02 -0.15063209473E+02  0.33781162572E+03  0.35142903560E+03  0.91179401177E+02 0.  0.
         23    2    1    2    0    0 -0.70927307315E+02  0.24720281340E+02  0.31218954307E+03  0.33866599089E+03  0.10765949727E+03 0.  0.
        -11    1    3    3    0    0  0.51558179568E+01 -0.48034818303E+02  0.11202709102E+03  0.12199998094E+03  0.00000000000E+00 0.  1.
         11    1    3    3    0    0  0.23914598521E+02  0.32971608830E+02  0.22578453470E+03  0.22942905466E+03  0.00000000000E+00 0. -1.
        -11    1    4    4    0    0 -0.72598185409E+01  0.45480828469E+02  0.21971498127E+03  0.22449027533E+03  0.00000000000E+00 0. -1.
         11    1    4    4    0    0 -0.63667488774E+02 -0.20760547129E+02  0.92474561794E+02  0.11417571556E+03  0.00000000000E+00 0.  1.
          2    1    1    2  501    0  0.41856890837E+02 -0.96570718677E+01  0.73973604864E+02  0.85541525379E+02  0.00000000000E+00 0. -1.
<scales pt_clust_5="13000.00000" pt_clust_6="13000.00000" pt_clust_7="13000.00000" pt_clust_8="13000.00000" pt_clust_9="42.95647"></scales>
<clustering>
<clus scale="   42.956">  2  9  1 -1</clus>
<clus scale="   91.179">  5  6 -1 -1</clus>
<clus scale="  102.586">  1  5  2 -1</clus>
<clus scale="  107.659">  7  8 -1 -1</clus>
<clus scale="   42.956">  2  5  1 -1</clus>
</clustering>
</event>
<event>
 9    1  0.1636528E-005  0.1537410E+03  0.7546771E-02  0.1196062E+00
         -3   -1    0    0    0  501 -0.00000000000E+00  0.00000000000E+00  0.52333841747E+03  0.52333841747E+03  0.00000000000E+00 0.  1.
         21   -1    0    0  501  502  0.00000000000E+00 -0.00000000000E+00 -0.12957442807E+03  0.12957442807E+03  0.00000000000E+00 0.  1.
         23    2    1    2    0    0 -0.38629446595E+02 -0.13549944761E+03  0.42476131195E+03  0.45653042643E+03  0.90252554948E+02 0.  0.
         23    2    1    2    0    0  0.17966069157E+01  0.65186897121E+02 -0.20143290206E+01  0.11188078155E+03  0.90888351322E+02 0.  0.
        -11    1    4    4    0    0 -0.90404243402E+01  0.86869812442E+02 -0.48599510252E+01  0.87474068786E+02  0.00000000000E+00 0.  1.
         11    1    4    4    0    0  0.10837031256E+02 -0.21682915322E+02  0.28456220046E+01  0.24406712763E+02  0.00000000000E+00 0. -1.
        -13    1    3    3    0    0  0.10843222341E+02 -0.95730913073E+02  0.31851738562E+03  0.33276915141E+03  0.00000000000E+00 0.  1.
         13    1    3    3    0    0 -0.49472668936E+02 -0.39768534541E+02  0.10624392633E+03  0.12376127502E+03  0.00000000000E+00 0. -1.
         -3    1    1    2    0  502  0.36832839680E+02  0.70312550493E+02 -0.28982993539E+02  0.84501637559E+02  0.00000000000E+00 0.  1.
<scales pt_clust_5="13000.00000" pt_clust_6="13000.00000" pt_clust_7="13000.00000" pt_clust_8="13000.00000" pt_clust_9="79.37577"></scales>
<clustering>
<clus scale="   79.376">  2  9  1 -1</clus>
<clus scale="   90.253">  7  8 -1 -1</clus>
<clus scale="   90.888">  5  6 -1 -1</clus>
<clus scale="  153.366">  1  7  2 -1</clus>
<clus scale="   79.376">  2  5  1 -1</clus>
</clustering>
</event>
<event>
 9    1  0.1636528E-005  0.1349093E+03  0.7546771E-02  0.1223600E+00
         21   -1    0    0  501  502  0.00000000000E+00  0.00000000000E+00  0.66141227875E+02  0.66141227875E+02  0.00000000000E+00 0. -1.
         -3   -1    0    0    0  501 -0.00000000000E+00 -0.00000000000E+00 -0.53144672108E+03  0.53144672108E+03  0.00000000000E+00 0.  1.
         23    2    1    2    0    0  0.33379925527E+01  0.10594558409E+03 -0.38334420040E+03  0.40846109339E+03  0.93016556864E+02 0.  0.
         23    2    1    2    0    0 -0.42360212050E+01 -0.81220969478E+02 -0.10535170819E+03  0.15507946867E+03  0.79598174756E+02 0.  0.
        -11    1    4    4    0    0 -0.30927732180E+02 -0.71069757431E+02 -0.48424867095E+02  0.91391480962E+02  0.00000000000E+00 0. -1.
         11    1    4    4    0    0  0.26691710975E+02 -0.10151212047E+02 -0.56926841095E+02  0.63687987705E+02  0.00000000000E+00 0.  1.
        -13    1    3    3    0    0  0.37771647485E+02  0.89237069145E+02 -0.32098923110E+03  0.33529694056E+03  0.00000000000E+00 0.  1.
         13    1    3    3    0    0 -0.34433654932E+02  0.16708514941E+02 -0.62354969298E+02  0.73164152833E+02  0.00000000000E+00 0. -1.
         -3    1    1    2    0  502  0.89802865226E+00 -0.24724614609E+02  0.23390415384E+02  0.34047386902E+02  0.00000000000E+00 0.  1.
<scales pt_clust_5="13000.00000" pt_clust_6="13000.00000" pt_clust_7="13000.00000" pt_clust_8="13000.00000" pt_clust_9="24.74092"></scales>
<clustering>
<clus scale="   24.741">  1  9  2 -1</clus>
<clus scale="   79.598">  5  6 -1 -1</clus>
<clus scale="   93.017">  7  8 -1 -1</clus>
<clus scale="  126.033">  1  5  2 -1</clus>
<clus scale="   24.741">  1  5  2 -1</clus>
</clustering>
</event>
<event>
 9    1  0.1636528E-005  0.1281785E+03  0.7546771E-02  0.1231690E+00
         21   -1    0    0  501  502  0.00000000000E+00  0.00000000000E+00  0.12537458463E+03  0.12537458463E+03  0.00000000000E+00 0. -1.
         -3   -1    0    0    0  501 -0.00000000000E+00 -0.00000000000E+00 -0.16469726426E+03  0.16469726426E+03  0.00000000000E+00 0.  1.
         23    2    1    2    0    0 -0.94818089713E+02 -0.33146456855E+02 -0.54995463305E+02  0.14730418260E+03  0.92654538416E+02 0.  0.
         23    2    1    2    0    0  0.70037540903E+02  0.19940762277E+02  0.91453163728E+01  0.11393931569E+03  0.87152967324E+02 0.  0.
        -11    1    4    4    0    0  0.50239001515E+02  0.46285772891E+02 -0.18668609023E+02  0.70815584501E+02  0.00000000000E+00 0.  1.
         11    1    4    4    0    0  0.19798539388E+02 -0.26345010613E+02  0.27813925396E+02  0.43123731193E+02  0.00000000000E+00 0. -1.
        -11    1    3    3    0    0 -0.53133467732E+02  0.28360662022E+02 -0.11847629102E+02  0.61382887345E+02  0.00000000000E+00 0.  1.
         11    1    3    3    0    0 -0.41684621981E+02 -0.61507118876E+02 -0.43147834203E+02  0.85921295257E+02  0.00000000000E+00 0. -1.
         -3    1    1    2    0  502  0.24780548810E+02  0.13205694577E+02  0.65274673073E+01  0.28828350595E+02  0.00000000000E+00 0.  1.
<scales pt_clust_5="13000.00000" pt_clust_6="13000.00000" pt_clust_7="13000.00000" pt_clust_8="13000.00000" pt_clust_9="28.07964"></scales>
<clustering>
<clus scale="   28.080">  1  9  2 -1</clus>
<clus scale="   87.153">  5  6 -1 -1</clus>
<clus scale="   92.655">  7  8 -1 -1</clus>
<clus scale="  124.260">  1  5  2 -1</clus>
<clus scale="   28.080">  1  5  2 -1</clus>
</clustering>
</event>
<event>
 9    1  0.1636528E-005  0.2151732E+03  0.7546771E-02  0.1154057E+00
          2   -1    0    0  502    0 -0.00000000000E+00  0.00000000000E+00  0.77199295777E+03  0.77199295777E+03  0.00000000000E+00 0. -1.
         21   -1    0    0  501  502  0.00000000000E+00 -0.00000000000E+00 -0.15876921922E+03  0.15876921922E+03  0.00000000000E+00 0.  1.
         23    2    1    2    0    0  0.98340362644E+02  0.53525925160E+02  0.45700960566E+03  0.47947163453E+03  0.92192283111E+02 0.  0.
         23    2    1    2    0    0 -0.23849274030E+03 -0.15509346395E+02  0.32465384666E+02  0.26049824201E+03  0.98417508048E+02 0.  0.
        -11    1    3    3    0    0  0.49992727647E+02  0.75519934785E+02  0.25540794097E+03  0.27099031289E+03  0.00000000000E+00 0. -1.
         11    1    3    3    0    0  0.48347634997E+02 -0.21994009624E+02  0.20160166469E+03  0.20848132164E+03  0.00000000000E+00 0.  1.
        -11    1    4    4    0    0 -0.19115951001E+03 -0.45424721879E+02  0.48252980507E+02  0.20232081888E+03  0.00000000000E+00 0. -1.
         11    1    4    4    0    0 -0.47333230289E+02  0.29915375484E+02 -0.15787595842E+02  0.58177423133E+02  0.00000000000E+00 0.  1.
          2    1    1    2  501    0  0.14015237765E+03 -0.38016578765E+02  0.12374874822E+03  0.19079230045E+03  0.00000000000E+00 0. -1.
<scales pt_clust_5="13000.00000" pt_clust_6="13000.00000" pt_clust_7="13000.00000" pt_clust_8="13000.00000" pt_clust_9="191.34667"></scales>
<clustering>
<clus scale="   92.192">  5  6 -1 -1</clus>
<clus scale="   98.418">  7  8 -1 -1</clus>
<clus scale="  145.035">  1  5  2 -1</clus>
<clus scale="  191.347">  2  9  1 -1</clus>
<clus scale="  191.347">  2  5  1 -1</clus>
</clustering>
</event>
<event>
 9    1  0.1636528E-005  0.9591629E+02  0.7546771E-02  0.1290776E+00
         21   -1    0    0  501  502  0.00000000000E+00  0.00000000000E+00  0.37610554303E+03  0.37610554303E+03  0.00000000000E+00 0. -1.
          2   -1    0    0  502    0 -0.00000000000E+00 -0.00000000000E+00 -0.52642979522E+02  0.52642979522E+02  0.00000000000E+00 0.  1.
         23    2    1    2    0    0 -0.37376987958E+02  0.84923618772E+01  0.49023523319E+02  0.10801306128E+03  0.88285650762E+02 0.  0.
         23    2    1    2    0    0  0.31380259581E+01 -0.30863425249E+02  0.90426432144E+02  0.13223238194E+03  0.91356800398E+02 0.  0.
        -11    1    3    3    0    0  0.29212581385E+02  0.39412525623E+01  0.13888362465E+02  0.32585195947E+02  0.00000000000E+00 0.  1.
         11    1    3    3    0    0 -0.66589569342E+02  0.45511093149E+01  0.35135160855E+02  0.75427865338E+02  0.00000000000E+00 0. -1.
        -11    1    4    4    0    0  0.86441207152E+01 -0.56371318018E+02  0.25913434559E+02  0.62641459184E+02  0.00000000000E+00 0.  1.
         11    1    4    4    0    0 -0.55060947571E+01  0.25507892770E+02  0.64512997585E+02  0.69590922759E+02  0.00000000000E+00 0. -1.
          2    1    1    2  501    0  0.34238962000E+02  0.22371063371E+02  0.18401260805E+03  0.18850307933E+03  0.00000000000E+00 0.  1.
<scales pt_clust_5="13000.00000" pt_clust_6="13000.00000" pt_clust_7="13000.00000" pt_clust_8="13000.00000" pt_clust_9="40.89952"></scales>
<clustering>
<clus scale="   40.900">  1  9  2 -1</clus>
<clus scale="   88.286">  5  6 -1 -1</clus>
<clus scale="   91.357">  7  8 -1 -1</clus>
<clus scale="   92.996">  2  5  1 -1</clus>
<clus scale="   40.900">  1  5  2 -1</clus>
</clustering>
</event>
<event>
 9    1  0.1636528E-005  0.1002547E+03  0.7546771E-02  0.1280014E+00
         21   -1    0    0  501  502  0.00000000000E+00  0.00000000000E+00  0.72729213047E+02  0.72729213047E+02  0.00000000000E+00 0.  1.
          2   -1    0    0  502    0 -0.00000000000E+00 -0.00000000000E+00 -0.22010657599E+03  0.22010657599E+03  0.00000000000E+00 0. -1.
         23    2    1    2    0    0 -0.30598861230E+02 -0.30834853833E+02 -0.13510325946E+03  0.16882469831E+03  0.91442930425E+02 0.  0.
         23    2    1    2    0    0  0.79625763412E+01  0.39061022389E+02 -0.11239860252E+02  0.99904226525E+02  0.90913991921E+02 0.  0.
        -13    1    3    3    0    0 -0.41507519541E+02  0.13733929811E+02 -0.26997658888E+02  0.51384517045E+02  0.00000000000E+00 0.  1.
         13    1    3    3    0    0  0.10908658311E+02 -0.44568783644E+02 -0.10810560057E+03  0.11744018127E+03  0.00000000000E+00 0. -1.
        -13    1    4    4    0    0 -0.27677921261E+02  0.35669968314E+02 -0.34836231479E+02  0.57026107955E+02  0.00000000000E+00 0.  1.
         13    1    4    4    0    0  0.35640497602E+02  0.33910540751E+01  0.23596371226E+02  0.42878118570E+02  0.00000000000E+00 0. -1.
          2    1    1    2  501    0  0.22636284888E+02 -0.82261685561E+01 -0.10342432364E+01  0.24106864204E+02  0.00000000000E+00 0. -1.
<scales pt_clust_5="13000.00000" pt_clust_6="13000.00000" pt_clust_7="13000.00000" pt_clust_8="13000.00000" pt_clust_9="24.08467"></scales>
<clustering>
<clus scale="   24.085">  1  9  2 -1</clus>
<clus scale="   90.914">  7  8 -1 -1</clus>
<clus scale="   91.443">  5  6 -1 -1</clus>
<clus scale="   99.773">  1  7  2 -1</clus>
<clus scale="   24.085">  1  5  2 -1</clus>
</clustering>
</event>
<event>
 9    1  0.1636528E-005  0.1144086E+03  0.7546771E-02  0.1253065E+00
          2   -1    0    0  502    0 -0.00000000000E+00  0.00000000000E+00  0.67957168968E+03  0.67957168968E+03  0.00000000000E+00 0. -1.
         21   -1    0    0  501  502  0.00000000000E+00 -0.00000000000E+00 -0.27588754717E+02  0.27588754717E+02  0.00000000000E+00 0.  1.
         23    2    1    2    0    0  0.49453355008E+02 -0.29384637310E+02  0.32000294587E+03  0.33750382972E+03  0.90542026051E+02 0.  0.
         23    2    1    2    0    0 -0.69635898759E+02  0.54829140549E+02  0.29339997480E+03  0.31922670966E+03  0.89256674227E+02 0.  0.
        -11    1    3    3    0    0  0.44345883460E+02 -0.51301151859E+02  0.29943292900E+03  0.30701538159E+03  0.00000000000E+00 0.  1.
         11    1    3    3    0    0  0.51074715483E+01  0.21916514549E+02  0.20570016864E+02  0.30488448130E+02  0.00000000000E+00 0. -1.
        -13    1    4    4    0    0 -0.35930818413E+02  0.76798800243E+02  0.21478060021E+03  0.23091077423E+03  0.00000000000E+00 0. -1.
         13    1    4    4    0    0 -0.33705080346E+02 -0.21969659694E+02  0.78619374596E+02  0.88315935426E+02  0.00000000000E+00 0.  1.
          2    1    1    2  501    0  0.20182543751E+02 -0.25444503239E+02  0.38580014289E+02  0.50429905016E+02  0.00000000000E+00 0. -1.
<scales pt_clust_5="13000.00000" pt_clust_6="13000.00000" pt_clust_7="13000.00000" pt_clust_8="13000.00000" pt_clust_9="32.47704"></scales>
<clustering>
<clus scale="   32.477">  2  9  1 -1</clus>
<clus scale="   89.257">  7  8 -1 -1</clus>
<clus scale="   90.542">  5  6 -1 -1</clus>
<clus scale="  113.394">  2  7  1 -1</clus>
<clus scale="   32.477">  2  5  1 -1</clus>
</clustering>
</event>
<event>
 9    1  0.1636528E-005  0.2139594E+03  0.7546771E-02  0.1144184E+00
          2   -1    0    0  502    0 -0.00000000000E+00  0.00000000000E+00  0.27387931525E+03  0.27387931525E+03  0.00000000000E+00 0. -1.
         21   -1    0    0  501  502  0.00000000000E+00 -0.00000000000E+00 -0.91185605004E+03  0.91185605004E+03  0.00000000000E+00 0. -1.
         23    2    1    2    0    0  0.15534106277E+02  0.16362425894E+03  0.17030317551E+03  0.25253320006E+03  0.88066105708E+02 0.  0.
         23    2    1    2    0    0 -0.20273280475E+03 -0.86657676884E+02 -0.28130925102E+03  0.36869770714E+03  0.90514979192E+02 0.  0.
        -13    1    4    4    0    0 -0.56741835621E+02 -0.71662082298E+02 -0.11475705912E+03  0.14671152840E+03  0.00000000000E+00 0.  1.
         13    1    4    4    0    0 -0.14599096913E+03 -0.14995594586E+02 -0.16655219190E+03  0.22198617874E+03  0.00000000000E+00 0. -1.
        -13    1    3    3    0    0 -0.32468102949E+02  0.63997907531E+02  0.42007401660E+02  0.83153663008E+02  0.00000000000E+00 0.  1.
         13    1    3    3    0    0  0.48002209227E+02  0.99626351407E+02  0.12829577385E+03  0.16937953705E+03  0.00000000000E+00 0. -1.
          2    1    1    2  501    0  0.18719869847E+03 -0.76966582054E+02 -0.52697065928E+03  0.56450445809E+03  0.00000000000E+00 0. -1.
<scales pt_clust_5="13000.00000" pt_clust_6="13000.00000" pt_clust_7="13000.00000" pt_clust_8="13000.00000" pt_clust_9="193.87023"></scales>
<clustering>
<clus scale="   88.066">  7  8 -1 -1</clus>
<clus scale="   90.515">  5  6 -1 -1</clus>
<clus scale="  186.467">  1  7  2 -1</clus>
<clus scale="  193.870">  2  9  1 -1</clus>
<clus scale="  193.870">  2  5  1 -1</clus>
</clustering>
</event>
<event>
 9    1  0.1636528E-005  0.9351217E+02  0.7546771E-02  0.1309225E+00
          2   -1    0    0  502    0 -0.00000000000E+00  0.00000000000E+00  0.36085202293E+03  0.36085202293E+03  0.00000000000E+00 0. -1.
         21   -1    0    0  501  502  0.00000000000E+00 -0.00000000000E+00 -0.31351430664E+02  0.31351430664E+02  0.00000000000E+00 0.  1.
         23    2    1    2    0    0 -0.55416569028E+01 -0.46074717511E+01  0.19704630866E+03  0.21803306262E+03  0.93054983111E+02 0.  0.
         23    2    1    2    0    0 -0.15266328438E+02 -0.23833946623E+02  0.10347882437E+03  0.12854732914E+03  0.70819707292E+02 0.  0.
        -11    1    4    4    0    0 -0.29211863701E+02  0.58639663796E+01  0.13380605579E+02  0.32661287303E+02  0.00000000000E+00 0. -1.
         11    1    4    4    0    0  0.13945535263E+02 -0.29697913002E+02  0.90098218786E+02  0.95886041836E+02  0.00000000000E+00 0.  1.
        -13    1    3    3    0    0  0.29498733842E+02 -0.35305537649E+02  0.84207030053E+02  0.95955615768E+02  0.00000000000E+00 0.  1.
         13    1    3    3    0    0 -0.35040390745E+02  0.30698065898E+02  0.11283927861E+03  0.12207744685E+03  0.00000000000E+00 0. -1.
          2    1    1    2  501    0  0.20807985341E+02  0.28441418374E+02  0.28975459238E+02  0.45623061834E+02  0.00000000000E+00 0. -1.
<scales pt_clust_5="13000.00000" pt_clust_6="13000.00000" pt_clust_7="13000.00000" pt_clust_8="13000.00000" pt_clust_9="35.24041"></scales>
<clustering>
<clus scale="   35.240">  2  9  1 -1</clus>
<clus scale="   70.820">  5  6 -1 -1</clus>
<clus scale="   71.419">  2  5  1 -1</clus>
<clus scale="   93.055">  7  8 -1 -1</clus>
<clus scale="   35.240">  2  5  1 -1</clus>
</clustering>
</event>
<event>
 9    1  0.1636528E-005  0.1043818E+03  0.7546771E-02  0.1272646E+00
         21   -1    0    0  501  502  0.00000000000E+00  0.00000000000E+00  0.17874816514E+03  0.17874816514E+03  0.00000000000E+00 0. -1.
          1   -1    0    0  502    0 -0.00000000000E+00 -0.00000000000E+00 -0.62047646343E+03  0.62047646343E+03  0.00000000000E+00 0. -1.
         23    2    1    2    0    0  0.50581618467E+02  0.21119568556E+02 -0.48674400264E+03  0.49823835248E+03  0.91198659385E+02 0.  0.
         23    2    1    2    0    0  0.16749207277E+02 -0.44150969655E+02 -0.96360342758E+02  0.14271097091E+03  0.94081143142E+02 0.  0.
        -11    1    3    3    0    0  0.36180340022E+01  0.49281744013E+02 -0.18074104828E+03  0.18737424315E+03  0.00000000000E+00 0.  1.
         11    1    3    3    0    0  0.46963584465E+02 -0.28162175456E+02 -0.30600295437E+03  0.31086410933E+03  0.00000000000E+00 0. -1.
        -13    1    4    4    0    0  0.18801770592E+01  0.21282756649E+02  0.42426379037E+01  0.21782809110E+02  0.00000000000E+00 0. -1.
         13    1    4    4    0    0  0.14869030218E+02 -0.65433726304E+02 -0.10060298066E+03  0.12092816180E+03  0.00000000000E+00 0.  1.
          1    1    1    2  501    0 -0.67330825745E+02  0.23031401099E+02  0.14137604712E+03  0.15827530518E+03  0.00000000000E+00 0. -1.
<scales pt_clust_5="13000.00000" pt_clust_6="13000.00000" pt_clust_7="13000.00000" pt_clust_8="13000.00000" pt_clust_9="71.16098"></scales>
<clustering>
<clus scale="   71.161">  1  9  2 -1</clus>
<clus scale="   91.199">  5  6 -1 -1</clus>
<clus scale="   94.081">  7  8 -1 -1</clus>
<clus scale="  101.791">  2  5  1 -1</clus>
<clus scale="   71.161">  1  5  2 -1</clus>
</clustering>
</event>
<event>
 9    1  0.1636528E-005  0.1000211E+03  0.7546771E-02  0.1285572E+00
         21   -1    0    0  501  502  0.00000000000E+00  0.00000000000E+00  0.13041827877E+03  0.13041827877E+03  0.00000000000E+00 0. -1.
         -2   -1    0    0    0  501 -0.00000000000E+00 -0.00000000000E+00 -0.12979941585E+03  0.12979941585E+03  0.00000000000E+00 0.  1.
         23    2    1    2    0    0  0.23521221824E+02  0.33002298557E+00 -0.69807516700E+02  0.11501310586E+03  0.88326487196E+02 0.  0.
         23    2    1    2    0    0 -0.48512846802E+01 -0.13288962957E+02  0.39247309603E+02  0.10662175468E+03  0.98120924173E+02 0.  0.
        -11    1    4    4    0    0  0.27404553069E+02 -0.12788079601E+02 -0.22000624193E+02  0.37397486195E+02  0.00000000000E+00 0.  1.
         11    1    4    4    0    0 -0.32255837749E+02 -0.50088335576E+00  0.61247933796E+02  0.69224268485E+02  0.00000000000E+00 0. -1.
        -13    1    3    3    0    0 -0.22287974554E+02  0.24793458151E+01 -0.65169015843E+02  0.68919529825E+02  0.00000000000E+00 0. -1.
         13    1    3    3    0    0  0.45809196378E+02 -0.21493228295E+01 -0.46385008571E+01  0.46093576035E+02  0.00000000000E+00 0.  1.
         -2    1    1    2    0  502 -0.18669937144E+02  0.12958939972E+02  0.31179070020E+02  0.38582834077E+02  0.00000000000E+00 0.  1.
<scales pt_clust_5="13000.00000" pt_clust_6="13000.00000" pt_clust_7="13000.00000" pt_clust_8="13000.00000" pt_clust_9="22.72665"></scales>
<clustering>
<clus scale="   22.727">  1  9  2 -1</clus>
<clus scale="   88.326">  7  8 -1 -1</clus>
<clus scale="   90.433">  2  7  1 -1</clus>
<clus scale="   98.121">  5  6 -1 -1</clus>
<clus scale="   22.727">  1  5  2 -1</clus>
</clustering>
</event>
<event>
 9    1  0.1636528E-005  0.1874402E+03  0.7546771E-02  0.1161093E+00
          1   -1    0    0  502    0 -0.00000000000E+00  0.00000000000E+00  0.12921063597E+04  0.12921063597E+04  0.00000000000E+00 0. -1.
         21   -1    0    0  501  502  0.00000000000E+00 -0.00000000000E+00 -0.50661025996E+02  0.50661025996E+02  0.00000000000E+00 0.  1.
         23    2    1    2    0    0 -0.42641736633E+02 -0.16048956429E+03  0.81457870393E+03  0.83609873265E+03  0.89148235577E+02 0.  0.
         23    2    1    2    0    0  0.60858020323E+02  0.14765454521E+03  0.44258400977E+03  0.47939949943E+03  0.91857013800E+02 0.  0.
        -13    1    3    3    0    0 -0.70451648640E+02 -0.11690168517E+03  0.61061166546E+03  0.62568046540E+03  0.00000000000E+00 0.  1.
         13    1    3    3    0    0  0.27809912007E+02 -0.43587879126E+02  0.20396703847E+03  0.21041826725E+03  0.00000000000E+00 0. -1.
        -13    1    4    4    0    0  0.79285372833E+02  0.12756580132E+03  0.41150617787E+03  0.43805997128E+03  0.00000000000E+00 0. -1.
         13    1    4    4    0    0 -0.18427352510E+02  0.20088743892E+02  0.31077831905E+02  0.41339528150E+02  0.00000000000E+00 0.  1.
          1    1    1    2  501    0 -0.18216283689E+02  0.12835019080E+02 -0.15717379980E+02  0.27269153630E+02  0.00000000000E+00 0. -1.
<scales pt_clust_5="13000.00000" pt_clust_6="13000.00000" pt_clust_7="13000.00000" pt_clust_8="13000.00000" pt_clust_9="22.28387"></scales>
<clustering>
<clus scale="   22.284">  2  9  1 -1</clus>
<clus scale="   89.148">  5  6 -1 -1</clus>
<clus scale="   91.857">  7  8 -1 -1</clus>
<clus scale="  186.128">  1  5  2 -1</clus>
<clus scale="   22.284">  2  5  1 -1</clus>
</clustering>
</event>
<event>
 9    1  0.1636528E-005  0.1726236E+03  0.7546771E-02  0.1175309E+00
         21   -1    0    0  501  502  0.00000000000E+00  0.00000000000E+00  0.11503361665E+03  0.11503361665E+03  0.00000000000E+00 0. -1.
          2   -1    0    0  502    0 -0.00000000000E+00 -0.00000000000E+00 -0.47450824089E+03  0.47450824089E+03  0.00000000000E+00 0. -1.
         23    2    1    2    0    0  0.98721923528E+02 -0.95972605393E+02 -0.19735533785E+03  0.25702465386E+03  0.90309380160E+02 0.  0.
         23    2    1    2    0    0 -0.86095576629E+02  0.13307440404E+03 -0.20472730995E+03  0.27462582462E+03  0.91568699783E+02 0.  0.
        -11    1    4    4    0    0 -0.27584603286E+02  0.11452148145E+03 -0.10653352459E+03  0.15882528739E+03  0.00000000000E+00 0. -1.
         11    1    4    4    0    0 -0.58510973343E+02  0.18552922584E+02 -0.98193785363E+02  0.11580053723E+03  0.00000000000E+00 0.  1.
        -13    1    3    3    0    0  0.18282177818E+02 -0.68342710280E+02 -0.49134084639E+02  0.86134327347E+02  0.00000000000E+00 0.  1.
         13    1    3    3    0    0  0.80439745709E+02 -0.27629895114E+02 -0.14822125321E+03  0.17089032652E+03  0.00000000000E+00 0. -1.
          2    1    1    2  501    0 -0.12626346899E+02 -0.37101798643E+02  0.42608023561E+02  0.57891379068E+02  0.00000000000E+00 0. -1.
<scales pt_clust_5="13000.00000" pt_clust_6="13000.00000" pt_clust_7="13000.00000" pt_clust_8="13000.00000" pt_clust_9="39.19143"></scales>
<clustering>
<clus scale="   39.191">  1  9  2 -1</clus>
<clus scale="   90.309">  7  8 -1 -1</clus>
<clus scale="   91.569">  5  6 -1 -1</clus>
<clus scale="  171.959">  2  7  1 -1</clus>
<clus scale="   39.191">  1  5  2 -1</clus>
</clustering>
</event>
<event>
 9    1  0.1636528E-005  0.9503425E+02  0.7546771E-02  0.1293815E+00
          2   -1    0    0  502    0 -0.00000000000E+00  0.00000000000E+00  0.21784735316E+03  0.21784735316E+03  0.00000000000E+00 0. -1.
         21   -1    0    0  501  502  0.00000000000E+00 -0.00000000000E+00 -0.70469736987E+02  0.70469736987E+02  0.00000000000E+00 0.  1.
         23    2    1    2    0    0  0.58806762149E+01 -0.32080680261E+00  0.89733750170E+02  0.13061565791E+03  0.94729187170E+02 0.  0.
         23    2    1    2    0    0  0.85211080651E+01 -0.15211888304E+02  0.83681295846E+02  0.12413621571E+03  0.90017942361E+02 0.  0.
        -11    1    4    4    0    0  0.43909620025E+02 -0.80197666949E+01  0.74544306827E+02  0.86886276642E+02  0.00000000000E+00 0.  1.
         11    1    4    4    0    0 -0.35388511959E+02 -0.71921216086E+01  0.91369890200E+01  0.37249939064E+02  0.00000000000E+00 0. -1.
        -13    1    3    3    0    0  0.97447431316E+01  0.26159527749E+02 -0.81971505010E+01  0.29094229446E+02  0.00000000000E+00 0.  1.
         13    1    3    3    0    0 -0.38640669167E+01 -0.26480334551E+02  0.97930900671E+02  0.10152142846E+03  0.00000000000E+00 0. -1.
          2    1    1    2  501    0 -0.14401784280E+02  0.15532695106E+02 -0.26037429845E+02  0.33565216529E+02  0.00000000000E+00 0. -1.
<scales pt_clust_5="13000.00000" pt_clust_6="13000.00000" pt_clust_7="13000.00000" pt_clust_8="13000.00000" pt_clust_9="21.18197"></scales>
<clustering>
<clus scale="   21.182">  2  9  1 -1</clus>
<clus scale="   90.018">  5  6 -1 -1</clus>
<clus scale="   90.339">  2  5  1 -1</clus>
<clus scale="   94.729">  7  8 -1 -1</clus>
<clus scale="   21.182">  2  5  1 -1</clus>
</clustering>
</event>
<event>
 9    1  0.1636528E-005  0.1783326E+03  0.7546771E-02  0.1170685E+00
          2   -1    0    0  502    0 -0.00000000000E+00  0.00000000000E+00  0.79899308912E+03  0.79899308912E+03  0.00000000000E+00 0. -1.
         21   -1    0    0  501  502  0.00000000000E+00 -0.00000000000E+00 -0.12396688373E+03  0.12396688373E+03  0.00000000000E+00 0.  1.
         23    2    1    2    0    0 -0.12529901376E+03  0.57377495329E+02  0.28075713900E+03  0.32509103097E+03  0.88699422200E+02 0.  0.
         23    2    1    2    0    0  0.12256665219E+03 -0.17882850142E+03  0.64737281712E+02  0.24665816500E+03  0.98219741238E+02 0.  0.
        -13    1    3    3    0    0 -0.95196068234E+02  0.46314669025E+02  0.11519828841E+03  0.15645442029E+03  0.00000000000E+00 0. -1.
         13    1    3    3    0    0 -0.30102945525E+02  0.11062826304E+02  0.16555885058E+03  0.16863661068E+03  0.00000000000E+00 0.  1.
        -13    1    4    4    0    0 -0.14902187911E+02 -0.33447170904E+02  0.19655523492E+02  0.41558730127E+02  0.00000000000E+00 0. -1.
         13    1    4    4    0    0  0.13746884010E+03 -0.14538133051E+03  0.45081758220E+02  0.20509943487E+03  0.00000000000E+00 0.  1.
          2    1    1    2  501    0  0.27323615698E+01  0.12145100609E+03  0.32953178469E+03  0.35121077688E+03  0.00000000000E+00 0. -1.
<scales pt_clust_5="13000.00000" pt_clust_6="13000.00000" pt_clust_7="13000.00000" pt_clust_8="13000.00000" pt_clust_9="121.48180"></scales>
<clustering>
<clus scale="   88.699">  5  6 -1 -1</clus>
<clus scale="   98.220">  7  8 -1 -1</clus>
<clus scale="  121.482">  2  9  1 -1</clus>
<clus scale="  173.271">  1  5  2 -1</clus>
<clus scale="  121.482">  2  5  1 -1</clus>
</clustering>
</event>
<event>
 9    1  0.1636528E-005  0.9863990E+02  0.7546771E-02  0.1283864E+00
         21   -1    0    0  501  502  0.00000000000E+00  0.00000000000E+00  0.55719683773E+02  0.55719683773E+02  0.00000000000E+00 0.  1.
          1   -1    0    0  502    0 -0.00000000000E+00 -0.00000000000E+00 -0.32702792393E+03  0.32702792393E+03  0.00000000000E+00 0. -1.
         23    2    1    2    0    0 -0.23838657278E+02  0.25436808799E+01 -0.12682282639E+03  0.15777427153E+03  0.90741057793E+02 0.  0.
         23    2    1    2    0    0  0.47986109669E+02 -0.54327274137E+02 -0.90879747312E+02  0.14662662301E+03  0.89365086404E+02 0.  0.
        -13    1    3    3    0    0 -0.35823210516E+02  0.40285278469E+02 -0.79739367579E+02  0.96252650950E+02  0.00000000000E+00 0. -1.
         13    1    3    3    0    0  0.11984553238E+02 -0.37741597589E+02 -0.47083458815E+02  0.61521620581E+02  0.00000000000E+00 0.  1.
        -13    1    4    4    0    0  0.42270234826E+02 -0.74262820434E+02 -0.45674420115E+02  0.96891134289E+02  0.00000000000E+00 0.  1.
         13    1    4    4    0    0  0.57158748435E+01  0.19935546298E+02 -0.45205327197E+02  0.49735488722E+02  0.00000000000E+00 0. -1.
          1    1    1    2  501    0 -0.24147452391E+02  0.51783593257E+02 -0.53605666453E+02  0.78346713163E+02  0.00000000000E+00 0. -1.
<scales pt_clust_5="13000.00000" pt_clust_6="13000.00000" pt_clust_7="13000.00000" pt_clust_8="13000.00000" pt_clust_9="57.13703"></scales>
<clustering>
<clus scale="   57.137">  1  9  2 -1</clus>
<clus scale="   89.365">  7  8 -1 -1</clus>
<clus scale="   90.741">  5  6 -1 -1</clus>
<clus scale="   97.376">  1  7  2 -1</clus>
<clus scale="   57.137">  1  5  2 -1</clus>
</clustering>
</event>
<event>
 9    1  0.1636528E-005  0.9903048E+02  0.7546771E-02  0.1283408E+00
         21   -1    0    0  501  502  0.00000000000E+00  0.00000000000E+00  0.53199507263E+02  0.53199507263E+02  0.00000000000E+00 0. -1.
          1   -1    0    0  502    0 -0.00000000000E+00 -0.00000000000E+00 -0.83209473767E+03  0.83209473767E+03  0.00000000000E+00 0. -1.
         23    2    1    2    0    0  0.40616525809E+02  0.40812673021E+01 -0.49518459954E+03  0.50535770300E+03  0.92261917606E+02 0.  0.
         23    2    1    2    0    0  0.65889115797E+01  0.13427484429E+02  0.41999926212E+00  0.91379572376E+02  0.90146207654E+02 0.  0.
        -13    1    3    3    0    0  0.34874244775E+02 -0.41332236169E+02 -0.30373693500E+03  0.30851368264E+03  0.00000000000E+00 0. -1.
         13    1    3    3    0    0  0.57422810338E+01  0.45413503471E+02 -0.19144766454E+03  0.19684402035E+03  0.00000000000E+00 0.  1.
        -13    1    4    4    0    0  0.67202010707E+01  0.52181689284E+02 -0.47588937446E+00  0.52614791359E+02  0.00000000000E+00 0.  1.
         13    1    4    4    0    0 -0.13128949101E+00 -0.38754204855E+02  0.89588863658E+00  0.38764781018E+02  0.00000000000E+00 0. -1.
          1    1    1    2  501    0 -0.47205437389E+02 -0.17508751731E+02 -0.28413063013E+03  0.28855696957E+03  0.00000000000E+00 0. -1.
<scales pt_clust_5="13000.00000" pt_clust_6="13000.00000" pt_clust_7="13000.00000" pt_clust_8="13000.00000" pt_clust_9="50.34791"></scales>
<clustering>
<clus scale="   50.348">  1  9  2 -1</clus>
<clus scale="   90.146">  7  8 -1 -1</clus>
<clus scale="   92.262">  5  6 -1 -1</clus>
<clus scale="   97.062">  1  7  2 -1</clus>
<clus scale="   50.348">  1  5  2 -1</clus>
</clustering>
</event>
<event>
 9    1  0.1636528E-005  0.1012445E+03  0.7546771E-02  0.1279141E+00
          2   -1    0    0  502    0 -0.00000000000E+00  0.00000000000E+00  0.94109770113E+02  0.94109770113E+02  0.00000000000E+00 0. -1.
         21   -1    0    0  501  502  0.00000000000E+00 -0.00000000000E+00 -0.31220252187E+03  0.31220252187E+03  0.00000000000E+00 0. -1.
         23    2    1    2    0    0  0.50716890940E+02 -0.51956355193E+02 -0.12516309505E+02  0.11714088422E+03  0.91069549683E+02 0.  0.
         23    2    1    2    0    0  0.36472646960E+02  0.14951950152E+01 -0.83867884340E+02  0.13117989763E+03  0.94031132796E+02 0.  0.
        -11    1    3    3    0    0 -0.94091709786E+01 -0.52049424233E+02 -0.20005901554E+02  0.56550076556E+02  0.00000000000E+00 0.  1.
         11    1    3    3    0    0  0.60126061919E+02  0.93069040010E-01  0.74895920482E+01  0.60590807659E+02  0.00000000000E+00 0. -1.
        -13    1    4    4    0    0  0.57284478128E+02 -0.16688965253E+02 -0.22306260392E+02  0.63699311207E+02  0.00000000000E+00 0.  1.
         13    1    4    4    0    0 -0.20811831168E+02  0.18184160269E+02 -0.61561623948E+02  0.67480586426E+02  0.00000000000E+00 0. -1.
          2    1    1    2  501    0 -0.87189537900E+02  0.50461160178E+02 -0.12170855791E+03  0.15799151013E+03  0.00000000000E+00 0. -1.
<scales pt_clust_5="13000.00000" pt_clust_6="13000.00000" pt_clust_7="13000.00000" pt_clust_8="13000.00000" pt_clust_9="100.73899"></scales>
<clustering>
<clus scale="   91.070">  5  6 -1 -1</clus>
<clus scale="   94.031">  7  8 -1 -1</clus>
<clus scale="  100.739">  2  9  1 -1</clus>
<clus scale="   98.500">  1  5  2 -1</clus>
<clus scale="  100.739">  2  5  1 -1</clus>
</clustering>
</event>
<event>
 9    1  0.1636528E-005  0.1034063E+03  0.7546771E-02  0.1273510E+00
         -1   -1    0    0    0  501 -0.00000000000E+00  0.00000000000E+00  0.36540190286E+03  0.36540190286E+03  0.00000000000E+00 0.  1.
         21   -1    0    0  501  502  0.00000000000E+00 -0.00000000000E+00 -0.67233406016E+02  0.67233406016E+02  0.00000000000E+00 0. -1.
         23    2    1    2    0    0  0.26972414824E+02  0.22546069351E+02  0.19537780167E+03  0.21865063983E+03  0.91650316445E+02 0.  0.
         23    2    1    2    0    0 -0.81159905764E+02 -0.43329849035E+02  0.67344433775E+02  0.14597961689E+03  0.91161228965E+02 0.  0.
        -11    1    4    4    0    0 -0.48960835865E+02 -0.14257946761E+01  0.77966966277E+02  0.92076295372E+02  0.00000000000E+00 0.  1.
         11    1    4    4    0    0 -0.32199069900E+02 -0.41904054359E+02 -0.10622532502E+02  0.53903321520E+02  0.00000000000E+00 0. -1.
        -11    1    3    3    0    0  0.36394298111E+02 -0.76969677702E+01  0.23773297217E+02  0.44147003391E+02  0.00000000000E+00 0.  1.
         11    1    3    3    0    0 -0.94218832862E+01  0.30243037121E+02  0.17160450446E+03  0.17450363644E+03  0.00000000000E+00 0. -1.
         -1    1    1    2    0  502  0.54187490940E+02  0.20783779684E+02  0.35446261396E+02  0.68005052160E+02  0.00000000000E+00 0.  1.
<scales pt_clust_5="13000.00000" pt_clust_6="13000.00000" pt_clust_7="13000.00000" pt_clust_8="13000.00000" pt_clust_9="58.03662"></scales>
<clustering>
<clus scale="   58.037">  2  9  1 -1</clus>
<clus scale="   91.161">  5  6 -1 -1</clus>
<clus scale="   91.650">  7  8 -1 -1</clus>
<clus scale="  102.973">  2  5  1 -1</clus>
<clus scale="   58.037">  2  5  1 -1</clus>
</clustering>
</event>
<event>
 9    1  0.1636528E-005  0.1627224E+03  0.7546771E-02  0.1185785E+00
          1   -1    0    0  502    0 -0.00000000000E+00  0.00000000000E+00  0.19472349029E+03  0.19472349029E+03  0.00000000000E+00 0. -1.
         21   -1    0    0  501  502  0.00000000000E+00 -0.00000000000E+00 -0.24556476513E+03  0.24556476513E+03  0.00000000000E+00 0. -1.
         23    2    1    2    0    0  0.39467015920E+02 -0.11460508335E+03  0.60634297240E+02  0.16304812447E+03  0.90643270103E+02 0.  0.
         23    2    1    2    0    0 -0.78637682575E+02  0.15570300074E+03 -0.83179650715E+02  0.21380481662E+03  0.91467676017E+02 0.  0.
        -11    1    4    4    0    0 -0.25803062094E+02  0.13413288773E+02  0.15313103475E+02  0.32866479385E+02  0.00000000000E+00 0.  1.
         11    1    4    4    0    0 -0.52834620481E+02  0.14228971196E+03 -0.98492754190E+02  0.18093833723E+03  0.00000000000E+00 0. -1.
        -13    1    3    3    0    0 -0.27294993229E+02 -0.29634911218E+02  0.25598422259E+01  0.40370749442E+02  0.00000000000E+00 0.  1.
         13    1    3    3    0    0  0.66762009149E+02 -0.84970172134E+02  0.58074455014E+02  0.12267737503E+03  0.00000000000E+00 0. -1.
          1    1    1    2  501    0  0.39170666654E+02 -0.41097917384E+02 -0.28295921359E+02  0.63435314337E+02  0.00000000000E+00 0. -1.
<scales pt_clust_5="13000.00000" pt_clust_6="13000.00000" pt_clust_7="13000.00000" pt_clust_8="13000.00000" pt_clust_9="56.77482"></scales>
<clustering>
<clus scale="   56.775">  2  9  1 -1</clus>
<clus scale="   90.643">  7  8 -1 -1</clus>
<clus scale="   91.468">  5  6 -1 -1</clus>
<clus scale="  162.260">  1  7  2 -1</clus>
<clus scale="   56.775">  2  5  1 -1</clus>
</clustering>
</event>
<event>
 9    1  0.1636528E-005  0.1353649E+03  0.7546771E-02  0.1220726E+00
         21   -1    0    0  501  502  0.00000000000E+00  0.00000000000E+00  0.15789614127E+03  0.15789614127E+03  0.00000000000E+00 0.  1.
         -3   -1    0    0    0  501 -0.00000000000E+00 -0.00000000000E+00 -0.22485186056E+03  0.22485186056E+03  0.00000000000E+00 0.  1.
         23    2    1    2    0    0  0.88095992994E+02  0.25167034479E+02 -0.13477555904E+03  0.18814006963E+03  0.94010376455E+02 0.  0.
         23    2    1    2    0    0 -0.11184327847E+03 -0.36121714545E+02  0.33878881627E+02  0.15176021089E+03  0.89831429843E+02 0.  0.
        -13    1    3    3    0    0 -0.85126750049E+00  0.34527195959E+02 -0.68860248840E+02  0.77036262808E+02  0.00000000000E+00 0.  1.
         13    1    3    3    0    0  0.88947260495E+02 -0.93601614797E+01 -0.65915310200E+02  0.11110380683E+03  0.00000000000E+00 0. -1.
        -13    1    4    4    0    0 -0.88641188717E+02  0.27434903967E+01 -0.93430799759E+01  0.89174437033E+02  0.00000000000E+00 0. -1.
         13    1    4    4    0    0 -0.23202089752E+02 -0.38865204942E+02  0.43221961603E+02  0.62585773854E+02  0.00000000000E+00 0.  1.
         -3    1    1    2    0  502  0.23747285475E+02  0.10954680066E+02  0.33940958129E+02  0.42847721310E+02  0.00000000000E+00 0.  1.
<scales pt_clust_5="13000.00000" pt_clust_6="13000.00000" pt_clust_7="13000.00000" pt_clust_8="13000.00000" pt_clust_9="26.15222"></scales>
<clustering>
<clus scale="   26.152">  1  9  2 -1</clus>
<clus scale="   89.831">  7  8 -1 -1</clus>
<clus scale="   94.010">  5  6 -1 -1</clus>
<clus scale="  132.497">  1  7  2 -1</clus>
<clus scale="   26.152">  1  5  2 -1</clus>
</clustering>
</event>
<event>
 9    1  0.1636528E-005  0.9993729E+02  0.7546771E-02  0.1285931E+00
         21   -1    0    0  501  502  0.00000000000E+00  0.00000000000E+00  0.73418136371E+02  0.73418136371E+02  0.00000000000E+00 0. -1.
         -1   -1    0    0    0  501 -0.00000000000E+00 -0.00000000000E+00 -0.17873588085E+03  0.17873588085E+03  0.00000000000E+00 0.  1.
         23    2    1    2    0    0 -0.10852203340E+01  0.83830341837E+01 -0.64836853130E+02  0.11884730094E+03  0.99244196064E+02 0.  0.
         23    2    1    2    0    0  0.24370338368E+02  0.15042556181E+02 -0.33373225133E+02  0.99521010350E+02  0.89277474520E+02 0.  0.
        -11    1    3    3    0    0 -0.41461945107E+02  0.27958698692E+02 -0.15951732089E+02  0.52490375129E+02  0.00000000000E+00 0.  1.
         11    1    3    3    0    0  0.40376724772E+02 -0.19575664508E+02 -0.48885121041E+02  0.66356925814E+02  0.00000000000E+00 0. -1.
        -13    1    4    4    0    0  0.67747589190E+01  0.33175111491E+02 -0.56107141976E+02  0.65532410008E+02  0.00000000000E+00 0.  1.
         13    1    4    4    0    0  0.17595579449E+02 -0.18132555309E+02  0.22733916842E+02  0.33988600342E+02  0.00000000000E+00 0. -1.
         -1    1    1    2    0  502 -0.23285118034E+02 -0.23425590365E+02 -0.71076662132E+01  0.33785705924E+02  0.00000000000E+00 0.  1.
<scales pt_clust_5="13000.00000" pt_clust_6="13000.00000" pt_clust_7="13000.00000" pt_clust_8="13000.00000" pt_clust_9="33.02961"></scales>
<clustering>
<clus scale="   33.030">  1  9  2 -1</clus>
<clus scale="   89.277">  7  8 -1 -1</clus>
<clus scale="   90.047">  1  7  2 -1</clus>
<clus scale="   99.244">  5  6 -1 -1</clus>
<clus scale="   33.030">  1  5  2 -1</clus>
</clustering>
</event>
<event>
 9    1  0.1636528E-005  0.1098301E+03  0.7546771E-02  0.1265341E+00
         21   -1    0    0  501  502  0.00000000000E+00  0.00000000000E+00  0.26938568786E+03  0.26938568786E+03  0.00000000000E+00 0. -1.
          2   -1    0    0  502    0 -0.00000000000E+00 -0.00000000000E+00 -0.43964997997E+03  0.43964997997E+03  0.00000000000E+00 0. -1.
         23    2    1    2    0    0  0.37212388232E+02 -0.31765207394E+02 -0.21345855016E+03  0.23818683379E+03  0.93672967888E+02 0.  0.
         23    2    1    2    0    0  0.23530597776E+02  0.40029731574E+02 -0.19462653322E+03  0.22525416498E+03  0.10345957165E+03 0.  0.
        -13    1    4    4    0    0  0.32931107532E+01 -0.24173736723E+02 -0.12883875190E+03  0.13112832691E+03  0.00000000000E+00 0. -1.
         13    1    4    4    0    0  0.20237487023E+02  0.64203468297E+02 -0.65787781323E+02  0.94125838077E+02  0.00000000000E+00 0.  1.
        -13    1    3    3    0    0  0.65779522332E+02 -0.10965767731E+02 -0.16695352297E+03  0.17977951066E+03  0.00000000000E+00 0. -1.
         13    1    3    3    0    0 -0.28567134100E+02 -0.20799439663E+02 -0.46505027196E+02  0.58407323132E+02  0.00000000000E+00 0.  1.
          2    1    1    2  501    0 -0.60742986008E+02 -0.82645241794E+01  0.23782079128E+03  0.24559466906E+03  0.00000000000E+00 0. -1.
<scales pt_clust_5="13000.00000" pt_clust_6="13000.00000" pt_clust_7="13000.00000" pt_clust_8="13000.00000" pt_clust_9="61.30263"></scales>
<clustering>
<clus scale="   61.303">  1  9  2 -1</clus>
<clus scale="   93.673">  7  8 -1 -1</clus>
<clus scale="  100.665">  2  7  1 -1</clus>
<clus scale="  103.460">  5  6 -1 -1</clus>
<clus scale="   61.303">  1  5  2 -1</clus>
</clustering>
</event>
<event>
 9    1  0.1636528E-005  0.1029939E+03  0.7546771E-02  0.1275270E+00
          2   -1    0    0  502    0 -0.00000000000E+00  0.00000000000E+00  0.84768998519E+02  0.84768998519E+02  0.00000000000E+00 0. -1.
         21   -1    0    0  501  502  0.00000000000E+00 -0.00000000000E+00 -0.35966256865E+03  0.35966256865E+03  0.00000000000E+00 0. -1.
         23    2    1    2    0    0  0.48860967747E+02  0.83000503928E+01  0.14372997078E+02  0.10509135119E+03  0.91549571508E+02 0.  0.
         23    2    1    2    0    0 -0.22131059130E+02 -0.17880396068E+02 -0.75999374289E+02  0.12419104305E+03  0.94010733111E+02 0.  0.
        -11    1    4    4    0    0  0.39685029510E+01 -0.49360972437E+02 -0.65241930901E+02  0.81907045871E+02  0.00000000000E+00 0. -1.
         11    1    4    4    0    0 -0.26099562081E+02  0.31480576369E+02 -0.10757443389E+02  0.42283997181E+02  0.00000000000E+00 0.  1.
        -11    1    3    3    0    0  0.30695407878E+02  0.47806482529E+02 -0.58938996248E+01  0.57117474466E+02  0.00000000000E+00 0.  1.
         11    1    3    3    0    0  0.18165559869E+02 -0.39506432137E+02  0.20266896702E+02  0.47973876719E+02  0.00000000000E+00 0. -1.
          2    1    1    2  501    0 -0.26729908617E+02  0.95803456751E+01 -0.21326719292E+03  0.21514917294E+03  0.00000000000E+00 0. -1.
<scales pt_clust_5="13000.00000" pt_clust_6="13000.00000" pt_clust_7="13000.00000" pt_clust_8="13000.00000" pt_clust_9="28.39491"></scales>
<clustering>
<clus scale="   28.395">  2  9  1 -1</clus>
<clus scale="   91.550">  7  8 -1 -1</clus>
<clus scale="   94.011">  5  6 -1 -1</clus>
<clus scale="  100.752">  1  7  2 -1</clus>
<clus scale="   28.395">  2  5  1 -1</clus>
</clustering>
</event>
<event>
 9    1  0.1636528E-005  0.2564118E+03  0.7546771E-02  0.1145049E+00
         21   -1    0    0  501  502  0.00000000000E+00  0.00000000000E+00  0.85606822409E+03  0.85606822409E+03  0.00000000000E+00 0.  1.
         -1   -1    0    0    0  501 -0.00000000000E+00 -0.00000000000E+00 -0.31799704704E+03  0.31799704704E+03  0.00000000000E+00 0.  1.
         23    2    1    2    0    0 -0.63671505112E+02 -0.73542053654E-01 -0.17370215771E+03  0.20355268405E+03  0.84895168403E+02 0.  0.
         23    2    1    2    0    0 -0.15223576487E+03 -0.12379205638E+03 -0.45740705988E+00  0.21603842232E+03  0.90400162453E+02 0.  0.
        -11    1    3    3    0    0 -0.31965375523E+02  0.21472189465E+02 -0.15714764746E+03  0.16179685799E+03  0.00000000000E+00 0.  1.
         11    1    3    3    0    0 -0.31706129588E+02 -0.21545731519E+02 -0.16554510248E+02  0.41755826057E+02  0.00000000000E+00 0. -1.
        -11    1    4    4    0    0 -0.83286080223E+02 -0.12101504929E+03 -0.37638739176E+01  0.14695366638E+03  0.00000000000E+00 0.  1.
         11    1    4    4    0    0 -0.68949684647E+02 -0.27770070821E+01  0.33064668577E+01  0.69084755948E+02  0.00000000000E+00 0. -1.
         -1    1    1    2    0  502  0.21590726998E+03  0.12386559843E+03  0.71223074181E+03  0.75447416476E+03  0.00000000000E+00 0.  1.
<scales pt_clust_5="13000.00000" pt_clust_6="13000.00000" pt_clust_7="13000.00000" pt_clust_8="13000.00000" pt_clust_9="239.94757"></scales>
<clustering>
<clus scale="   84.895">  5  6 -1 -1</clus>
<clus scale="   90.400">  7  8 -1 -1</clus>
<clus scale="  106.119">  2  5  1 -1</clus>
<clus scale="  239.948">  1  9  2 -1</clus>
<clus scale="  239.948">  1  5  2 -1</clus>
</clustering>
</event>
<event>
 9    1  0.1636528E-005  0.3807182E+03  0.7546771E-02  0.1050673E+00
         -4   -1    0    0    0  501 -0.00000000000E+00  0.00000000000E+00  0.28836574596E+03  0.28836574596E+03  0.00000000000E+00 0.  1.
         21   -1    0    0  501  502  0.00000000000E+00 -0.00000000000E+00 -0.65766281146E+03  0.65766281146E+03  0.00000000000E+00 0.  1.
         23    2    1    2    0    0  0.38181393767E+03  0.25457510725E+02 -0.25795302506E+02  0.39417773205E+03  0.90998455798E+02 0.  0.
         23    2    1    2    0    0 -0.34943488326E+03 -0.16167164882E+02 -0.21852364053E+03  0.42241263632E+03  0.91179707134E+02 0.  0.
        -13    1    4    4    0    0 -0.33033848736E+03 -0.64677110151E+01 -0.17495615644E+03  0.37386495449E+03  0.00000000000E+00 0.  1.
         13    1    4    4    0    0 -0.19096395906E+02 -0.96994538670E+01 -0.43567484091E+02  0.48547681838E+02  0.00000000000E+00 0. -1.
        -13    1    3    3    0    0  0.28022216236E+03 -0.14942513744E+02  0.47515654127E+01  0.28066050020E+03  0.00000000000E+00 0.  1.
         13    1    3    3    0    0  0.10159177531E+03  0.40400024469E+02 -0.30546867919E+02  0.11351723185E+03  0.00000000000E+00 0. -1.
         -4    1    1    2    0  502 -0.32379054406E+02 -0.92903458431E+01 -0.12497812247E+03  0.12943818905E+03  0.00000000000E+00 0.  1.
<scales pt_clust_5="13000.00000" pt_clust_6="13000.00000" pt_clust_7="13000.00000" pt_clust_8="13000.00000" pt_clust_9="33.68551"></scales>
<clustering>
<clus scale="   33.686">  2  9  1 -1</clus>
<clus scale="   90.998">  7  8 -1 -1</clus>
<clus scale="   91.180">  5  6 -1 -1</clus>
<clus scale="  380.675">  1  7  2 -1</clus>
<clus scale="   33.686">  2  5  1 -1</clus>
</clustering>
</event>
<event>
 9    1  0.1636528E-005  0.1495550E+03  0.7546771E-02  0.1201517E+00
         21   -1    0    0  501  502  0.00000000000E+00  0.00000000000E+00  0.20925852693E+03  0.20925852693E+03  0.00000000000E+00 0.  1.
          1   -1    0    0  502    0 -0.00000000000E+00 -0.00000000000E+00 -0.18447157365E+03  0.18447157365E+03  0.00000000000E+00 0. -1.
         23    2    1    2    0    0 -0.66882898333E+02 -0.81862849241E+02 -0.53698706955E+02  0.14884875828E+03  0.89986407518E+02 0.  0.
         23    2    1    2    0    0  0.86309414788E+02  0.10915286053E+03  0.85795642419E+01  0.16736362487E+03  0.92592180903E+02 0.  0.
        -13    1    3    3    0    0  0.13235594096E+02 -0.46870894643E+02 -0.33518943047E+02  0.59123440856E+02  0.00000000000E+00 0.  1.
         13    1    3    3    0    0 -0.80118492429E+02 -0.34991954598E+02 -0.20179763908E+02  0.89725317426E+02  0.00000000000E+00 0. -1.
        -13    1    4    4    0    0  0.52914147360E+02  0.49198522811E+02  0.49388398558E+02  0.87519229600E+02  0.00000000000E+00 0.  1.
         13    1    4    4    0    0  0.33395267427E+02  0.59954337723E+02 -0.40808834316E+02  0.79844395273E+02  0.00000000000E+00 0. -1.
          1    1    1    2  501    0 -0.19426516454E+02 -0.27290011293E+02  0.69906095992E+02  0.77517717425E+02  0.00000000000E+00 0. -1.
<scales pt_clust_5="13000.00000" pt_clust_6="13000.00000" pt_clust_7="13000.00000" pt_clust_8="13000.00000" pt_clust_9="33.49827"></scales>
<clustering>
<clus scale="   33.498">  1  9  2 -1</clus>
<clus scale="   89.986">  5  6 -1 -1</clus>
<clus scale="   92.592">  7  8 -1 -1</clus>
<clus scale="  147.956">  2  5  1 -1</clus>
<clus scale="   33.498">  1  5  2 -1</clus>
</clustering>
</event>
<event>
 9    1  0.1636528E-005  0.1332806E+03  0.7546771E-02  0.1222904E+00
         -1   -1    0    0    0  501 -0.00000000000E+00  0.00000000000E+00  0.32465288993E+03  0.32465288993E+03  0.00000000000E+00 0.  1.
         21   -1    0    0  501  502  0.00000000000E+00 -0.00000000000E+00 -0.67997332703E+02  0.67997332703E+02  0.00000000000E+00 0. -1.
         23    2    1    2    0    0 -0.45011826861E+02 -0.74946220071E+02  0.13210497854E+03  0.18349901425E+03  0.92612971095E+02 0.  0.
         23    2    1    2    0    0  0.52321076632E+02  0.95326888203E+02  0.89774812005E+02  0.16818597051E+03  0.91664023103E+02 0.  0.
        -13    1    4    4    0    0  0.30603501960E+02  0.25244285123E+02  0.86010724262E+02  0.94719021065E+02  0.00000000000E+00 0.  1.
         13    1    4    4    0    0  0.21717574673E+02  0.70082603080E+02  0.37640877435E+01  0.73466949445E+02  0.00000000000E+00 0. -1.
        -13    1    3    3    0    0  0.97365827325E+01 -0.70277390950E+02  0.60501006817E+02  0.93242074987E+02  0.00000000000E+00 0.  1.
         13    1    3    3    0    0 -0.54748409594E+02 -0.46688291208E+01  0.71603971724E+02  0.90256939262E+02  0.00000000000E+00 0. -1.
         -1    1    1    2    0  502 -0.73092497709E+01 -0.20380668133E+02  0.34775766678E+02  0.40965237870E+02  0.00000000000E+00 0.  1.
<scales pt_clust_5="13000.00000" pt_clust_6="13000.00000" pt_clust_7="13000.00000" pt_clust_8="13000.00000" pt_clust_9="21.65173"></scales>
<clustering>
<clus scale="   21.652">  2  9  1 -1</clus>
<clus scale="   91.664">  5  6 -1 -1</clus>
<clus scale="   92.613">  7  8 -1 -1</clus>
<clus scale="  132.623">  2  5  1 -1</clus>
<clus scale="   21.652">  2  5  1 -1</clus>
</clustering>
</event>
<event>
 9    1  0.1636528E-005  0.1448478E+03  0.7546771E-02  0.1208329E+00
          1   -1    0    0  502    0 -0.00000000000E+00  0.00000000000E+00  0.31231139538E+03  0.31231139538E+03  0.00000000000E+00 0. -1.
         21   -1    0    0  501  502  0.00000000000E+00 -0.00000000000E+00 -0.14504093387E+03  0.14504093387E+03  0.00000000000E+00 0. -1.
         23    2    1    2    0    0  0.53668636525E+02 -0.12391084575E+03  0.13771589379E+03  0.21373908755E+03  0.92111399423E+02 0.  0.
         23    2    1    2    0    0  0.37374624785E+02  0.82548523806E+02  0.47590508806E+02  0.14200117412E+03  0.98429444598E+02 0.  0.
        -11    1    3    3    0    0 -0.10063618957E+02 -0.20237997449E+02 -0.79209780221E+01  0.23949840502E+02  0.00000000000E+00 0.  1.
         11    1    3    3    0    0  0.63732255482E+02 -0.10367284830E+03  0.14563687181E+03  0.18978924705E+03  0.00000000000E+00 0. -1.
        -11    1    4    4    0    0 -0.30367116690E+02  0.33765528976E+02 -0.97564513901E+00  0.45422732267E+02  0.00000000000E+00 0.  1.
         11    1    4    4    0    0  0.67741741475E+02  0.48782994829E+02  0.48566153945E+02  0.96578441858E+02  0.00000000000E+00 0. -1.
          1    1    1    2  501    0 -0.91043261310E+02  0.41362321941E+02 -0.18035941086E+02  0.10161206758E+03  0.00000000000E+00 0. -1.
<scales pt_clust_5="13000.00000" pt_clust_6="13000.00000" pt_clust_7="13000.00000" pt_clust_8="13000.00000" pt_clust_9="99.99859"></scales>
<clustering>
<clus scale="   92.111">  5  6 -1 -1</clus>
<clus scale="   98.429">  7  8 -1 -1</clus>
<clus scale="   99.999">  2  9  1 -1</clus>
<clus scale="  140.631">  1  5  2 -1</clus>
<clus scale="   99.999">  2  5  1 -1</clus>
</clustering>
</event>
<event>
 9    1  0.1636528E-005  0.9279364E+02  0.7546771E-02  0.1298120E+00
          2   -1    0    0  502    0 -0.00000000000E+00  0.00000000000E+00  0.29489899671E+02  0.29489899671E+02  0.00000000000E+00 0. -1.
         21   -1    0    0  501  502  0.00000000000E+00 -0.00000000000E+00 -0.39772577246E+03  0.39772577246E+03  0.00000000000E+00 0.  1.
         23    2    1    2    0    0 -0.10869026242E+02  0.14357266301E+02 -0.11650014252E+03  0.14884019186E+03  0.90867225546E+02 0.  0.
         23    2    1    2    0    0 -0.85750355874E+01 -0.24260619847E+02 -0.16130892688E+03  0.18535314573E+03  0.87596288912E+02 0.  0.
        -11    1    3    3    0    0  0.25058491758E+02  0.35647175190E+02 -0.88249061700E+02  0.98420251977E+02  0.00000000000E+00 0.  1.
         11    1    3    3    0    0 -0.35927518001E+02 -0.21289908889E+02 -0.28251080817E+02  0.50419939880E+02  0.00000000000E+00 0. -1.
        -13    1    4    4    0    0  0.27376261634E+02 -0.41064858659E+02 -0.68611401589E+02  0.84518085318E+02  0.00000000000E+00 0. -1.
         13    1    4    4    0    0 -0.35951297221E+02  0.16804238812E+02 -0.92697525291E+02  0.10083506042E+03  0.00000000000E+00 0.  1.
          2    1    1    2  501    0  0.19444061830E+02  0.99033535463E+01 -0.90426803397E+02  0.93022334546E+02  0.00000000000E+00 0. -1.
<scales pt_clust_5="13000.00000" pt_clust_6="13000.00000" pt_clust_7="13000.00000" pt_clust_8="13000.00000" pt_clust_9="21.82081"></scales>
<clustering>
<clus scale="   21.821">  2  9  1 -1</clus>
<clus scale="   87.596">  7  8 -1 -1</clus>
<clus scale="   89.593">  2  7  1 -1</clus>
<clus scale="   90.867">  5  6 -1 -1</clus>
<clus scale="   21.821">  2  5  1 -1</clus>
</clustering>
</event>
<event>
 9    1  0.1636528E-005  0.9758943E+02  0.7546771E-02  0.1285997E+00
         21   -1    0    0  501  502  0.00000000000E+00  0.00000000000E+00  0.21921379963E+03  0.21921379963E+03  0.00000000000E+00 0.  1.
          1   -1    0    0  502    0 -0.00000000000E+00 -0.00000000000E+00 -0.63286248117E+02  0.63286248117E+02  0.00000000000E+00 0. -1.
         23    2    1    2    0    0 -0.33470666992E+02  0.20416459249E+02  0.27204266183E+02  0.10368624201E+03  0.92052416188E+02 0.  0.
         23    2    1    2    0    0  0.12141456241E+02 -0.21386095649E+02  0.73235680281E+02  0.11936004438E+03  0.90986676390E+02 0.  0.
        -13    1    3    3    0    0 -0.16328597902E+02 -0.36712257461E+02  0.14399945853E+02  0.42682214070E+02  0.00000000000E+00 0.  1.
         13    1    3    3    0    0 -0.17142069090E+02  0.57128716710E+02  0.12804320330E+02  0.61004027939E+02  0.00000000000E+00 0. -1.
        -13    1    4    4    0    0  0.46303215198E+02 -0.16634980079E+02  0.68804687020E+02  0.84586022816E+02  0.00000000000E+00 0.  1.
         13    1    4    4    0    0 -0.34161758957E+02 -0.47511155703E+01  0.44309932611E+01  0.34774021560E+02  0.00000000000E+00 0. -1.
          1    1    1    2  501    0  0.21329210752E+02  0.96963639969E+00  0.55487605049E+02  0.59453761362E+02  0.00000000000E+00 0. -1.
<scales pt_clust_5="13000.00000" pt_clust_6="13000.00000" pt_clust_7="13000.00000" pt_clust_8="13000.00000" pt_clust_9="21.35124"></scales>
<clustering>
<clus scale="   21.351">  1  9  2 -1</clus>
<clus scale="   90.987">  7  8 -1 -1</clus>
<clus scale="   92.052">  5  6 -1 -1</clus>
<clus scale="   96.585">  1  7  2 -1</clus>
<clus scale="   21.351">  1  5  2 -1</clus>
</clustering>
</event>
<event>
 9    1  0.1636528E-005  0.3106516E+03  0.7546771E-02  0.1080055E+00
          1   -1    0    0  502    0 -0.00000000000E+00  0.00000000000E+00  0.21341745345E+03  0.21341745345E+03  0.00000000000E+00 0. -1.
         21   -1    0    0  501  502  0.00000000000E+00 -0.00000000000E+00 -0.68610056838E+03  0.68610056838E+03  0.00000000000E+00 0.  1.
         23    2    1    2    0    0  0.16758756113E+03  0.26951784370E+03 -0.12929034048E+03  0.35445136638E+03  0.90522484884E+02 0.  0.
         23    2    1    2    0    0 -0.62062271230E+02 -0.26751733561E+03 -0.33006093638E+03  0.43868373037E+03  0.89921872793E+02 0.  0.
        -11    1    4    4    0    0 -0.18254655057E+02 -0.12195358215E+02 -0.41223378507E+01  0.22337252799E+02  0.00000000000E+00 0. -1.
         11    1    4    4    0    0 -0.43807616173E+02 -0.25532197739E+03 -0.32593859853E+03  0.41634647757E+03  0.00000000000E+00 0.  1.
        -13    1    3    3    0    0  0.68791474186E+02  0.10242121236E+03 -0.40642432933E+01  0.12344589801E+03  0.00000000000E+00 0. -1.
         13    1    3    3    0    0  0.98796086946E+02  0.16709663134E+03 -0.12522609719E+03  0.23100546837E+03  0.00000000000E+00 0.  1.
          1    1    1    2  501    0 -0.10552528990E+03 -0.20005080946E+01 -0.13331838070E+02  0.10638292508E+03  0.00000000000E+00 0. -1.
<scales pt_clust_5="13000.00000" pt_clust_6="13000.00000" pt_clust_7="13000.00000" pt_clust_8="13000.00000" pt_clust_9="105.54430"></scales>
<clustering>
<clus scale="   89.922">  5  6 -1 -1</clus>
<clus scale="   90.522">  7  8 -1 -1</clus>
<clus scale="  105.544">  2  9  1 -1</clus>
<clus scale="  310.477">  2  5  1 -1</clus>
<clus scale="  105.544">  2  5  1 -1</clus>
</clustering>
</event>
<event>
 9    1  0.1636528E-005  0.9716154E+02  0.7546771E-02  0.1287872E+00
          4   -1    0    0  502    0 -0.00000000000E+00  0.00000000000E+00  0.26329693557E+03  0.26329693557E+03  0.00000000000E+00 0. -1.
         21   -1    0    0  501  502  0.00000000000E+00 -0.00000000000E+00 -0.62778633991E+02  0.62778633991E+02  0.00000000000E+00 0.  1.
         23    2    1    2    0    0 -0.20499013703E+02  0.27878445483E+01  0.13636204542E+03  0.16578966700E+03  0.91997959830E+02 0.  0.
         23    2    1    2    0    0  0.46816400892E+02 -0.18752526446E+02  0.75746976738E+02  0.12739485910E+03  0.89153872597E+02 0.  0.
        -11    1    3    3    0    0 -0.28649645993E+02 -0.28994066003E+02  0.21000137997E+02  0.45852632147E+02  0.00000000000E+00 0.  1.
         11    1    3    3    0    0  0.81506322904E+01  0.31781910551E+02  0.11536190742E+03  0.11993703485E+03  0.00000000000E+00 0. -1.
        -13    1    4    4    0    0  0.32196002682E+02  0.30534707335E+02  0.57958996070E+02  0.72994494082E+02  0.00000000000E+00 0. -1.
         13    1    4    4    0    0  0.14620398211E+02 -0.49287233782E+02  0.17787980668E+02  0.54400365016E+02  0.00000000000E+00 0.  1.
          4    1    1    2  501    0 -0.26317387189E+02  0.15964681898E+02 -0.11590720579E+02  0.32891043463E+02  0.00000000000E+00 0. -1.
<scales pt_clust_5="13000.00000" pt_clust_6="13000.00000" pt_clust_7="13000.00000" pt_clust_8="13000.00000" pt_clust_9="30.78110"></scales>
<clustering>
<clus scale="   30.781">  2  9  1 -1</clus>
<clus scale="   89.154">  7  8 -1 -1</clus>
<clus scale="   91.998">  5  6 -1 -1</clus>
<clus scale="   94.473">  2  7  1 -1</clus>
<clus scale="   30.781">  2  5  1 -1</clus>
</clustering>
</event>
<event>
 9    1  0.1636528E-005  0.1177662E+03  0.7546771E-02  0.1246945E+00
         21   -1    0    0  501  502  0.00000000000E+00  0.00000000000E+00  0.23945633977E+03  0.23945633977E+03  0.00000000000E+00 0. -1.
          2   -1    0    0  502    0 -0.00000000000E+00 -0.00000000000E+00 -0.15315088071E+03  0.15315088071E+03  0.00000000000E+00 0. -1.
         23    2    1    2    0    0  0.46504504983E+02  0.54901474161E+02 -0.26769478636E+02  0.11805488505E+03  0.89685617844E+02 0.  0.
         23    2    1    2    0    0 -0.73075682941E+02 -0.40288293322E+02 -0.31988713176E+02  0.12635302586E+03  0.89323050542E+02 0.  0.
        -13    1    4    4    0    0 -0.54518210865E+02  0.19434987035E+02 -0.45462514865E+01  0.58057061927E+02  0.00000000000E+00 0. -1.
         13    1    4    4    0    0 -0.18557472075E+02 -0.59723280357E+02 -0.27442461690E+02  0.68295963936E+02  0.00000000000E+00 0.  1.
        -13    1    3    3    0    0  0.63818781810E+02  0.92136755061E+01 -0.53331068593E+01  0.64700624083E+02  0.00000000000E+00 0.  1.
         13    1    3    3    0    0 -0.17314276827E+02  0.45687798655E+02 -0.21436371777E+02  0.53354260963E+02  0.00000000000E+00 0. -1.
          2    1    1    2  501    0  0.26571177958E+02 -0.14613180839E+02  0.14506365087E+03  0.14819930957E+03  0.00000000000E+00 0. -1.
<scales pt_clust_5="13000.00000" pt_clust_6="13000.00000" pt_clust_7="13000.00000" pt_clust_8="13000.00000" pt_clust_9="30.32445"></scales>
<clustering>
<clus scale="   30.324">  1  9  2 -1</clus>
<clus scale="   89.323">  5  6 -1 -1</clus>
<clus scale="   89.686">  7  8 -1 -1</clus>
<clus scale="  117.490">  1  5  2 -1</clus>
<clus scale="   30.324">  1  5  2 -1</clus>
</clustering>
</event>
<event>
 9    1  0.1636528E-005  0.9621921E+02  0.7546771E-02  0.1289839E+00
         21   -1    0    0  501  502  0.00000000000E+00  0.00000000000E+00  0.15111953450E+03  0.15111953450E+03  0.00000000000E+00 0. -1.
          2   -1    0    0  502    0 -0.00000000000E+00 -0.00000000000E+00 -0.41560919580E+03  0.41560919580E+03  0.00000000000E+00 0. -1.
         23    2    1    2    0    0 -0.15135941841E+02 -0.26359925696E+02 -0.35300224471E+03  0.36632952417E+03  0.93074126844E+02 0.  0.
         23    2    1    2    0    0 -0.38185310793E+02 -0.85987314193E+01  0.98045240159E+01  0.99106450698E+02  0.90520184138E+02 0.  0.
        -13    1    4    4    0    0 -0.49113176610E+02 -0.32765233461E+02 -0.16959257937E+02  0.61427038592E+02  0.00000000000E+00 0. -1.
         13    1    4    4    0    0  0.10927865817E+02  0.24166502041E+02  0.26763781952E+02  0.37679412106E+02  0.00000000000E+00 0.  1.
        -13    1    3    3    0    0 -0.45576467947E+02 -0.29005689591E+02 -0.30263211418E+03  0.30741623411E+03  0.00000000000E+00 0. -1.
         13    1    3    3    0    0  0.30440526106E+02  0.26457638945E+01 -0.50370130534E+02  0.58913290065E+02  0.00000000000E+00 0.  1.
          2    1    1    2  501    0  0.53321252634E+02  0.34958657116E+02  0.78708059396E+02  0.10129275544E+03  0.00000000000E+00 0. -1.
<scales pt_clust_5="13000.00000" pt_clust_6="13000.00000" pt_clust_7="13000.00000" pt_clust_8="13000.00000" pt_clust_9="63.75942"></scales>
<clustering>
<clus scale="   63.759">  1  9  2 -1</clus>
<clus scale="   90.520">  5  6 -1 -1</clus>
<clus scale="   93.074">  7  8 -1 -1</clus>
<clus scale="   93.751">  1  5  2 -1</clus>
<clus scale="   63.759">  1  5  2 -1</clus>
</clustering>
</event>
<event>
 9    1  0.1636528E-005  0.1231872E+03  0.7546771E-02  0.1238894E+00
          3   -1    0    0  502    0 -0.00000000000E+00  0.00000000000E+00  0.10087446355E+04  0.10087446355E+04  0.00000000000E+00 0. -1.
         21   -1    0    0  501  502  0.00000000000E+00 -0.00000000000E+00 -0.26694514592E+02  0.26694514592E+02  0.00000000000E+00 0.  1.
         23    2    1    2    0    0  0.58063816954E+02  0.30791686505E+02  0.32610987442E+03  0.34432931862E+03  0.88856596124E+02 0.  0.
         23    2    1    2    0    0 -0.73976260648E+02 -0.84513746876E+02  0.33228566407E+03  0.36264133320E+03  0.92086445498E+02 0.  0.
        -11    1    4    4    0    0 -0.85595077445E+02 -0.52498537773E+02  0.17546364720E+03  0.20216356062E+03  0.00000000000E+00 0. -1.
         11    1    4    4    0    0  0.11618816797E+02 -0.32015209103E+02  0.15682201687E+03  0.16047777258E+03  0.00000000000E+00 0.  1.
        -11    1    3    3    0    0 -0.21608719008E+02  0.42984135499E+01  0.11582781651E+03  0.11790460625E+03  0.00000000000E+00 0.  1.
         11    1    3    3    0    0  0.79672535962E+02  0.26493272955E+02  0.21028205790E+03  0.22642471238E+03  0.00000000000E+00 0. -1.
          3    1    1    2  501    0  0.15912443694E+02  0.53722060371E+02  0.32365458239E+03  0.32846849825E+03  0.00000000000E+00 0. -1.
<scales pt_clust_5="13000.00000" pt_clust_6="13000.00000" pt_clust_7="13000.00000" pt_clust_8="13000.00000" pt_clust_9="56.02918"></scales>
<clustering>
<clus scale="   56.029">  2  9  1 -1</clus>
<clus scale="   88.857">  7  8 -1 -1</clus>
<clus scale="   92.086">  5  6 -1 -1</clus>
<clus scale="  120.792">  1  7  2 -1</clus>
<clus scale="   56.029">  2  5  1 -1</clus>
</clustering>
</event>
<event>
 9    1  0.1636528E-005  0.2036305E+03  0.7546771E-02  0.1173455E+00
         -4   -1    0    0    0  501 -0.00000000000E+00  0.00000000000E+00  0.62858807994E+02  0.62858807994E+02  0.00000000000E+00 0.  1.
         21   -1    0    0  501  502  0.00000000000E+00 -0.00000000000E+00 -0.10836979388E+04  0.10836979388E+04  0.00000000000E+00 0.  1.
         23    2    1    2    0    0  0.27505187116E+02  0.57832088681E+02 -0.19571373859E+03  0.22414784894E+03  0.88528554236E+02 0.  0.
         23    2    1    2    0    0  0.11744370280E+03  0.79846549755E+02 -0.18086380991E+03  0.24784342690E+03  0.92445398393E+02 0.  0.
        -11    1    3    3    0    0  0.42614701800E+02  0.20413670289E+01 -0.41753917963E+02  0.59695641835E+02  0.00000000000E+00 0. -1.
         11    1    3    3    0    0 -0.15109514684E+02  0.55790721652E+02 -0.15395982062E+03  0.16445220711E+03  0.00000000000E+00 0.  1.
        -11    1    4    4    0    0  0.93451247839E+02  0.60650529599E+02 -0.67213120509E+02  0.13011235926E+03  0.00000000000E+00 0.  1.
         11    1    4    4    0    0  0.23992454960E+02  0.19196020156E+02 -0.11365068940E+03  0.11773106764E+03  0.00000000000E+00 0. -1.
         -4    1    1    2    0  502 -0.14494888991E+03 -0.13767863844E+03 -0.64426158232E+03  0.67456547096E+03  0.00000000000E+00 0.  1.
<scales pt_clust_5="13000.00000" pt_clust_6="13000.00000" pt_clust_7="13000.00000" pt_clust_8="13000.00000" pt_clust_9="181.43656"></scales>
<clustering>
<clus scale="   88.529">  5  6 -1 -1</clus>
<clus scale="   92.445">  7  8 -1 -1</clus>
<clus scale="  109.263">  1  5  2 -1</clus>
<clus scale="  181.437">  2  9  1 -1</clus>
<clus scale="  181.437">  2  5  1 -1</clus>
</clustering>
</event>
<event>
 9    1  0.1636528E-005  0.2410695E+03  0.7546771E-02  0.1119234E+00
         -1   -1    0    0    0  501 -0.00000000000E+00  0.00000000000E+00  0.28049448087E+03  0.28049448087E+03  0.00000000000E+00 0.  1.
         21   -1    0    0  501  502  0.00000000000E+00 -0.00000000000E+00 -0.45098874186E+03  0.45098874186E+03  0.00000000000E+00 0.  1.
         23    2    1    2    0    0 -0.23224795906E+03  0.50030482218E+02  0.14153177847E+03  0.29073103642E+03  0.89728075789E+02 0.  0.
         23    2    1    2    0    0  0.18068308457E+03  0.40319645487E+02 -0.21889185047E+03  0.30112389757E+03  0.92140700137E+02 0.  0.
        -11    1    4    4    0    0  0.15972132877E+03  0.64160375938E+02 -0.16418954450E+03  0.23787741218E+03  0.00000000000E+00 0.  1.
         11    1    4    4    0    0  0.20961755801E+02 -0.23840730451E+02 -0.54702305974E+02  0.63246485385E+02  0.00000000000E+00 0. -1.
        -13    1    3    3    0    0 -0.20477597699E+03  0.24696002414E+02  0.85273768828E+02  0.22319208977E+03  0.00000000000E+00 0.  1.
         13    1    3    3    0    0 -0.27471982067E+02  0.25334479804E+02  0.56258009637E+02  0.67538946646E+02  0.00000000000E+00 0. -1.
         -1    1    1    2    0  502  0.51564874486E+02 -0.90350127705E+02 -0.93134188987E+02  0.13962828874E+03  0.00000000000E+00 0.  1.
<scales pt_clust_5="13000.00000" pt_clust_6="13000.00000" pt_clust_7="13000.00000" pt_clust_8="13000.00000" pt_clust_9="104.02924"></scales>
<clustering>
<clus scale="   89.728">  7  8 -1 -1</clus>
<clus scale="   92.141">  5  6 -1 -1</clus>
<clus scale="  104.029">  2  9  1 -1</clus>
<clus scale="  240.158">  1  7  2 -1</clus>
<clus scale="  104.029">  2  5  1 -1</clus>
</clustering>
</event>
<event>
 9    1  0.1636528E-005  0.9705867E+02  0.7546771E-02  0.1287226E+00
         21   -1    0    0  501  502  0.00000000000E+00  0.00000000000E+00  0.13095926869E+03  0.13095926869E+03  0.00000000000E+00 0.  1.
          1   -1    0    0  502    0 -0.00000000000E+00 -0.00000000000E+00 -0.42863364354E+03  0.42863364354E+03  0.00000000000E+00 0. -1.
         23    2    1    2    0    0  0.21104922563E+02  0.30354393111E+02 -0.37220172719E+03  0.38459416347E+03  0.89508311997E+02 0.  0.
         23    2    1    2    0    0 -0.47198479358E+02 -0.17568966961E+02  0.74666338566E+01  0.10191331388E+03  0.88284811101E+02 0.  0.
        -11    1    4    4    0    0 -0.17538415335E+02 -0.47894253702E+02 -0.15975837561E+02  0.53447946040E+02  0.00000000000E+00 0.  1.
         11    1    4    4    0    0 -0.29660064023E+02  0.30325286741E+02  0.23442471417E+02  0.48465367841E+02  0.00000000000E+00 0. -1.
        -13    1    3    3    0    0 -0.13216181853E+02  0.52272936675E+02 -0.17048587767E+03  0.17880872981E+03  0.00000000000E+00 0.  1.
         13    1    3    3    0    0  0.34321104416E+02 -0.21918543563E+02 -0.20171584951E+03  0.20578543366E+03  0.00000000000E+00 0. -1.
          1    1    1    2  501    0  0.26093556795E+02 -0.12785426151E+02  0.67060718479E+02  0.73085434876E+02  0.00000000000E+00 0. -1.
<scales pt_clust_5="13000.00000" pt_clust_6="13000.00000" pt_clust_7="13000.00000" pt_clust_8="13000.00000" pt_clust_9="29.05754"></scales>
<clustering>
<clus scale="   29.058">  1  9  2 -1</clus>
<clus scale="   88.285">  5  6 -1 -1</clus>
<clus scale="   89.508">  7  8 -1 -1</clus>
<clus scale="   95.932">  1  5  2 -1</clus>
<clus scale="   29.058">  1  5  2 -1</clus>
</clustering>
</event>
<event>
 9    1  0.1636528E-005  0.1076155E+03  0.7546771E-02  0.1282739E+00
         21   -1    0    0  501  502  0.00000000000E+00  0.00000000000E+00  0.24482022769E+03  0.24482022769E+03  0.00000000000E+00 0. -1.
          4   -1    0    0  502    0 -0.00000000000E+00 -0.00000000000E+00 -0.12332307716E+03  0.12332307716E+03  0.00000000000E+00 0. -1.
         23    2    1    2    0    0 -0.18646712513E+01  0.40997274025E+02 -0.50635276026E+02  0.89689666431E+02  0.61612106034E+02 0.  0.
         23    2    1    2    0    0 -0.42861498735E+02 -0.88136466563E+02  0.16152131544E+03  0.21261193861E+03  0.97516953827E+02 0.  0.
        -11    1    3    3    0    0  0.14102858161E+02  0.23242771935E+02 -0.58533300225E+02  0.64538858765E+02  0.00000000000E+00 0.  1.
         11    1    3    3    0    0 -0.15967529412E+02  0.17754502091E+02  0.78980241988E+01  0.25150807666E+02  0.00000000000E+00 0. -1.
        -13    1    4    4    0    0  0.31659598377E+02 -0.26372875112E+02  0.54339621282E+02  0.68195697460E+02  0.00000000000E+00 0.  1.
         13    1    4    4    0    0 -0.74521097112E+02 -0.61763591451E+02  0.10718169416E+03  0.14441624115E+03  0.00000000000E+00 0. -1.
          4    1    1    2  501    0  0.44726169986E+02  0.47139192538E+02  0.10611111112E+02  0.65841699810E+02  0.00000000000E+00 0. -1.
<scales pt_clust_5="13000.00000" pt_clust_6="13000.00000" pt_clust_7="13000.00000" pt_clust_8="13000.00000" pt_clust_9="64.98106"></scales>
<clustering>
<clus scale="   61.612">  5  6 -1 -1</clus>
<clus scale="   64.981">  1  9  2 -1</clus>
<clus scale="   76.600">  2  5  1 -1</clus>
<clus scale="   97.517">  7  8 -1 -1</clus>
<clus scale="   64.981">  1  5  2 -1</clus>
</clustering>
</event>
<event>
 9    1  0.1636528E-005  0.1254700E+03  0.7546771E-02  0.1234729E+00
         -1   -1    0    0    0  501 -0.00000000000E+00  0.00000000000E+00  0.48856303946E+03  0.48856303946E+03  0.00000000000E+00 0.  1.
         21   -1    0    0  501  502  0.00000000000E+00 -0.00000000000E+00 -0.67945265981E+02  0.67945265981E+02  0.00000000000E+00 0. -1.
         23    2    1    2    0    0  0.21033710450E+02 -0.73261165793E+02  0.27480778054E+03  0.29964720008E+03  0.91975610254E+02 0.  0.
         23    2    1    2    0    0 -0.28535287478E+02  0.98969162532E+02  0.17159404437E+03  0.21968595152E+03  0.90599356884E+02 0.  0.
        -11    1    4    4    0    0  0.23706003170E+02  0.25400032479E+01  0.13877647578E+02  0.27586505852E+02  0.00000000000E+00 0.  1.
         11    1    4    4    0    0 -0.52241290647E+02  0.96429159284E+02  0.15771639679E+03  0.19209944567E+03  0.00000000000E+00 0. -1.
        -11    1    3    3    0    0  0.41653208975E+02 -0.81816385396E+02  0.24973656914E+03  0.26607755393E+03  0.00000000000E+00 0.  1.
         11    1    3    3    0    0 -0.20619498525E+02  0.85552196025E+01  0.25071211402E+02  0.33569646156E+02  0.00000000000E+00 0. -1.
         -1    1    1    2    0  502  0.75015770274E+01 -0.25707996739E+02 -0.25784051438E+02  0.37175153836E+02  0.00000000000E+00 0.  1.
<scales pt_clust_5="13000.00000" pt_clust_6="13000.00000" pt_clust_7="13000.00000" pt_clust_8="13000.00000" pt_clust_9="26.78012"></scales>
<clustering>
<clus scale="   26.780">  2  9  1 -1</clus>
<clus scale="   90.599">  5  6 -1 -1</clus>
<clus scale="   91.976">  7  8 -1 -1</clus>
<clus scale="  124.465">  2  5  1 -1</clus>
<clus scale="   26.780">  2  5  1 -1</clus>
</clustering>
</event>
<event>
 9    1  0.1636528E-005  0.2031278E+03  0.7546771E-02  0.1173201E+00
          4   -1    0    0  502    0 -0.00000000000E+00  0.00000000000E+00  0.62428622140E+03  0.62428622140E+03  0.00000000000E+00 0. -1.
         21   -1    0    0  501  502  0.00000000000E+00 -0.00000000000E+00 -0.16246282495E+03  0.16246282495E+03  0.00000000000E+00 0.  1.
         23    2    1    2    0    0  0.49895779685E+02  0.30412815965E+02  0.59630058962E+02  0.12575212682E+03  0.94038956090E+02 0.  0.
         23    2    1    2    0    0  0.71082424751E+02 -0.16800788498E+03  0.42992827101E+03  0.47569350482E+03  0.90369418444E+02 0.  0.
        -13    1    4    4    0    0  0.65883003648E+02 -0.48523265534E+02  0.20947044169E+03  0.22488428894E+03  0.00000000000E+00 0. -1.
         13    1    4    4    0    0  0.51994211030E+01 -0.11948461945E+03  0.22045782931E+03  0.25080921588E+03  0.00000000000E+00 0.  1.
        -13    1    3    3    0    0  0.32365441528E+02  0.63146440505E+02  0.51668353644E+02  0.87775927919E+02  0.00000000000E+00 0. -1.
         13    1    3    3    0    0  0.17530338157E+02 -0.32733624539E+02  0.79617053180E+01  0.37976198901E+02  0.00000000000E+00 0.  1.
          4    1    1    2  501    0 -0.12097820444E+03  0.13759506902E+03 -0.27734933517E+02  0.18530341471E+03  0.00000000000E+00 0. -1.
<scales pt_clust_5="13000.00000" pt_clust_6="13000.00000" pt_clust_7="13000.00000" pt_clust_8="13000.00000" pt_clust_9="181.91835"></scales>
<clustering>
<clus scale="   90.369">  5  6 -1 -1</clus>
<clus scale="   94.039">  7  8 -1 -1</clus>
<clus scale="  110.715">  1  7  2 -1</clus>
<clus scale="  181.918">  2  9  1 -1</clus>
<clus scale="  181.918">  2  5  1 -1</clus>
</clustering>
</event>
<event>
 9    1  0.1636528E-005  0.1884773E+03  0.7546771E-02  0.1177091E+00
         21   -1    0    0  501  502  0.00000000000E+00  0.00000000000E+00  0.90673927556E+03  0.90673927556E+03  0.00000000000E+00 0. -1.
          1   -1    0    0  502    0 -0.00000000000E+00 -0.00000000000E+00 -0.21954238238E+03  0.21954238238E+03  0.00000000000E+00 0. -1.
         23    2    1    2    0    0  0.25977173389E+02 -0.79524135304E+02  0.33116944174E+02  0.13114459860E+03  0.95411069151E+02 0.  0.
         23    2    1    2    0    0  0.10729007749E+03 -0.24994878205E+02 -0.13021215726E+03  0.19276651384E+03  0.89821034819E+02 0.  0.
        -13    1    4    4    0    0  0.74435035164E+02 -0.23050650916E+02 -0.23943828783E+02  0.81518181434E+02  0.00000000000E+00 0.  1.
         13    1    4    4    0    0  0.32855042326E+02 -0.19442272893E+01 -0.10626832848E+03  0.11124833241E+03  0.00000000000E+00 0. -1.
        -13    1    3    3    0    0  0.23438411461E+00 -0.88545425545E+02  0.39826556213E+00  0.88546631423E+02  0.00000000000E+00 0.  1.
         13    1    3    3    0    0  0.25742789274E+02  0.90212902412E+01  0.32718678612E+02  0.42597967173E+02  0.00000000000E+00 0. -1.
          1    1    1    2  501    0 -0.13326725088E+03  0.10451901351E+03  0.78429210627E+03  0.80237054551E+03  0.00000000000E+00 0. -1.
<scales pt_clust_5="13000.00000" pt_clust_6="13000.00000" pt_clust_7="13000.00000" pt_clust_8="13000.00000" pt_clust_9="165.69813"></scales>
<clustering>
<clus scale="   89.821">  5  6 -1 -1</clus>
<clus scale="   95.411">  7  8 -1 -1</clus>
<clus scale="  126.894">  2  7  1 -1</clus>
<clus scale="  165.698">  1  9  2 -1</clus>
<clus scale="  165.698">  1  5  2 -1</clus>
</clustering>
</event>
<event>
 9    1  0.1636528E-005  0.9993880E+02  0.7546771E-02  0.1281382E+00
         21   -1    0    0  501  502  0.00000000000E+00  0.00000000000E+00  0.21247074212E+03  0.21247074212E+03  0.00000000000E+00 0. -1.
          1   -1    0    0  502    0 -0.00000000000E+00 -0.00000000000E+00 -0.27978456820E+03  0.27978456820E+03  0.00000000000E+00 0. -1.
         23    2    1    2    0    0  0.13863063772E+01  0.24924486717E+02 -0.21700320863E+03  0.23819639257E+03  0.94994615600E+02 0.  0.
         23    2    1    2    0    0 -0.21616585409E+02 -0.86992252181E+02  0.58372376363E+02  0.14180711457E+03  0.93096695515E+02 0.  0.
        -13    1    4    4    0    0  0.14450805911E+02 -0.88372151197E+02  0.56044613605E+02  0.10563835294E+03  0.00000000000E+00 0. -1.
         13    1    4    4    0    0 -0.36067391321E+02  0.13798990163E+01  0.23277627581E+01  0.36168761624E+02  0.00000000000E+00 0.  1.
        -13    1    3    3    0    0 -0.39830408394E+01  0.55926041241E+02 -0.18503176119E+03  0.19333995798E+03  0.00000000000E+00 0.  1.
         13    1    3    3    0    0  0.53693472165E+01 -0.31001554524E+02 -0.31971447444E+02  0.44856434589E+02  0.00000000000E+00 0. -1.
          1    1    1    2  501    0  0.20230279032E+02  0.62067765464E+02  0.91317006182E+02  0.11225180318E+03  0.00000000000E+00 0. -1.
<scales pt_clust_5="13000.00000" pt_clust_6="13000.00000" pt_clust_7="13000.00000" pt_clust_8="13000.00000" pt_clust_9="65.28148"></scales>
<clustering>
<clus scale="   65.281">  1  9  2 -1</clus>
<clus scale="   93.097">  5  6 -1 -1</clus>
<clus scale="   94.995">  7  8 -1 -1</clus>
<clus scale="   98.137">  1  5  2 -1</clus>
<clus scale="   65.281">  1  5  2 -1</clus>
</clustering>
</event>
<event>
 9    1  0.1636528E-005  0.1046337E+03  0.7546771E-02  0.1271010E+00
          1   -1    0    0  502    0 -0.00000000000E+00  0.00000000000E+00  0.15603327805E+03  0.15603327805E+03  0.00000000000E+00 0. -1.
         21   -1    0    0  501  502  0.00000000000E+00 -0.00000000000E+00 -0.12014501473E+03  0.12014501473E+03  0.00000000000E+00 0. -1.
         23    2    1    2    0    0 -0.28165538976E+02  0.35110063434E+02  0.69021686954E+02  0.12293694745E+03  0.91233138924E+02 0.  0.
         23    2    1    2    0    0  0.19387611310E+02 -0.62282938871E+02 -0.41358017533E+01  0.11254393450E+03  0.91618712002E+02 0.  0.
        -11    1    3    3    0    0 -0.21386541648E+02  0.58254918647E+02  0.15099525425E+02  0.63867169800E+02  0.00000000000E+00 0.  1.
         11    1    3    3    0    0 -0.67789973286E+01 -0.23144855213E+02  0.53922161528E+02  0.59069777649E+02  0.00000000000E+00 0. -1.
        -11    1    4    4    0    0 -0.10892058919E+02 -0.41267607318E+02 -0.41874612851E+02  0.59792437337E+02  0.00000000000E+00 0.  1.
         11    1    4    4    0    0  0.30279670229E+02 -0.21015331553E+02  0.37738811097E+02  0.52751497159E+02  0.00000000000E+00 0. -1.
          1    1    1    2  501    0  0.87779276662E+01  0.27172875437E+02 -0.28997621886E+02  0.40697410835E+02  0.00000000000E+00 0. -1.
<scales pt_clust_5="13000.00000" pt_clust_6="13000.00000" pt_clust_7="13000.00000" pt_clust_8="13000.00000" pt_clust_9="28.55551"></scales>
<clustering>
<clus scale="   28.556">  2  9  1 -1</clus>
<clus scale="   91.233">  5  6 -1 -1</clus>
<clus scale="   91.619">  7  8 -1 -1</clus>
<clus scale="  104.296">  1  5  2 -1</clus>
<clus scale="   28.556">  2  5  1 -1</clus>
</clustering>
</event>
<event>
 9    1  0.1636528E-005  0.1097002E+03  0.7546771E-02  0.1265695E+00
          1   -1    0    0  502    0 -0.00000000000E+00  0.00000000000E+00  0.29304937516E+02  0.29304937516E+02  0.00000000000E+00 0. -1.
         21   -1    0    0  501  502  0.00000000000E+00 -0.00000000000E+00 -0.61401684735E+03  0.61401684735E+03  0.00000000000E+00 0. -1.
         23    2    1    2    0    0 -0.39420897263E+02 -0.73466764705E+01 -0.12752247446E+03  0.15967924845E+03  0.87335560326E+02 0.  0.
         23    2    1    2    0    0  0.73807385120E+02  0.28991110503E+00 -0.35697017295E+03  0.37745341718E+03  0.97957968608E+02 0.  0.
        -13    1    4    4    0    0 -0.22425271805E+02  0.79913944618E+01 -0.45311000058E+02  0.51184391441E+02  0.00000000000E+00 0.  1.
         13    1    4    4    0    0  0.96232656925E+02 -0.77014833568E+01 -0.31165917289E+03  0.32626902574E+03  0.00000000000E+00 0. -1.
        -13    1    3    3    0    0  0.15411911125E+02  0.23109346178E+02 -0.66946276601E+02  0.72480154774E+02  0.00000000000E+00 0. -1.
         13    1    3    3    0    0 -0.54832808387E+02 -0.30456022648E+02 -0.60576197862E+02  0.87199093680E+02  0.00000000000E+00 0.  1.
          1    1    1    2  501    0 -0.34386487857E+02  0.70567653654E+01 -0.10021926242E+03  0.10618911924E+03  0.00000000000E+00 0. -1.
<scales pt_clust_5="13000.00000" pt_clust_6="13000.00000" pt_clust_7="13000.00000" pt_clust_8="13000.00000" pt_clust_9="35.10311"></scales>
<clustering>
<clus scale="   35.103">  2  9  1 -1</clus>
<clus scale="   87.336">  7  8 -1 -1</clus>
<clus scale="   97.958">  5  6 -1 -1</clus>
<clus scale="  100.329">  1  7  2 -1</clus>
<clus scale="   35.103">  2  5  1 -1</clus>
</clustering>
</event>
<event>
 9    1  0.1636528E-005  0.1246836E+03  0.7546771E-02  0.1236658E+00
          2   -1    0    0  502    0 -0.00000000000E+00  0.00000000000E+00  0.38575688783E+03  0.38575688783E+03  0.00000000000E+00 0. -1.
         21   -1    0    0  501  502  0.00000000000E+00 -0.00000000000E+00 -0.11338845884E+03  0.11338845884E+03  0.00000000000E+00 0.  1.
         23    2    1    2    0    0  0.63470102878E+02  0.59291539222E+02  0.30790945721E+03  0.33101263828E+03  0.84954059806E+02 0.  0.
         23    2    1    2    0    0 -0.53774212612E+02 -0.77639269874E+02 -0.53892306496E+02  0.14043038137E+03  0.88863879854E+02 0.  0.
        -13    1    4    4    0    0  0.76495616038E+01 -0.19367536707E+02  0.19390330775E+02  0.28453509422E+02  0.00000000000E+00 0. -1.
         13    1    4    4    0    0 -0.61423774216E+02 -0.58271733167E+02 -0.73282637271E+02  0.11197687194E+03  0.00000000000E+00 0.  1.
        -13    1    3    3    0    0  0.21477170466E+02  0.50321672104E+02  0.26395009119E+03  0.26956110656E+03  0.00000000000E+00 0. -1.
         13    1    3    3    0    0  0.41992932413E+02  0.89698671176E+01  0.43959366020E+02  0.61451531711E+02  0.00000000000E+00 0.  1.
          2    1    1    2  501    0 -0.96958902661E+01  0.18347730653E+02  0.18351278276E+02  0.27702327023E+02  0.00000000000E+00 0. -1.
<scales pt_clust_5="13000.00000" pt_clust_6="13000.00000" pt_clust_7="13000.00000" pt_clust_8="13000.00000" pt_clust_9="20.75211"></scales>
<clustering>
<clus scale="   20.752">  2  9  1 -1</clus>
<clus scale="   84.954">  7  8 -1 -1</clus>
<clus scale="   88.864">  5  6 -1 -1</clus>
<clus scale="  121.928">  1  7  2 -1</clus>
<clus scale="   20.752">  2  5  1 -1</clus>
</clustering>
</event>
<event>
 9    1  0.1636528E-005  0.9134193E+02  0.7546771E-02  0.1300881E+00
         21   -1    0    0  501  502  0.00000000000E+00  0.00000000000E+00  0.10073407768E+03  0.10073407768E+03  0.00000000000E+00 0. -1.
         -1   -1    0    0    0  501 -0.00000000000E+00 -0.00000000000E+00 -0.28837311706E+03  0.28837311706E+03  0.00000000000E+00 0.  1.
         23    2    1    2    0    0 -0.74683930824E+01  0.17907324225E+02 -0.21054058832E+03  0.22910171667E+03  0.88225892434E+02 0.  0.
         23    2    1    2    0    0 -0.17610595206E+02 -0.48292521386E+02 -0.19489061949E+02  0.10213337986E+03  0.86076146873E+02 0.  0.
        -11    1    4    4    0    0  0.35061520763E+02 -0.16868845421E+02 -0.84181748166E+01  0.39808715771E+02  0.00000000000E+00 0.  1.
         11    1    4    4    0    0 -0.52672115969E+02 -0.31423675966E+02 -0.11070887132E+02  0.62324664089E+02  0.00000000000E+00 0. -1.
        -13    1    3    3    0    0 -0.12043174430E+02 -0.33323721819E+02 -0.56408410701E+02  0.66613942114E+02  0.00000000000E+00 0. -1.
         13    1    3    3    0    0  0.45747813472E+01  0.51231046044E+02 -0.15413217762E+03  0.16248777455E+03  0.00000000000E+00 0.  1.
         -1    1    1    2    0  502  0.25078988288E+02  0.30385197162E+02  0.42390610888E+02  0.57872098213E+02  0.00000000000E+00 0.  1.
<scales pt_clust_5="13000.00000" pt_clust_6="13000.00000" pt_clust_7="13000.00000" pt_clust_8="13000.00000" pt_clust_9="39.39817"></scales>
<clustering>
<clus scale="   39.398">  1  9  2 -1</clus>
<clus scale="   86.076">  5  6 -1 -1</clus>
<clus scale="   88.226">  7  8 -1 -1</clus>
<clus scale="   89.267">  1  5  2 -1</clus>
<clus scale="   39.398">  1  5  2 -1</clus>
</clustering>
</event>
<event>
 9    1  0.1636528E-005  0.1012244E+03  0.7546771E-02  0.1278326E+00
          1   -1    0    0  502    0 -0.00000000000E+00  0.00000000000E+00  0.70821972191E+02  0.70821972191E+02  0.00000000000E+00 0. -1.
         21   -1    0    0  501  502  0.00000000000E+00 -0.00000000000E+00 -0.26516210265E+03  0.26516210265E+03  0.00000000000E+00 0.  1.
         23    2    1    2    0    0 -0.27168837282E+02 -0.16106753457E+02 -0.15226649085E+02  0.97079288301E+02  0.90526041273E+02 0.  0.
         23    2    1    2    0    0  0.58791512820E+02  0.42047917597E+02 -0.12519306350E+03  0.17122651034E+03  0.91764619230E+02 0.  0.
        -11    1    4    4    0    0 -0.46484418739E+01  0.29409978813E+02  0.59440018958E+00  0.29781003630E+02  0.00000000000E+00 0. -1.
         11    1    4    4    0    0  0.63439954694E+02  0.12637938784E+02 -0.12578746369E+03  0.14144550671E+03  0.00000000000E+00 0.  1.
        -11    1    3    3    0    0 -0.16897036502E+02  0.33822147516E+02  0.11506282948E+02  0.39520147424E+02  0.00000000000E+00 0.  1.
         11    1    3    3    0    0 -0.10271800780E+02 -0.49928900972E+02 -0.26732932032E+02  0.57559140878E+02  0.00000000000E+00 0. -1.
          1    1    1    2  501    0 -0.31622675538E+02 -0.25941164140E+02 -0.53920417877E+02  0.67678276199E+02  0.00000000000E+00 0. -1.
<scales pt_clust_5="13000.00000" pt_clust_6="13000.00000" pt_clust_7="13000.00000" pt_clust_8="13000.00000" pt_clust_9="40.90156"></scales>
<clustering>
<clus scale="   40.902">  2  9  1 -1</clus>
<clus scale="   90.526">  7  8 -1 -1</clus>
<clus scale="   91.765">  5  6 -1 -1</clus>
<clus scale="  100.103">  1  7  2 -1</clus>
<clus scale="   40.902">  2  5  1 -1</clus>
</clustering>
</event>
<event>
 9    1  0.1636528E-005  0.1189194E+03  0.7546771E-02  0.1251910E+00
         21   -1    0    0  501  502  0.00000000000E+00  0.00000000000E+00  0.32492579622E+03  0.32492579622E+03  0.00000000000E+00 0.  1.
         -3   -1    0    0    0  501 -0.00000000000E+00 -0.00000000000E+00 -0.16745170635E+03  0.16745170635E+03  0.00000000000E+00 0.  1.
         23    2    1    2    0    0 -0.43666057176E+02  0.46750402485E+02 -0.10338989674E+03  0.15146504893E+03  0.90331974512E+02 0.  0.
         23    2    1    2    0    0 -0.16097032958E+01 -0.59669694566E+01  0.45677659354E+02  0.11726465389E+03  0.10782557498E+03 0.  0.
        -11    1    3    3    0    0 -0.66696124587E+02  0.14676732374E+02 -0.48131287946E+02  0.83548790461E+02  0.00000000000E+00 0. -1.
         11    1    3    3    0    0  0.23030067411E+02  0.32073670110E+02 -0.55258608793E+02  0.67916258474E+02  0.00000000000E+00 0.  1.
        -13    1    4    4    0    0 -0.13745548956E+02  0.48417542293E+02  0.32795563062E+02  0.60072851392E+02  0.00000000000E+00 0.  1.
         13    1    4    4    0    0  0.12135845660E+02 -0.54384511750E+02  0.12882096292E+02  0.57191802499E+02  0.00000000000E+00 0. -1.
         -3    1    1    2    0  502  0.45275760472E+02 -0.40783433028E+02  0.21518632725E+03  0.22364779975E+03  0.00000000000E+00 0.  1.
<scales pt_clust_5="13000.00000" pt_clust_6="13000.00000" pt_clust_7="13000.00000" pt_clust_8="13000.00000" pt_clust_9="60.93589"></scales>
<clustering>
<clus scale="   60.936">  1  9  2 -1</clus>
<clus scale="   90.332">  5  6 -1 -1</clus>
<clus scale="  103.321">  2  5  1 -1</clus>
<clus scale="  107.826">  7  8 -1 -1</clus>
<clus scale="   60.936">  1  5  2 -1</clus>
</clustering>
</event>
<event>
 9    1  0.1636528E-005  0.1184750E+03  0.7546771E-02  0.1253548E+00
         21   -1    0    0  501  502  0.00000000000E+00  0.00000000000E+00  0.32184367061E+02  0.32184367061E+02  0.00000000000E+00 0. -1.
         -1   -1    0    0    0  501 -0.00000000000E+00 -0.00000000000E+00 -0.50872198172E+03  0.50872198172E+03  0.00000000000E+00 0.  1.
         23    2    1    2    0    0 -0.24487001782E+02 -0.21544527714E+02 -0.17255075102E+03  0.19762807016E+03  0.90660424163E+02 0.  0.
         23    2    1    2    0    0  0.58089646750E+02  0.19937334285E+02 -0.24553505839E+03  0.27583693850E+03  0.10966607216E+03 0.  0.
        -13    1    4    4    0    0  0.47801911876E+02 -0.40852160685E+02 -0.10527541052E+03  0.12262476859E+03  0.00000000000E+00 0. -1.
         13    1    4    4    0    0  0.10287734873E+02  0.60789494970E+02 -0.14025964787E+03  0.15321216991E+03  0.00000000000E+00 0.  1.
        -13    1    3    3    0    0  0.34670403800E+01 -0.45548493417E+02 -0.42269201113E+02  0.62236412046E+02  0.00000000000E+00 0.  1.
         13    1    3    3    0    0 -0.27954042162E+02  0.24003965703E+02 -0.13028154990E+03  0.13539165812E+03  0.00000000000E+00 0. -1.
         -1    1    1    2    0  502 -0.33602644968E+02  0.16071934293E+01 -0.58451805251E+02  0.67441340116E+02  0.00000000000E+00 0.  1.
<scales pt_clust_5="13000.00000" pt_clust_6="13000.00000" pt_clust_7="13000.00000" pt_clust_8="13000.00000" pt_clust_9="33.64106"></scales>
<clustering>
<clus scale="   33.641">  1  9  2 -1</clus>
<clus scale="   90.660">  7  8 -1 -1</clus>
<clus scale="  101.139">  2  7  1 -1</clus>
<clus scale="  109.666">  5  6 -1 -1</clus>
<clus scale="   33.641">  1  5  2 -1</clus>
</clustering>
</event>
<event>
 9    1  0.1636528E-005  0.9363232E+02  0.7546771E-02  0.1296287E+00
         21   -1    0    0  501  502  0.00000000000E+00  0.00000000000E+00  0.12996289112E+03  0.12996289112E+03  0.00000000000E+00 0. -1.
          2   -1    0    0  502    0 -0.00000000000E+00 -0.00000000000E+00 -0.21334992148E+03  0.21334992148E+03  0.00000000000E+00 0. -1.
         23    2    1    2    0    0 -0.13396420587E+02 -0.13436652840E+02 -0.64427157311E+02  0.11140592502E+03  0.88884271979E+02 0.  0.
         23    2    1    2    0    0 -0.32760951861E+02 -0.42113579076E+02 -0.83184146143E+02  0.13525758054E+03  0.92348131631E+02 0.  0.
        -11    1    4    4    0    0 -0.17925557197E+02  0.28333270110E+02 -0.17577252736E+02  0.37855773796E+02  0.00000000000E+00 0.  1.
         11    1    4    4    0    0 -0.14835394664E+02 -0.70446849187E+02 -0.65606893408E+02  0.97401806748E+02  0.00000000000E+00 0. -1.
        -13    1    3    3    0    0  0.28579735217E+02 -0.33748262477E+02 -0.32811445585E+02  0.55066663660E+02  0.00000000000E+00 0. -1.
         13    1    3    3    0    0 -0.41976155804E+02  0.20311609637E+02 -0.31615711726E+02  0.56339261355E+02  0.00000000000E+00 0.  1.
          2    1    1    2  501    0  0.46157372449E+02  0.55550231917E+02  0.64224273092E+02  0.96649307041E+02  0.00000000000E+00 0. -1.
<scales pt_clust_5="13000.00000" pt_clust_6="13000.00000" pt_clust_7="13000.00000" pt_clust_8="13000.00000" pt_clust_9="72.22417"></scales>
<clustering>
<clus scale="   72.224">  1  9  2 -1</clus>
<clus scale="   88.884">  7  8 -1 -1</clus>
<clus scale="   90.218">  2  7  1 -1</clus>
<clus scale="   92.348">  5  6 -1 -1</clus>
<clus scale="   72.224">  1  5  2 -1</clus>
</clustering>
</event>
<event>
 9    1  0.1636528E-005  0.9638084E+02  0.7546771E-02  0.1288492E+00
          2   -1    0    0  502    0 -0.00000000000E+00  0.00000000000E+00  0.28402644588E+03  0.28402644588E+03  0.00000000000E+00 0. -1.
         21   -1    0    0  501  502  0.00000000000E+00 -0.00000000000E+00 -0.11450004508E+03  0.11450004508E+03  0.00000000000E+00 0. -1.
         23    2    1    2    0    0 -0.23501464847E+02  0.24637571472E+02  0.22934926093E+03  0.24919471792E+03  0.91310432980E+02 0.  0.
         23    2    1    2    0    0 -0.10458240485E+02  0.32774899226E+01 -0.37220066994E+02  0.99901028605E+02  0.92058488990E+02 0.  0.
        -11    1    4    4    0    0  0.66517547285E+00  0.34216469941E+02  0.15658226316E+02  0.37634948187E+02  0.00000000000E+00 0.  1.
         11    1    4    4    0    0 -0.11123415958E+02 -0.30938980019E+02 -0.52878293311E+02  0.62266080418E+02  0.00000000000E+00 0. -1.
        -11    1    3    3    0    0 -0.25081931443E+02 -0.28962373597E+02  0.56869590702E+02  0.68571661172E+02  0.00000000000E+00 0.  1.
         11    1    3    3    0    0  0.15804665963E+01  0.53599945069E+02  0.17247967023E+03  0.18062305675E+03  0.00000000000E+00 0. -1.
          2    1    1    2  501    0  0.33959705332E+02 -0.27915061395E+02 -0.22602793136E+02  0.49430744446E+02  0.00000000000E+00 0. -1.
<scales pt_clust_5="13000.00000" pt_clust_6="13000.00000" pt_clust_7="13000.00000" pt_clust_8="13000.00000" pt_clust_9="43.96035"></scales>
<clustering>
<clus scale="   43.960">  2  9  1 -1</clus>
<clus scale="   91.310">  7  8 -1 -1</clus>
<clus scale="   92.058">  5  6 -1 -1</clus>
<clus scale="   95.667">  1  7  2 -1</clus>
<clus scale="   43.960">  2  5  1 -1</clus>
</clustering>
</event>
<event>
 9    1  0.1636528E-005  0.1000827E+03  0.7546771E-02  0.1281061E+00
         21   -1    0    0  501  502  0.00000000000E+00  0.00000000000E+00  0.25946579564E+03  0.25946579564E+03  0.00000000000E+00 0.  1.
         -3   -1    0    0    0  501 -0.00000000000E+00 -0.00000000000E+00 -0.56410551057E+02  0.56410551057E+02  0.00000000000E+00 0.  1.
         23    2    1    2    0    0  0.44764933240E+01 -0.30979710947E+02  0.39447010671E+02  0.10324574252E+03  0.90132320585E+02 0.  0.
         23    2    1    2    0    0  0.45732661264E+01  0.56869662440E+02  0.13336950622E+03  0.17180697883E+03  0.92060520942E+02 0.  0.
        -11    1    4    4    0    0 -0.35966366175E+02  0.24728332050E+02  0.10288008560E+03  0.11175590327E+03  0.00000000000E+00 0.  1.
         11    1    4    4    0    0  0.40539632301E+02  0.32141330391E+02  0.30489420615E+02  0.60051075560E+02  0.00000000000E+00 0. -1.
        -13    1    3    3    0    0  0.77517182811E+01 -0.62874397673E+02  0.26221852853E+02  0.68562851357E+02  0.00000000000E+00 0.  1.
         13    1    3    3    0    0 -0.32752249571E+01  0.31894686726E+02  0.13225157818E+02  0.34682891160E+02  0.00000000000E+00 0. -1.
         -3    1    1    2    0  502 -0.90497594504E+01 -0.25889951493E+02  0.30238727700E+02  0.40823625358E+02  0.00000000000E+00 0.  1.
<scales pt_clust_5="13000.00000" pt_clust_6="13000.00000" pt_clust_7="13000.00000" pt_clust_8="13000.00000" pt_clust_9="27.42604"></scales>
<clustering>
<clus scale="   27.426">  1  9  2 -1</clus>
<clus scale="   90.132">  7  8 -1 -1</clus>
<clus scale="   92.061">  5  6 -1 -1</clus>
<clus scale="   98.312">  2  7  1 -1</clus>
<clus scale="   27.426">  1  5  2 -1</clus>
</clustering>
</event>
<event>
 9    1  0.1636528E-005  0.1364069E+03  0.7546771E-02  0.1232168E+00
          2   -1    0    0  502    0 -0.00000000000E+00  0.00000000000E+00  0.19367544384E+03  0.19367544384E+03  0.00000000000E+00 0. -1.
         21   -1    0    0  501  502  0.00000000000E+00 -0.00000000000E+00 -0.28751258234E+03  0.28751258234E+03  0.00000000000E+00 0. -1.
         23    2    1    2    0    0  0.43272422790E+02  0.42895882352E+01  0.38501642047E+02  0.10911146390E+03  0.92368998979E+02 0.  0.
         23    2    1    2    0    0  0.48506845223E+02  0.46385732872E+02  0.77342183014E+02  0.13764634093E+03  0.91979082677E+02 0.  0.
        -13    1    3    3    0    0  0.49968136722E+02 -0.32270799067E+02  0.60860624280E+01  0.59793472183E+02  0.00000000000E+00 0.  1.
         13    1    3    3    0    0 -0.66957139318E+01  0.36560387302E+02  0.32415579619E+02  0.49317991715E+02  0.00000000000E+00 0. -1.
        -13    1    4    4    0    0  0.40667324138E+02  0.66866795938E+02  0.27091513656E+02  0.82818776637E+02  0.00000000000E+00 0. -1.
         13    1    4    4    0    0  0.78395210854E+01 -0.20481063066E+02  0.50250669358E+02  0.54827564291E+02  0.00000000000E+00 0.  1.
          2    1    1    2  501    0 -0.91779268014E+02 -0.50675321107E+02 -0.20968096356E+03  0.23443022136E+03  0.00000000000E+00 0. -1.
<scales pt_clust_5="13000.00000" pt_clust_6="13000.00000" pt_clust_7="13000.00000" pt_clust_8="13000.00000" pt_clust_9="100.73082"></scales>
<clustering>
<clus scale="   91.979">  7  8 -1 -1</clus>
<clus scale="   92.369">  5  6 -1 -1</clus>
<clus scale="  102.093">  1  5  2 -1</clus>
<clus scale="  100.731">  2  9  1 -1</clus>
<clus scale="  100.731">  2  5  1 -1</clus>
</clustering>
</event>
<event>
 9    1  0.1636528E-005  0.1363206E+03  0.7546771E-02  0.1218537E+00
         21   -1    0    0  501  502  0.00000000000E+00  0.00000000000E+00  0.73006365991E+02  0.73006365991E+02  0.00000000000E+00 0. -1.
          2   -1    0    0  502    0 -0.00000000000E+00 -0.00000000000E+00 -0.35251367325E+03  0.35251367325E+03  0.00000000000E+00 0. -1.
         23    2    1    2    0    0  0.36122308490E+02  0.78028682463E+02 -0.11302953754E+03  0.16946188801E+03  0.92457334330E+02 0.  0.
         23    2    1    2    0    0 -0.20148614287E+02 -0.11831913183E+03 -0.12520104675E+03  0.19620627511E+03  0.91739940428E+02 0.  0.
        -11    1    4    4    0    0 -0.23520392147E+02 -0.42994305696E+02 -0.10839062786E+03  0.11895481233E+03  0.00000000000E+00 0.  1.
         11    1    4    4    0    0  0.33717778599E+01 -0.75324826137E+02 -0.16810418895E+02  0.77251462782E+02  0.00000000000E+00 0. -1.
        -11    1    3    3    0    0  0.11797951494E+02  0.42342660535E+02 -0.11806486653E+03  0.12598176562E+03  0.00000000000E+00 0. -1.
         11    1    3    3    0    0  0.24324356996E+02  0.35686021928E+02  0.50353289869E+01  0.43480122382E+02  0.00000000000E+00 0.  1.
          2    1    1    2  501    0 -0.15973694202E+02  0.40290449370E+02 -0.41276722961E+02  0.59851876122E+02  0.00000000000E+00 0. -1.
<scales pt_clust_5="13000.00000" pt_clust_6="13000.00000" pt_clust_7="13000.00000" pt_clust_8="13000.00000" pt_clust_9="43.34145"></scales>
<clustering>
<clus scale="   43.341">  1  9  2 -1</clus>
<clus scale="   91.740">  5  6 -1 -1</clus>
<clus scale="   92.457">  7  8 -1 -1</clus>
<clus scale="  135.835">  1  5  2 -1</clus>
<clus scale="   43.341">  1  5  2 -1</clus>
</clustering>
</event>
<event>
 9    1  0.1636528E-005  0.1606080E+03  0.7546771E-02  0.1188308E+00
         21   -1    0    0  501  502  0.00000000000E+00  0.00000000000E+00  0.47594126744E+03  0.47594126744E+03  0.00000000000E+00 0. -1.
         -2   -1    0    0    0  501 -0.00000000000E+00 -0.00000000000E+00 -0.18185393852E+03  0.18185393852E+03  0.00000000000E+00 0.  1.
         23    2    1    2    0    0 -0.12906381832E+03 -0.12773623831E+02 -0.10931664972E+03  0.19272404781E+03  0.91497508336E+02 0.  0.
         23    2    1    2    0    0  0.13777629550E+03  0.38017747039E+02  0.40376612799E+03  0.43836340334E+03  0.93315221623E+02 0.  0.
        -11    1    4    4    0    0  0.60631021401E+02  0.41783317022E+02  0.95626927973E+02  0.12069165543E+03  0.00000000000E+00 0.  1.
         11    1    4    4    0    0  0.77145274096E+02 -0.37655699830E+01  0.30813920001E+03  0.31767174790E+03  0.00000000000E+00 0. -1.
        -13    1    3    3    0    0 -0.23775808630E+02  0.35469908404E+02 -0.33862776848E+02  0.54498542495E+02  0.00000000000E+00 0.  1.
         13    1    3    3    0    0 -0.10528800969E+03 -0.48243532236E+02 -0.75453872873E+02  0.13822550531E+03  0.00000000000E+00 0. -1.
         -2    1    1    2    0  502 -0.87124771755E+01 -0.25244123208E+02 -0.36214934713E+00  0.26707754814E+02  0.00000000000E+00 0.  1.
<scales pt_clust_5="13000.00000" pt_clust_6="13000.00000" pt_clust_7="13000.00000" pt_clust_8="13000.00000" pt_clust_9="26.70531"></scales>
<clustering>
<clus scale="   26.705">  1  9  2 -1</clus>
<clus scale="   91.498">  7  8 -1 -1</clus>
<clus scale="   93.315">  5  6 -1 -1</clus>
<clus scale="  159.559">  2  7  1 -1</clus>
<clus scale="   26.705">  1  5  2 -1</clus>
</clustering>
</event>
<event>
 9    1  0.1636528E-005  0.1331826E+03  0.7546771E-02  0.1236411E+00
          1   -1    0    0  502    0 -0.00000000000E+00  0.00000000000E+00  0.29087114712E+03  0.29087114712E+03  0.00000000000E+00 0. -1.
         21   -1    0    0  501  502  0.00000000000E+00 -0.00000000000E+00 -0.13261679506E+03  0.13261679506E+03  0.00000000000E+00 0. -1.
         23    2    1    2    0    0 -0.15998478702E+02 -0.55522932723E+02  0.18367446722E+03  0.21260415956E+03  0.90141396559E+02 0.  0.
         23    2    1    2    0    0 -0.19251428678E+02  0.95867437429E+00  0.24040818951E+02  0.12923699296E+03  0.12550977177E+03 0.  0.
        -11    1    4    4    0    0 -0.37827171855E+02 -0.35983960503E+02  0.56307676816E+02  0.76787334974E+02  0.00000000000E+00 0. -1.
         11    1    4    4    0    0  0.18575743176E+02  0.36942634878E+02 -0.32266857865E+02  0.52449657985E+02  0.00000000000E+00 0.  1.
        -13    1    3    3    0    0  0.14832183139E+02  0.17221774965E+02  0.74157557661E+02  0.77562404217E+02  0.00000000000E+00 0.  1.
         13    1    3    3    0    0 -0.30830661841E+02 -0.72744707688E+02  0.10951690956E+03  0.13504175534E+03  0.00000000000E+00 0. -1.
          1    1    1    2  501    0  0.35249907380E+02  0.54564258349E+02 -0.49460934105E+02  0.81646789661E+02  0.00000000000E+00 0. -1.
<scales pt_clust_5="13000.00000" pt_clust_6="13000.00000" pt_clust_7="13000.00000" pt_clust_8="13000.00000" pt_clust_9="64.96010"></scales>
<clustering>
<clus scale="   64.960">  2  9  1 -1</clus>
<clus scale="   90.141">  7  8 -1 -1</clus>
<clus scale="  100.550">  1  7  2 -1</clus>
<clus scale="  125.510">  5  6 -1 -1</clus>
<clus scale="   64.960">  2  5  1 -1</clus>
</clustering>
</event>
<event>
 9    1  0.1636528E-005  0.1330475E+03  0.7546771E-02  0.1223031E+00
         21   -1    0    0  501  502  0.00000000000E+00  0.00000000000E+00  0.80948347413E+02  0.80948347413E+02  0.00000000000E+00 0. -1.
         -1   -1    0    0    0  501 -0.00000000000E+00 -0.00000000000E+00 -0.60539675665E+03  0.60539675665E+03  0.00000000000E+00 0.  1.
         23    2    1    2    0    0  0.83136551045E+02 -0.37318950779E+02 -0.25855184301E+03  0.28881373333E+03  0.90884139578E+02 0.  0.
         23    2    1    2    0    0 -0.44119481030E+02  0.14339806674E+03 -0.11828982642E+03  0.21162047748E+03  0.91001150000E+02 0.  0.
        -11    1    4    4    0    0  0.11244692939E+02  0.28769534989E+02  0.84127791801E+01  0.32014123701E+02  0.00000000000E+00 0.  1.
         11    1    4    4    0    0 -0.55364173970E+02  0.11462853175E+03 -0.12670260560E+03  0.17960635377E+03  0.00000000000E+00 0. -1.
        -11    1    3    3    0    0  0.77537259895E+02  0.22091882767E+01 -0.10742694004E+03  0.13250454570E+03  0.00000000000E+00 0.  1.
         11    1    3    3    0    0  0.55992911499E+01 -0.39528139056E+02 -0.15112490297E+03  0.15630918762E+03  0.00000000000E+00 0. -1.
         -1    1    1    2    0  502 -0.39017070015E+02 -0.10607911596E+03 -0.14760673981E+03  0.18591089326E+03  0.00000000000E+00 0.  1.
<scales pt_clust_5="13000.00000" pt_clust_6="13000.00000" pt_clust_7="13000.00000" pt_clust_8="13000.00000" pt_clust_9="113.02709"></scales>
<clustering>
<clus scale="   90.884">  7  8 -1 -1</clus>
<clus scale="   91.001">  5  6 -1 -1</clus>
<clus scale="  113.027">  1  9  2 -1</clus>
<clus scale="  132.968">  2  7  1 -1</clus>
<clus scale="  113.027">  1  5  2 -1</clus>
</clustering>
</event>
<event>
 9    1  0.1636528E-005  0.1535885E+03  0.7546771E-02  0.1221246E+00
         21   -1    0    0  501  502  0.00000000000E+00  0.00000000000E+00  0.82936241372E+02  0.82936241372E+02  0.00000000000E+00 0.  1.
          2   -1    0    0  502    0 -0.00000000000E+00 -0.00000000000E+00 -0.45029324521E+03  0.45029324521E+03  0.00000000000E+00 0. -1.
         23    2    1    2    0    0  0.18474348959E+01  0.78680770620E+01 -0.29689435916E+02  0.94509036015E+02  0.89359809933E+02 0.  0.
         23    2    1    2    0    0 -0.11069239982E+03 -0.63560336002E+02 -0.21203758877E+03  0.26341572799E+03  0.90195249382E+02 0.  0.
        -13    1    4    4    0    0 -0.15566081936E+02  0.19643287081E+02 -0.64218611680E+02  0.68936142336E+02  0.00000000000E+00 0. -1.
         13    1    4    4    0    0 -0.95126317885E+02 -0.83203623082E+02 -0.14781897709E+03  0.19447958565E+03  0.00000000000E+00 0.  1.
        -13    1    3    3    0    0 -0.73405680292E+01 -0.20412185857E+02  0.24484234972E+02  0.32711145388E+02  0.00000000000E+00 0.  1.
         13    1    3    3    0    0  0.91880029250E+01  0.28280262919E+02 -0.54173670887E+02  0.61797890627E+02  0.00000000000E+00 0. -1.
          2    1    1    2  501    0  0.10884496492E+03  0.55692258940E+02 -0.12562997915E+03  0.17530472257E+03  0.00000000000E+00 0. -1.
<scales pt_clust_5="13000.00000" pt_clust_6="13000.00000" pt_clust_7="13000.00000" pt_clust_8="13000.00000" pt_clust_9="124.31510"></scales>
<clustering>
<clus scale="   89.360">  7  8 -1 -1</clus>
<clus scale="   89.725">  2  7  1 -1</clus>
<clus scale="   90.195">  5  6 -1 -1</clus>
<clus scale="  124.315">  1  9  2 -1</clus>
<clus scale="  124.315">  1  5  2 -1</clus>
</clustering>
</event>
<event>
 9    1  0.1636528E-005  0.1339593E+03  0.7546771E-02  0.1229561E+00
         21   -1    0    0  501  502  0.00000000000E+00  0.00000000000E+00  0.22654217003E+03  0.22654217003E+03  0.00000000000E+00 0. -1.
          1   -1    0    0  502    0 -0.00000000000E+00 -0.00000000000E+00 -0.28521980236E+03  0.28521980236E+03  0.00000000000E+00 0. -1.
         23    2    1    2    0    0 -0.62506538312E+02 -0.38008065561E+02 -0.20003152494E+03  0.24271338971E+03  0.11638512875E+03 0.  0.
         23    2    1    2    0    0  0.40382814247E+02  0.33434399623E+02 -0.18300450681E+02  0.10780377837E+03  0.92401933810E+02 0.  0.
        -13    1    4    4    0    0  0.70447362354E+02  0.21587838040E+02 -0.16067201024E+02  0.75412336939E+02  0.00000000000E+00 0.  1.
         13    1    4    4    0    0 -0.30064548107E+02  0.11846561584E+02 -0.22332496566E+01  0.32391441435E+02  0.00000000000E+00 0. -1.
        -13    1    3    3    0    0 -0.37499996276E+02  0.13398115281E+02 -0.17642827784E+03  0.18086651551E+03  0.00000000000E+00 0. -1.
         13    1    3    3    0    0 -0.25006542036E+02 -0.51406180842E+02 -0.23603247102E+02  0.61846874191E+02  0.00000000000E+00 0.  1.
          1    1    1    2  501    0  0.22123724065E+02  0.45736659376E+01  0.15965434329E+03  0.16124480431E+03  0.00000000000E+00 0. -1.
<scales pt_clust_5="13000.00000" pt_clust_6="13000.00000" pt_clust_7="13000.00000" pt_clust_8="13000.00000" pt_clust_9="22.59154"></scales>
<clustering>
<clus scale="   22.592">  1  9  2 -1</clus>
<clus scale="   92.402">  5  6 -1 -1</clus>
<clus scale="  113.744">  1  5  2 -1</clus>
<clus scale="  116.385">  7  8 -1 -1</clus>
<clus scale="   22.592">  1  5  2 -1</clus>
</clustering>
</event>
<event>
 9    1  0.1636528E-005  0.1418713E+03  0.7546771E-02  0.1226713E+00
          3   -1    0    0  502    0 -0.00000000000E+00  0.00000000000E+00  0.22023307979E+03  0.22023307979E+03  0.00000000000E+00 0. -1.
         21   -1    0    0  501  502  0.00000000000E+00 -0.00000000000E+00 -0.71811969670E+03  0.71811969670E+03  0.00000000000E+00 0. -1.
         23    2    1    2    0    0  0.37627249125E+02 -0.11965409468E+02 -0.35987662695E+02  0.10776084146E+03  0.93585822564E+02 0.  0.
         23    2    1    2    0    0  0.68543866785E+02  0.40130265709E+02  0.15925124589E+03  0.19980422425E+03  0.90840898326E+02 0.  0.
        -11    1    4    4    0    0  0.64061952138E+02 -0.13633808925E+02  0.73057992635E+02  0.98118727802E+02  0.00000000000E+00 0.  1.
         11    1    4    4    0    0  0.44819146472E+01  0.53764074634E+02  0.86193253257E+02  0.10168549644E+03  0.00000000000E+00 0. -1.
        -13    1    3    3    0    0  0.87680560419E+01 -0.38476241275E+02 -0.52126934492E+02  0.65379792359E+02  0.00000000000E+00 0.  1.
         13    1    3    3    0    0  0.28859193083E+02  0.26510831807E+02  0.16139271797E+02  0.42381049098E+02  0.00000000000E+00 0. -1.
          3    1    1    2  501    0 -0.10617111591E+03 -0.28164856241E+02 -0.62115020011E+03  0.63078771079E+03  0.00000000000E+00 0. -1.
<scales pt_clust_5="13000.00000" pt_clust_6="13000.00000" pt_clust_7="13000.00000" pt_clust_8="13000.00000" pt_clust_9="108.97429"></scales>
<clustering>
<clus scale="   90.841">  5  6 -1 -1</clus>
<clus scale="   93.586">  7  8 -1 -1</clus>
<clus scale="  101.574">  1  7  2 -1</clus>
<clus scale="  108.974">  2  9  1 -1</clus>
<clus scale="  108.974">  2  5  1 -1</clus>
</clustering>
</event>
<event>
 9    1  0.1636528E-005  0.1231875E+03  0.7546771E-02  0.1238575E+00
         21   -1    0    0  501  502  0.00000000000E+00  0.00000000000E+00  0.31553484368E+03  0.31553484368E+03  0.00000000000E+00 0. -1.
          2   -1    0    0  502    0 -0.00000000000E+00 -0.00000000000E+00 -0.35408784514E+03  0.35408784514E+03  0.00000000000E+00 0. -1.
         23    2    1    2    0    0 -0.52455519574E+02 -0.65027320661E+02 -0.30798820737E+03  0.33104559408E+03  0.88058591367E+02 0.  0.
         23    2    1    2    0    0  0.10053006588E+02  0.10306134017E+03  0.13514052091E+03  0.19270172955E+03  0.90267897938E+02 0.  0.
        -13    1    4    4    0    0  0.43343934314E+02  0.21317821289E+02  0.58004483373E+02  0.75482887052E+02  0.00000000000E+00 0.  1.
         13    1    4    4    0    0 -0.33290927727E+02  0.81743518885E+02  0.77136037538E+02  0.11721884249E+03  0.00000000000E+00 0. -1.
        -13    1    3    3    0    0 -0.33667919987E+01 -0.44140553373E+02 -0.46623834328E+02  0.64292345329E+02  0.00000000000E+00 0.  1.
         13    1    3    3    0    0 -0.49088727575E+02 -0.20886767288E+02 -0.26136437305E+03  0.26675324875E+03  0.00000000000E+00 0. -1.
          2    1    1    2  501    0  0.42402512986E+02 -0.38034019514E+02  0.13429468500E+03  0.14587536519E+03  0.00000000000E+00 0. -1.
<scales pt_clust_5="13000.00000" pt_clust_6="13000.00000" pt_clust_7="13000.00000" pt_clust_8="13000.00000" pt_clust_9="56.96104"></scales>
<clustering>
<clus scale="   56.961">  1  9  2 -1</clus>
<clus scale="   88.059">  7  8 -1 -1</clus>
<clus scale="   90.268">  5  6 -1 -1</clus>
<clus scale="  121.578">  2  7  1 -1</clus>
<clus scale="   56.961">  1  5  2 -1</clus>
</clustering>
</event>
<event>
 9    1  0.1636528E-005  0.1479198E+03  0.7546771E-02  0.1203301E+00
         21   -1    0    0  501  502  0.00000000000E+00  0.00000000000E+00  0.45440364871E+03  0.45440364871E+03  0.00000000000E+00 0. -1.
          2   -1    0    0  502    0 -0.00000000000E+00 -0.00000000000E+00 -0.15275045297E+03  0.15275045297E+03  0.00000000000E+00 0. -1.
         23    2    1    2    0    0  0.11440254948E+03 -0.22802545480E+02 -0.88734662509E+02  0.17005871535E+03  0.86245155966E+02 0.  0.
         23    2    1    2    0    0 -0.13501676457E+03  0.44184102943E+02  0.33125017691E+03  0.37091848539E+03  0.87590418623E+02 0.  0.
        -11    1    4    4    0    0 -0.36055251876E+02 -0.24570102545E+02  0.60775328411E+02  0.74815183422E+02  0.00000000000E+00 0.  1.
         11    1    4    4    0    0 -0.98961512693E+02  0.68754205489E+02  0.27047484850E+03  0.29610330197E+03  0.00000000000E+00 0. -1.
        -13    1    3    3    0    0  0.93467397430E+02  0.48411729193E+01 -0.23999077952E+02  0.96620634856E+02  0.00000000000E+00 0. -1.
         13    1    3    3    0    0  0.20935152048E+02 -0.27643718399E+02 -0.64735584557E+02  0.73438080491E+02  0.00000000000E+00 0.  1.
          2    1    1    2  501    0  0.20614215091E+02 -0.21381557463E+02  0.59137681343E+02  0.66176900940E+02  0.00000000000E+00 0. -1.
<scales pt_clust_5="13000.00000" pt_clust_6="13000.00000" pt_clust_7="13000.00000" pt_clust_8="13000.00000" pt_clust_9="29.70045"></scales>
<clustering>
<clus scale="   29.700">  1  9  2 -1</clus>
<clus scale="   86.245">  7  8 -1 -1</clus>
<clus scale="   87.590">  5  6 -1 -1</clus>
<clus scale="  147.127">  2  7  1 -1</clus>
<clus scale="   29.700">  1  5  2 -1</clus>
</clustering>
</event>
<event>
 9    1  0.1636528E-005  0.1102689E+03  0.7546771E-02  0.1260163E+00
          2   -1    0    0  502    0 -0.00000000000E+00  0.00000000000E+00  0.23998216924E+02  0.23998216924E+02  0.00000000000E+00 0. -1.
         21   -1    0    0  501  502  0.00000000000E+00 -0.00000000000E+00 -0.96177052301E+03  0.96177052301E+03  0.00000000000E+00 0. -1.
         23    2    1    2    0    0 -0.38694461424E+02 -0.35028265091E+02 -0.18962483018E+03  0.21683496725E+03  0.91299431011E+02 0.  0.
         23    2    1    2    0    0  0.80998813301E+02  0.29603274189E+02 -0.42926766849E+03  0.44721429815E+03  0.91064458819E+02 0.  0.
        -11    1    3    3    0    0 -0.32895381214E+02 -0.58704669244E+02 -0.17704848812E+03  0.18940567954E+03  0.00000000000E+00 0. -1.
         11    1    3    3    0    0 -0.57990802099E+01  0.23676404154E+02 -0.12576342061E+02  0.27429287715E+02  0.00000000000E+00 0.  1.
        -13    1    4    4    0    0  0.95761888502E+02  0.39781799767E+01 -0.32733784390E+03  0.34108097169E+03  0.00000000000E+00 0. -1.
         13    1    4    4    0    0 -0.14763075201E+02  0.25625094212E+02 -0.10192982459E+03  0.10613332645E+03  0.00000000000E+00 0.  1.
          2    1    1    2  501    0 -0.42304351877E+02  0.54249909016E+01 -0.31887980742E+03  0.32171947453E+03  0.00000000000E+00 0. -1.
<scales pt_clust_5="13000.00000" pt_clust_6="13000.00000" pt_clust_7="13000.00000" pt_clust_8="13000.00000" pt_clust_9="42.65078"></scales>
<clustering>
<clus scale="   42.651">  2  9  1 -1</clus>
<clus scale="   91.064">  7  8 -1 -1</clus>
<clus scale="   91.299">  5  6 -1 -1</clus>
<clus scale="  110.074">  2  7  1 -1</clus>
<clus scale="   42.651">  2  5  1 -1</clus>
</clustering>
</event>
<event>
 9    1  0.1636528E-005  0.1272704E+03  0.7546771E-02  0.1232540E+00
          1   -1    0    0  502    0 -0.00000000000E+00  0.00000000000E+00  0.33125609992E+03  0.33125609992E+03  0.00000000000E+00 0. -1.
         21   -1    0    0  501  502  0.00000000000E+00 -0.00000000000E+00 -0.12048335907E+03  0.12048335907E+03  0.00000000000E+00 0. -1.
         23    2    1    2    0    0 -0.85674344528E+02  0.14090528305E+02  0.21462483101E+03  0.24936293088E+03  0.92625141896E+02 0.  0.
         23    2    1    2    0    0  0.75280326601E+02 -0.72125678069E+02 -0.25629743810E+02  0.13952447632E+03  0.89112034615E+02 0.  0.
        -11    1    3    3    0    0  0.68417607168E+01 -0.24717166860E+02  0.32145587262E+02  0.41122825872E+02  0.00000000000E+00 0.  1.
         11    1    3    3    0    0 -0.92516105245E+02  0.38807695164E+02  0.18247924375E+03  0.20824010501E+03  0.00000000000E+00 0. -1.
        -13    1    4    4    0    0  0.23899359513E+02 -0.36981358415E+02 -0.55197672028E+02  0.70608662731E+02  0.00000000000E+00 0. -1.
         13    1    4    4    0    0  0.51380967088E+02 -0.35144319653E+02  0.29567928218E+02  0.68915813584E+02  0.00000000000E+00 0.  1.
          1    1    1    2  501    0  0.10394017927E+02  0.58035149764E+02  0.21777653648E+02  0.62852051798E+02  0.00000000000E+00 0. -1.
<scales pt_clust_5="13000.00000" pt_clust_6="13000.00000" pt_clust_7="13000.00000" pt_clust_8="13000.00000" pt_clust_9="58.95858"></scales>
<clustering>
<clus scale="   58.959">  2  9  1 -1</clus>
<clus scale="   89.112">  7  8 -1 -1</clus>
<clus scale="   92.625">  5  6 -1 -1</clus>
<clus scale="  124.737">  2  7  1 -1</clus>
<clus scale="   58.959">  2  5  1 -1</clus>
</clustering>
</event>
<event>
 9    1  0.1636528E-005  0.1180765E+03  0.7546771E-02  0.1249092E+00
         21   -1    0    0  501  502  0.00000000000E+00  0.00000000000E+00  0.10371191779E+03  0.10371191779E+03  0.00000000000E+00 0. -1.
          1   -1    0    0  502    0 -0.00000000000E+00 -0.00000000000E+00 -0.49252648703E+03  0.49252648703E+03  0.00000000000E+00 0. -1.
         23    2    1    2    0    0  0.23811072700E+02  0.53991152697E+02 -0.26887739999E+03  0.28998291568E+03  0.91175783008E+02 0.  0.
         23    2    1    2    0    0 -0.14145783772E+02 -0.73593434214E+02 -0.19329520848E+03  0.22971093237E+03  0.98934210805E+02 0.  0.
        -13    1    4    4    0    0  0.60567132427E+01  0.23540155398E+02 -0.47546814999E+02  0.53399647077E+02  0.00000000000E+00 0. -1.
         13    1    4    4    0    0 -0.20202497014E+02 -0.97133589612E+02 -0.14574839349E+03  0.17631128529E+03  0.00000000000E+00 0.  1.
        -13    1    3    3    0    0  0.49920541570E+02  0.69811377104E+01 -0.17138392470E+03  0.17864278995E+03  0.00000000000E+00 0. -1.
         13    1    3    3    0    0 -0.26109468870E+02  0.47010014987E+02 -0.97493475287E+02  0.11134012573E+03  0.00000000000E+00 0.  1.
          1    1    1    2  501    0 -0.96652889282E+01  0.19602281517E+02  0.73358039233E+02  0.76544556768E+02  0.00000000000E+00 0. -1.
<scales pt_clust_5="13000.00000" pt_clust_6="13000.00000" pt_clust_7="13000.00000" pt_clust_8="13000.00000" pt_clust_9="21.85560"></scales>
<clustering>
<clus scale="   21.856">  1  9  2 -1</clus>
<clus scale="   91.176">  7  8 -1 -1</clus>
<clus scale="   98.934">  5  6 -1 -1</clus>
<clus scale="  111.656">  2  7  1 -1</clus>
<clus scale="   21.856">  1  5  2 -1</clus>
</clustering>
</event>
<event>
 9    1  0.1636528E-005  0.1885600E+03  0.7546771E-02  0.1186557E+00
         21   -1    0    0  501  502  0.00000000000E+00  0.00000000000E+00  0.64787779922E+03  0.64787779922E+03  0.00000000000E+00 0.  1.
         -2   -1    0    0    0  501 -0.00000000000E+00 -0.00000000000E+00 -0.90016803813E+02  0.90016803813E+02  0.00000000000E+00 0.  1.
         23    2    1    2    0    0  0.48240974176E+02  0.69668379921E+01  0.59689530441E+02  0.11861849444E+03  0.90176375826E+02 0.  0.
         23    2    1    2    0    0 -0.10416267410E+03  0.13217570560E+03  0.38292984183E+03  0.43015044756E+03  0.10036864021E+03 0.  0.
        -11    1    4    4    0    0 -0.66492557839E+02  0.11004569942E+02  0.16040389368E+03  0.17398784416E+03  0.00000000000E+00 0. -1.
         11    1    4    4    0    0 -0.37670116264E+02  0.12117113566E+03  0.22252594815E+03  0.25616260340E+03  0.00000000000E+00 0.  1.
        -13    1    3    3    0    0  0.71596485158E+02 -0.10960093247E+02  0.48258836583E+02  0.87035025360E+02  0.00000000000E+00 0. -1.
         13    1    3    3    0    0 -0.23355510982E+02  0.17926931239E+02  0.11430693859E+02  0.31583469078E+02  0.00000000000E+00 0.  1.
         -2    1    1    2    0  502  0.55921699927E+02 -0.13914254360E+03  0.11524162313E+03  0.18912566104E+03  0.00000000000E+00 0.  1.
<scales pt_clust_5="13000.00000" pt_clust_6="13000.00000" pt_clust_7="13000.00000" pt_clust_8="13000.00000" pt_clust_9="159.62776"></scales>
<clustering>
<clus scale="   90.176">  7  8 -1 -1</clus>
<clus scale="  100.369">  5  6 -1 -1</clus>
<clus scale="  102.506">  2  7  1 -1</clus>
<clus scale="  159.628">  1  9  2 -1</clus>
<clus scale="  159.628">  1  5  2 -1</clus>
</clustering>
</event>
<event>
 9    1  0.1636528E-005  0.9670799E+02  0.7546771E-02  0.1289326E+00
          1   -1    0    0  502    0 -0.00000000000E+00  0.00000000000E+00  0.13737908629E+03  0.13737908629E+03  0.00000000000E+00 0. -1.
         21   -1    0    0  501  502  0.00000000000E+00 -0.00000000000E+00 -0.23126303008E+03  0.23126303008E+03  0.00000000000E+00 0. -1.
         23    2    1    2    0    0 -0.26549026874E+02  0.23420808564E+02  0.91331819489E+02  0.13134688439E+03  0.87504958068E+02 0.  0.
         23    2    1    2    0    0  0.23906034424E+02  0.17597296258E+01 -0.65219113949E+02  0.11465657264E+03  0.91203079411E+02 0.  0.
        -11    1    3    3    0    0 -0.36193025014E+02 -0.12680120967E+02  0.68321247105E+01  0.38953798986E+02  0.00000000000E+00 0.  1.
         11    1    3    3    0    0  0.96439981397E+01  0.36100929530E+02  0.84499694779E+02  0.92393085406E+02  0.00000000000E+00 0. -1.
        -13    1    4    4    0    0  0.57068534847E+02 -0.10013509221E+02 -0.31642939364E+02  0.66017903997E+02  0.00000000000E+00 0.  1.
         13    1    4    4    0    0 -0.33162500423E+02  0.11773238846E+02 -0.33576174584E+02  0.48638668639E+02  0.00000000000E+00 0. -1.
          1    1    1    2  501    0  0.26429924503E+01 -0.25180538190E+02 -0.11999664934E+03  0.12263865934E+03  0.00000000000E+00 0. -1.
<scales pt_clust_5="13000.00000" pt_clust_6="13000.00000" pt_clust_7="13000.00000" pt_clust_8="13000.00000" pt_clust_9="25.31886"></scales>
<clustering>
<clus scale="   25.319">  2  9  1 -1</clus>
<clus scale="   87.505">  5  6 -1 -1</clus>
<clus scale="   91.203">  7  8 -1 -1</clus>
<clus scale="   93.228">  1  5  2 -1</clus>
<clus scale="   25.319">  2  5  1 -1</clus>
</clustering>
</event>
<event>
 9    1  0.1636528E-005  0.2200690E+03  0.7546771E-02  0.1160491E+00
         -2   -1    0    0    0  501 -0.00000000000E+00  0.00000000000E+00  0.76067344736E+03  0.76067344736E+03  0.00000000000E+00 0.  1.
         21   -1    0    0  501  502  0.00000000000E+00 -0.00000000000E+00 -0.11931219495E+03  0.11931219495E+03  0.00000000000E+00 0. -1.
         23    2    1    2    0    0 -0.48857958877E+02  0.56898667326E+02  0.29604678185E+03  0.31819068826E+03  0.89314380504E+02 0.  0.
         23    2    1    2    0    0  0.52950975371E+02  0.16738636403E+03  0.10020727345E+03  0.22953290964E+03  0.10872836934E+03 0.  0.
        -11    1    4    4    0    0 -0.12271753782E+02  0.41815863780E+02  0.73629224526E+02  0.85559482869E+02  0.00000000000E+00 0.  1.
         11    1    4    4    0    0  0.65222729152E+02  0.12557050025E+03  0.26578048925E+02  0.14397342677E+03  0.00000000000E+00 0. -1.
        -13    1    3    3    0    0 -0.72791810238E+02  0.51614509028E+02  0.19890312162E+03  0.21800265358E+03  0.00000000000E+00 0. -1.
         13    1    3    3    0    0  0.23933851360E+02  0.52841582971E+01  0.97143660230E+02  0.10018803468E+03  0.00000000000E+00 0.  1.
         -2    1    1    2    0  502 -0.40930164934E+01 -0.22428503136E+03  0.24510719712E+03  0.33226204441E+03  0.00000000000E+00 0.  1.
<scales pt_clust_5="13000.00000" pt_clust_6="13000.00000" pt_clust_7="13000.00000" pt_clust_8="13000.00000" pt_clust_9="191.33355"></scales>
<clustering>
<clus scale="   89.314">  7  8 -1 -1</clus>
<clus scale="  108.728">  5  6 -1 -1</clus>
<clus scale="  116.626">  1  7  2 -1</clus>
<clus scale="  191.334">  2  9  1 -1</clus>
<clus scale="  191.334">  2  5  1 -1</clus>
</clustering>
</event>
<event>
 9    1  0.1636528E-005  0.1061732E+03  0.7546771E-02  0.1269305E+00
         21   -1    0    0  501  502  0.00000000000E+00  0.00000000000E+00  0.32122985437E+02  0.32122985437E+02  0.00000000000E+00 0. -1.
          2   -1    0    0  502    0 -0.00000000000E+00 -0.00000000000E+00 -0.49580179708E+03  0.49580179708E+03  0.00000000000E+00 0. -1.
         23    2    1    2    0    0  0.88133140669E+01 -0.59634725601E+02 -0.23532803207E+03  0.25828681475E+03  0.87742925621E+02 0.  0.
         23    2    1    2    0    0  0.26390378919E+02  0.46203401422E+02 -0.16436399035E+03  0.19538158983E+03  0.91253700840E+02 0.  0.
        -11    1    4    4    0    0 -0.33573611737E+02  0.24012240937E+02 -0.56138636272E+02  0.69680137789E+02  0.00000000000E+00 0.  1.
         11    1    4    4    0    0  0.59963990656E+02  0.22191160485E+02 -0.10822535408E+03  0.12570145204E+03  0.00000000000E+00 0. -1.
        -13    1    3    3    0    0  0.41939522453E+02 -0.20303456375E+02 -0.62415837025E+02  0.77890247116E+02  0.00000000000E+00 0. -1.
         13    1    3    3    0    0 -0.33126208386E+02 -0.39331269226E+02 -0.17291219504E+03  0.18039656764E+03  0.00000000000E+00 0.  1.
          2    1    1    2  501    0 -0.35203692986E+02  0.13431324179E+02 -0.63986789225E+02  0.74256377938E+02  0.00000000000E+00 0. -1.
<scales pt_clust_5="13000.00000" pt_clust_6="13000.00000" pt_clust_7="13000.00000" pt_clust_8="13000.00000" pt_clust_9="37.67891"></scales>
<clustering>
<clus scale="   37.679">  1  9  2 -1</clus>
<clus scale="   87.743">  7  8 -1 -1</clus>
<clus scale="   91.254">  5  6 -1 -1</clus>
<clus scale="  103.171">  2  7  1 -1</clus>
<clus scale="   37.679">  1  5  2 -1</clus>
</clustering>
</event>
<event>
 9    1  0.1636528E-005  0.9667889E+02  0.7546771E-02  0.1290834E+00
          1   -1    0    0  502    0 -0.00000000000E+00  0.00000000000E+00  0.28756973457E+03  0.28756973457E+03  0.00000000000E+00 0. -1.
         21   -1    0    0  501  502  0.00000000000E+00 -0.00000000000E+00 -0.71020498906E+02  0.71020498906E+02  0.00000000000E+00 0.  1.
         23    2    1    2    0    0  0.14166962196E+02 -0.26830596318E+02  0.20663009506E+03  0.22837109921E+03  0.92394691694E+02 0.  0.
         23    2    1    2    0    0  0.21414389540E+02  0.30366771009E+02  0.33690488474E+01  0.93867506723E+02  0.86133857845E+02 0.  0.
        -13    1    3    3    0    0 -0.37182410968E+02  0.39091128762E+01  0.77543705871E+02  0.86086231007E+02  0.00000000000E+00 0.  1.
         13    1    3    3    0    0  0.51349373163E+02 -0.30739709194E+02  0.12908638919E+03  0.14228486821E+03  0.00000000000E+00 0. -1.
        -13    1    4    4    0    0 -0.32361525477E+02  0.10811604025E+02  0.11642370744E+02  0.36051406482E+02  0.00000000000E+00 0.  1.
         13    1    4    4    0    0  0.53775915018E+02  0.19555166985E+02 -0.82733218968E+01  0.57816100240E+02  0.00000000000E+00 0. -1.
          1    1    1    2  501    0 -0.35581351736E+02 -0.35361746916E+01  0.65500917521E+01  0.36351627539E+02  0.00000000000E+00 0. -1.
<scales pt_clust_5="13000.00000" pt_clust_6="13000.00000" pt_clust_7="13000.00000" pt_clust_8="13000.00000" pt_clust_9="35.75664"></scales>
<clustering>
<clus scale="   35.757">  2  9  1 -1</clus>
<clus scale="   86.134">  7  8 -1 -1</clus>
<clus scale="   90.714">  2  7  1 -1</clus>
<clus scale="   92.395">  5  6 -1 -1</clus>
<clus scale="   35.757">  2  5  1 -1</clus>
</clustering>
</event>
<event>
 9    1  0.1636528E-005  0.9766232E+02  0.7546771E-02  0.1287090E+00
         21   -1    0    0  501  502  0.00000000000E+00  0.00000000000E+00  0.58715875440E+02  0.58715875440E+02  0.00000000000E+00 0.  1.
          3   -1    0    0  502    0 -0.00000000000E+00 -0.00000000000E+00 -0.26013839578E+03  0.26013839578E+03  0.00000000000E+00 0. -1.
         23    2    1    2    0    0  0.24000716777E+01  0.17473495595E+02 -0.14615990366E+03  0.17318477581E+03  0.91209460815E+02 0.  0.
         23    2    1    2    0    0 -0.15536445890E+02 -0.35828692429E+02 -0.64854770567E+02  0.12114426361E+03  0.94576503363E+02 0.  0.
        -11    1    4    4    0    0  0.70318674441E+01 -0.40158184066E+02  0.10718338649E+02  0.42154592759E+02  0.00000000000E+00 0.  1.
         11    1    4    4    0    0 -0.22568313334E+02  0.43294916375E+01 -0.75573109217E+02  0.78989670852E+02  0.00000000000E+00 0. -1.
        -11    1    3    3    0    0  0.30017872827E+02  0.22665229003E+01 -0.75515851495E+01  0.31036047644E+02  0.00000000000E+00 0.  1.
         11    1    3    3    0    0 -0.27617801149E+02  0.15206972695E+02 -0.13860831851E+03  0.14214872817E+03  0.00000000000E+00 0. -1.
          3    1    1    2  501    0  0.13136374212E+02  0.18355196834E+02  0.95921538929E+01  0.24525231794E+02  0.00000000000E+00 0. -1.
<scales pt_clust_5="13000.00000" pt_clust_6="13000.00000" pt_clust_7="13000.00000" pt_clust_8="13000.00000" pt_clust_9="22.57161"></scales>
<clustering>
<clus scale="   22.572">  1  9  2 -1</clus>
<clus scale="   91.209">  7  8 -1 -1</clus>
<clus scale="   94.405">  2  7  1 -1</clus>
<clus scale="   94.577">  5  6 -1 -1</clus>
<clus scale="   22.572">  1  5  2 -1</clus>
</clustering>
</event>
<event>
 9    1  0.1636528E-005  0.9995129E+02  0.7546771E-02  0.1281453E+00
         21   -1    0    0  501  502  0.00000000000E+00  0.00000000000E+00  0.49773858439E+03  0.49773858439E+03  0.00000000000E+00 0. -1.
          3   -1    0    0  502    0 -0.00000000000E+00 -0.00000000000E+00 -0.36895371131E+02  0.36895371131E+02  0.00000000000E+00 0. -1.
         23    2    1    2    0    0 -0.33957297940E+02 -0.24875421758E+01  0.12154351018E+03  0.15671916689E+03  0.92891261452E+02 0.  0.
         23    2    1    2    0    0  0.24608101348E+02  0.44378375907E+02  0.14198804610E+03  0.17598871452E+03  0.90754743689E+02 0.  0.
        -11    1    4    4    0    0  0.41766271569E+02 -0.91893194630E+01  0.35589840933E+02  0.55637234031E+02  0.00000000000E+00 0. -1.
         11    1    4    4    0    0 -0.17158170221E+02  0.53567695370E+02  0.10639820516E+03  0.12035148048E+03  0.00000000000E+00 0.  1.
        -13    1    3    3    0    0  0.10523535716E+02 -0.34618427095E+02  0.20111773308E+02  0.41396421634E+02  0.00000000000E+00 0.  1.
         13    1    3    3    0    0 -0.44480833655E+02  0.32130884919E+02  0.10143173688E+03  0.11532274526E+03  0.00000000000E+00 0. -1.
          3    1    1    2  501    0  0.93491965916E+01 -0.41890833732E+02  0.19731165698E+03  0.20192607411E+03  0.00000000000E+00 0. -1.
<scales pt_clust_5="13000.00000" pt_clust_6="13000.00000" pt_clust_7="13000.00000" pt_clust_8="13000.00000" pt_clust_9="42.92143"></scales>
<clustering>
<clus scale="   42.921">  1  9  2 -1</clus>
<clus scale="   90.755">  5  6 -1 -1</clus>
<clus scale="   92.891">  7  8 -1 -1</clus>
<clus scale="   97.969">  1  5  2 -1</clus>
<clus scale="   42.921">  1  5  2 -1</clus>
</clustering>
</event>
<event>
 9    1  0.1636528E-005  0.1017361E+03  0.7546771E-02  0.1277555E+00
         -3   -1    0    0    0  501 -0.00000000000E+00  0.00000000000E+00  0.20292404307E+03  0.20292404307E+03  0.00000000000E+00 0.  1.
         21   -1    0    0  501  502  0.00000000000E+00 -0.00000000000E+00 -0.16714611951E+03  0.16714611951E+03  0.00000000000E+00 0.  1.
         23    2    1    2    0    0 -0.48066593751E+01 -0.37640424828E+02  0.11406186383E+03  0.15106981626E+03  0.91499043973E+02 0.  0.
         23    2    1    2    0    0 -0.55019778393E+02  0.66285551219E+02 -0.11461849701E+02  0.12484654815E+03  0.89634459182E+02 0.  0.
        -11    1    3    3    0    0 -0.45437245924E+02 -0.35390299633E+02  0.75942304632E+02  0.95311333314E+02  0.00000000000E+00 0.  1.
         11    1    3    3    0    0  0.40630586549E+02 -0.22501251943E+01  0.38119559201E+02  0.55758482945E+02  0.00000000000E+00 0. -1.
        -13    1    4    4    0    0 -0.56099013645E+02  0.10436214318E+02 -0.31890662962E+02  0.65368404336E+02  0.00000000000E+00 0.  1.
         13    1    4    4    0    0  0.10792352519E+01  0.55849336900E+02  0.20428813261E+02  0.59478143819E+02  0.00000000000E+00 0. -1.
         -3    1    1    2    0  502  0.59826437768E+02 -0.28645126391E+02 -0.66822090567E+02  0.94153798169E+02  0.00000000000E+00 0.  1.
<scales pt_clust_5="13000.00000" pt_clust_6="13000.00000" pt_clust_7="13000.00000" pt_clust_8="13000.00000" pt_clust_9="66.33058"></scales>
<clustering>
<clus scale="   66.331">  2  9  1 -1</clus>
<clus scale="   89.634">  7  8 -1 -1</clus>
<clus scale="   91.499">  5  6 -1 -1</clus>
<clus scale="  100.062">  2  7  1 -1</clus>
<clus scale="   66.331">  2  5  1 -1</clus>
</clustering>
</event>
<event>
 9    1  0.1636528E-005  0.1223576E+03  0.7546771E-02  0.1239557E+00
         -3   -1    0    0    0  501 -0.00000000000E+00  0.00000000000E+00  0.10261548652E+03  0.10261548652E+03  0.00000000000E+00 0.  1.
         21   -1    0    0  501  502  0.00000000000E+00 -0.00000000000E+00 -0.41261934889E+03  0.41261934889E+03  0.00000000000E+00 0. -1.
         23    2    1    2    0    0 -0.49407625676E+02  0.65462943955E+02  0.40558852596E+02  0.12972116006E+03  0.91956774293E+02 0.  0.
         23    2    1    2    0    0  0.56395884768E+02 -0.45389027912E+02 -0.34423470714E+03  0.36333617428E+03  0.90966929552E+02 0.  0.
        -11    1    3    3    0    0 -0.21921991665E+01  0.38813569950E+02 -0.23789902950E+02  0.45576950664E+02  0.00000000000E+00 0. -1.
         11    1    3    3    0    0 -0.47215426509E+02  0.26649374004E+02  0.64348755546E+02  0.84144209400E+02  0.00000000000E+00 0.  1.
        -13    1    4    4    0    0 -0.79844241075E+01  0.21569877390E+02 -0.80514418429E+02  0.83735191013E+02  0.00000000000E+00 0.  1.
         13    1    4    4    0    0  0.64380308876E+02 -0.66958905302E+02 -0.26372028871E+03  0.27960098327E+03  0.00000000000E+00 0. -1.
         -3    1    1    2    0  502 -0.69882590926E+01 -0.20073916043E+02 -0.63280078219E+01  0.22177501064E+02  0.00000000000E+00 0.  1.
<scales pt_clust_5="13000.00000" pt_clust_6="13000.00000" pt_clust_7="13000.00000" pt_clust_8="13000.00000" pt_clust_9="21.25555"></scales>
<clustering>
<clus scale="   21.256">  2  9  1 -1</clus>
<clus scale="   90.967">  7  8 -1 -1</clus>
<clus scale="   91.957">  5  6 -1 -1</clus>
<clus scale="  121.615">  2  7  1 -1</clus>
<clus scale="   21.256">  2  5  1 -1</clus>
</clustering>
</event>
<event>
 9    1  0.1636528E-005  0.1062219E+03  0.7546771E-02  0.1271785E+00
         21   -1    0    0  501  502  0.00000000000E+00  0.00000000000E+00  0.98379330205E+02  0.98379330205E+02  0.00000000000E+00 0. -1.
          1   -1    0    0  502    0 -0.00000000000E+00 -0.00000000000E+00 -0.26641332402E+03  0.26641332402E+03  0.00000000000E+00 0. -1.
         23    2    1    2    0    0 -0.69777033513E+01  0.48178681633E+02 -0.16607008089E+03  0.20033828738E+03  0.10092712181E+03 0.  0.
         23    2    1    2    0    0 -0.27426797228E+02  0.98647367367E+01  0.33998400390E+00  0.96941286504E+02  0.92455152386E+02 0.  0.
        -11    1    3    3    0    0  0.41512891350E+02  0.12304774599E+02 -0.10906485498E+03  0.11734509031E+03  0.00000000000E+00 0.  1.
         11    1    3    3    0    0 -0.48490594702E+02  0.35873907034E+02 -0.57005225903E+02  0.82993197074E+02  0.00000000000E+00 0. -1.
        -13    1    4    4    0    0 -0.49635703905E+02  0.36470792719E+02 -0.53267712984E+01  0.61823913789E+02  0.00000000000E+00 0. -1.
         13    1    4    4    0    0  0.22208906677E+02 -0.26606055983E+02  0.56667553023E+01  0.35117372715E+02  0.00000000000E+00 0.  1.
          1    1    1    2  501    0  0.34404500580E+02 -0.58043418369E+02 -0.23038969321E+01  0.67513080342E+02  0.00000000000E+00 0. -1.
<scales pt_clust_5="13000.00000" pt_clust_6="13000.00000" pt_clust_7="13000.00000" pt_clust_8="13000.00000" pt_clust_9="67.47376"></scales>
<clustering>
<clus scale="   67.474">  1  9  2 -1</clus>
<clus scale="   92.455">  7  8 -1 -1</clus>
<clus scale="   98.208">  1  7  2 -1</clus>
<clus scale="  100.927">  5  6 -1 -1</clus>
<clus scale="   67.474">  1  5  2 -1</clus>
</clustering>
</event>
<event>
 9    1  0.1636528E-005  0.2945945E+03  0.7546771E-02  0.1088171E+00
         21   -1    0    0  501  502  0.00000000000E+00  0.00000000000E+00  0.22784982079E+03  0.22784982079E+03  0.00000000000E+00 0. -1.
          1   -1    0    0  502    0 -0.00000000000E+00 -0.00000000000E+00 -0.80656339359E+03  0.80656339359E+03  0.00000000000E+00 0. -1.
         23    2    1    2    0    0  0.20819919417E+03  0.50971749829E+01 -0.15410613815E+03  0.27454979446E+03  0.90862545517E+02 0.  0.
         23    2    1    2    0    0 -0.34728734543E+03 -0.43991465624E+02 -0.48294567215E+03  0.60410196891E+03  0.95702232164E+02 0.  0.
        -11    1    4    4    0    0 -0.13028818609E+03 -0.25372296913E+02 -0.11077419447E+03  0.17288634141E+03  0.00000000000E+00 0.  1.
         11    1    4    4    0    0 -0.21699915934E+03 -0.18619168711E+02 -0.37217147768E+03  0.43121562750E+03  0.00000000000E+00 0. -1.
        -13    1    3    3    0    0  0.19219249798E+03  0.31269127716E+02 -0.14423890166E+03  0.24232328692E+03  0.00000000000E+00 0.  1.
         13    1    3    3    0    0  0.16006696185E+02 -0.26171952733E+02 -0.98672364889E+01  0.32226507545E+02  0.00000000000E+00 0. -1.
          1    1    1    2  501    0  0.13908815126E+03  0.38894290641E+02  0.58338237501E+02  0.15576145101E+03  0.00000000000E+00 0. -1.
<scales pt_clust_5="13000.00000" pt_clust_6="13000.00000" pt_clust_7="13000.00000" pt_clust_8="13000.00000" pt_clust_9="144.42396"></scales>
<clustering>
<clus scale="   90.863">  7  8 -1 -1</clus>
<clus scale="   95.702">  5  6 -1 -1</clus>
<clus scale="  144.424">  1  9  2 -1</clus>
<clus scale="  293.058">  2  7  1 -1</clus>
<clus scale="  144.424">  1  5  2 -1</clus>
</clustering>
</event>
<event>
 9    1  0.1636528E-005  0.9128710E+02  0.7546771E-02  0.1314104E+00
         21   -1    0    0  501  502  0.00000000000E+00  0.00000000000E+00  0.49874279229E+03  0.49874279229E+03  0.00000000000E+00 0. -1.
         -4   -1    0    0    0  501 -0.00000000000E+00 -0.00000000000E+00 -0.52131651618E+02  0.52131651618E+02  0.00000000000E+00 0.  1.
         23    2    1    2    0    0 -0.24635088186E+01 -0.94333839510E+01  0.12263374117E+01  0.91408433614E+02  0.90878711610E+02 0.  0.
         23    2    1    2    0    0  0.23518134370E+02 -0.98634215946E+01  0.21818233271E+03  0.23047555944E+03  0.69750006874E+02 0.  0.
        -11    1    3    3    0    0 -0.39941064561E+02 -0.28278752178E+02 -0.41604353201E+01  0.49115025044E+02  0.00000000000E+00 0. -1.
         11    1    3    3    0    0  0.37477555742E+02  0.18845368227E+02  0.53867727318E+01  0.42293408570E+02  0.00000000000E+00 0.  1.
        -13    1    4    4    0    0  0.36482421535E+02  0.18642851462E+02  0.96682754906E+02  0.10500513363E+03  0.00000000000E+00 0.  1.
         13    1    4    4    0    0 -0.12964287165E+02 -0.28506273056E+02  0.12149957781E+03  0.12547042581E+03  0.00000000000E+00 0. -1.
         -4    1    1    2    0  502 -0.21054625551E+02  0.19296805546E+02  0.22720247054E+03  0.22899045086E+03  0.00000000000E+00 0.  1.
<scales pt_clust_5="13000.00000" pt_clust_6="13000.00000" pt_clust_7="13000.00000" pt_clust_8="13000.00000" pt_clust_9="28.55983"></scales>
<clustering>
<clus scale="   28.560">  1  9  2 -1</clus>
<clus scale="   69.750">  7  8 -1 -1</clus>
<clus scale="   70.281">  1  7  2 -1</clus>
<clus scale="   90.879">  5  6 -1 -1</clus>
<clus scale="   28.560">  1  5  2 -1</clus>
</clustering>
</event>
<event>
 9    1  0.1636528E-005  0.1693923E+03  0.7546771E-02  0.1179400E+00
         21   -1    0    0  501  502  0.00000000000E+00  0.00000000000E+00  0.54615413602E+02  0.54615413602E+02  0.00000000000E+00 0.  1.
         -3   -1    0    0    0  501 -0.00000000000E+00 -0.00000000000E+00 -0.82635263531E+03  0.82635263531E+03  0.00000000000E+00 0.  1.
         23    2    1    2    0    0  0.37312516708E+02 -0.15864233411E+03 -0.49229732116E+03  0.52579162367E+03  0.86836426801E+02 0.  0.
         23    2    1    2    0    0  0.12511759507E+02  0.11596994020E+03 -0.22431912012E+03  0.26949275038E+03  0.93282922884E+02 0.  0.
        -11    1    4    4    0    0  0.27347990769E+02  0.10074979066E+03 -0.22519903748E+03  0.24821974014E+03  0.00000000000E+00 0.  1.
         11    1    4    4    0    0 -0.14836231262E+02  0.15220149537E+02  0.87991735718E+00  0.21273010237E+02  0.00000000000E+00 0. -1.
        -13    1    3    3    0    0 -0.95242297643E+01 -0.11829589846E+03 -0.26740730105E+03  0.29255990019E+03  0.00000000000E+00 0. -1.
         13    1    3    3    0    0  0.46836746472E+02 -0.40346435656E+02 -0.22489002011E+03  0.23323172347E+03  0.00000000000E+00 0.  1.
         -3    1    1    2    0  502 -0.49824276215E+02  0.42672393917E+02 -0.55120780421E+02  0.85683674858E+02  0.00000000000E+00 0.  1.
<scales pt_clust_5="13000.00000" pt_clust_6="13000.00000" pt_clust_7="13000.00000" pt_clust_8="13000.00000" pt_clust_9="65.60024"></scales>
<clustering>
<clus scale="   65.600">  1  9  2 -1</clus>
<clus scale="   86.836">  7  8 -1 -1</clus>
<clus scale="   93.283">  5  6 -1 -1</clus>
<clus scale="  165.930">  2  7  1 -1</clus>
<clus scale="   65.600">  1  5  2 -1</clus>
</clustering>
</event>
<event>
 9    1  0.1636528E-005  0.1086469E+03  0.7546771E-02  0.1264002E+00
         21   -1    0    0  501  502  0.00000000000E+00  0.00000000000E+00  0.36464553058E+03  0.36464553058E+03  0.00000000000E+00 0. -1.
          2   -1    0    0  502    0 -0.00000000000E+00 -0.00000000000E+00 -0.88353685159E+02  0.88353685159E+02  0.00000000000E+00 0. -1.
         23    2    1    2    0    0  0.33327228171E+02 -0.68344076427E+02 -0.75870439364E+01  0.11920588489E+03  0.91492419560E+02 0.  0.
         23    2    1    2    0    0  0.96442737368E+01 -0.46589240856E+00  0.14350394113E+03  0.17166224846E+03  0.93708683448E+02 0.  0.
        -11    1    3    3    0    0  0.24624854161E+02  0.88136983617E+01 -0.28609901825E+02  0.38763271324E+02  0.00000000000E+00 0.  1.
         11    1    3    3    0    0  0.87023740094E+01 -0.77157774789E+02  0.21022857889E+02  0.80442613567E+02  0.00000000000E+00 0. -1.
        -11    1    4    4    0    0 -0.94649714944E+01  0.41804767753E+02  0.41762950836E+02  0.59844534878E+02  0.00000000000E+00 0.  1.
         11    1    4    4    0    0  0.19109245231E+02 -0.42270660162E+02  0.10174099030E+03  0.11181771358E+03  0.00000000000E+00 0. -1.
          2    1    1    2  501    0 -0.42971501908E+02  0.68809968835E+02  0.14037494822E+03  0.16213108239E+03  0.00000000000E+00 0. -1.
<scales pt_clust_5="13000.00000" pt_clust_6="13000.00000" pt_clust_7="13000.00000" pt_clust_8="13000.00000" pt_clust_9="81.12559"></scales>
<clustering>
<clus scale="   81.126">  1  9  2 -1</clus>
<clus scale="   91.492">  5  6 -1 -1</clus>
<clus scale="   93.709">  7  8 -1 -1</clus>
<clus scale="  106.741">  2  5  1 -1</clus>
<clus scale="   81.126">  1  5  2 -1</clus>
</clustering>
</event>
<event>
 9    1  0.1636528E-005  0.1027442E+03  0.7546771E-02  0.1275702E+00
         -3   -1    0    0    0  501 -0.00000000000E+00  0.00000000000E+00  0.54751885924E+03  0.54751885924E+03  0.00000000000E+00 0.  1.
         21   -1    0    0  501  502  0.00000000000E+00 -0.00000000000E+00 -0.10044912806E+03  0.10044912806E+03  0.00000000000E+00 0.  1.
         23    2    1    2    0    0 -0.20666615778E+02  0.31121540263E+02  0.27354728451E+03  0.29028615621E+03  0.89678739647E+02 0.  0.
         23    2    1    2    0    0 -0.26220189864E+01 -0.63221472150E+02  0.24873450848E+03  0.27265465673E+03  0.92021066094E+02 0.  0.
        -11    1    4    4    0    0 -0.35472835740E+02 -0.88119135676E+01  0.15603638633E+03  0.16026018144E+03  0.00000000000E+00 0. -1.
         11    1    4    4    0    0  0.32850816753E+02 -0.54409558583E+02  0.92698122154E+02  0.11239447530E+03  0.00000000000E+00 0.  1.
        -13    1    3    3    0    0 -0.19168115683E+02 -0.29347673162E+02  0.12694164492E+03  0.13169238320E+03  0.00000000000E+00 0.  1.
         13    1    3    3    0    0 -0.14985000949E+01  0.60469213425E+02  0.14660563959E+03  0.15859377300E+03  0.00000000000E+00 0. -1.
         -3    1    1    2    0  502  0.23288634765E+02  0.32099931887E+02 -0.75212061818E+02  0.85027174358E+02  0.00000000000E+00 0.  1.
<scales pt_clust_5="13000.00000" pt_clust_6="13000.00000" pt_clust_7="13000.00000" pt_clust_8="13000.00000" pt_clust_9="39.65812"></scales>
<clustering>
<clus scale="   39.658">  2  9  1 -1</clus>
<clus scale="   89.679">  7  8 -1 -1</clus>
<clus scale="   92.021">  5  6 -1 -1</clus>
<clus scale="  100.652">  1  7  2 -1</clus>
<clus scale="   39.658">  2  5  1 -1</clus>
</clustering>
</event>
<event>
 9    1  0.1636528E-005  0.1036287E+03  0.7546771E-02  0.1273585E+00
         21   -1    0    0  501  502  0.00000000000E+00  0.00000000000E+00  0.12792955359E+03  0.12792955359E+03  0.00000000000E+00 0. -1.
          1   -1    0    0  502    0 -0.00000000000E+00 -0.00000000000E+00 -0.30976824358E+03  0.30976824358E+03  0.00000000000E+00 0. -1.
         23    2    1    2    0    0 -0.15972683268E+02  0.61260259013E+02 -0.21000400131E+03  0.23781337619E+03  0.91899811657E+02 0.  0.
         23    2    1    2    0    0 -0.32530128432E+02  0.13679646914E+00 -0.28772688379E+02  0.10311636337E+03  0.93524803287E+02 0.  0.
        -13    1    3    3    0    0  0.36473187744E+02  0.35685934606E+02 -0.74706159622E+02  0.90469827226E+02  0.00000000000E+00 0. -1.
         13    1    3    3    0    0 -0.52445871012E+02  0.25574324407E+02 -0.13529784169E+03  0.14734354896E+03  0.00000000000E+00 0.  1.
        -13    1    4    4    0    0 -0.59577077603E+02 -0.19277425638E+02 -0.62696922424E+01  0.62931362259E+02  0.00000000000E+00 0.  1.
         13    1    4    4    0    0  0.27046949171E+02  0.19414222107E+02 -0.22502996137E+02  0.40185001115E+02  0.00000000000E+00 0. -1.
          1    1    1    2  501    0  0.48502811700E+02 -0.61397055482E+02  0.56937999700E+02  0.96768057615E+02  0.00000000000E+00 0. -1.
<scales pt_clust_5="13000.00000" pt_clust_6="13000.00000" pt_clust_7="13000.00000" pt_clust_8="13000.00000" pt_clust_9="78.24398"></scales>
<clustering>
<clus scale="   78.244">  1  9  2 -1</clus>
<clus scale="   91.900">  5  6 -1 -1</clus>
<clus scale="   93.525">  7  8 -1 -1</clus>
<clus scale="  102.165">  2  5  1 -1</clus>
<clus scale="   78.244">  1  5  2 -1</clus>
</clustering>
</event>
<event>
 9    1  0.1636528E-005  0.1060495E+03  0.7546771E-02  0.1269349E+00
         -1   -1    0    0    0  501 -0.00000000000E+00  0.00000000000E+00  0.33905895875E+03  0.33905895875E+03  0.00000000000E+00 0.  1.
         21   -1    0    0  501  502  0.00000000000E+00 -0.00000000000E+00 -0.39932433013E+02  0.39932433013E+02  0.00000000000E+00 0. -1.
         23    2    1    2    0    0 -0.13783100247E+02 -0.44823344315E+02  0.15141126832E+03  0.18418910420E+03  0.93814433242E+02 0.  0.
         23    2    1    2    0    0  0.33771448235E+02  0.42406038179E+02  0.13253785660E+03  0.16958858256E+03  0.90858247359E+02 0.  0.
        -11    1    3    3    0    0  0.11618186046E+02 -0.27624998929E+02  0.15054719401E+03  0.15350107634E+03  0.00000000000E+00 0.  1.
         11    1    3    3    0    0 -0.25401286293E+02 -0.17198345386E+02  0.86407430362E+00  0.30688027857E+02  0.00000000000E+00 0. -1.
        -13    1    4    4    0    0  0.14400255934E+02 -0.28274881489E+02  0.49906312101E+02  0.59139464672E+02  0.00000000000E+00 0. -1.
         13    1    4    4    0    0  0.19371192301E+02  0.70680919668E+02  0.82631544500E+02  0.11044911789E+03  0.00000000000E+00 0.  1.
         -1    1    1    2    0  502 -0.19988347988E+02  0.24173061360E+01  0.15177400815E+02  0.25213704998E+02  0.00000000000E+00 0.  1.
<scales pt_clust_5="13000.00000" pt_clust_6="13000.00000" pt_clust_7="13000.00000" pt_clust_8="13000.00000" pt_clust_9="20.13399"></scales>
<clustering>
<clus scale="   20.134">  2  9  1 -1</clus>
<clus scale="   90.858">  7  8 -1 -1</clus>
<clus scale="   93.814">  5  6 -1 -1</clus>
<clus scale="  103.444">  2  7  1 -1</clus>
<clus scale="   20.134">  2  5  1 -1</clus>
</clustering>
</event>
<event>
 9    1  0.1636528E-005  0.1343115E+03  0.7546771E-02  0.1235306E+00
         -2   -1    0    0    0  501 -0.00000000000E+00  0.00000000000E+00  0.37721384789E+03  0.37721384789E+03  0.00000000000E+00 0.  1.
         21   -1    0    0  501  502  0.00000000000E+00 -0.00000000000E+00 -0.10458978565E+03  0.10458978565E+03  0.00000000000E+00 0.  1.
         23    2    1    2    0    0  0.58769437369E+01  0.45565973529E+02  0.19252192825E+03  0.21707094069E+03  0.89130825338E+02 0.  0.
         23    2    1    2    0    0  0.80801122169E+02  0.15809087879E+02  0.97729288726E+02  0.15707257091E+03  0.91334714390E+02 0.  0.
        -13    1    3    3    0    0  0.13901962098E+02  0.66334530056E+02  0.17805652256E+03  0.19051944692E+03  0.00000000000E+00 0.  1.
         13    1    3    3    0    0 -0.80250183608E+01 -0.20768556527E+02  0.14465405688E+02  0.26551493774E+02  0.00000000000E+00 0. -1.
        -13    1    4    4    0    0 -0.11843920620E+02  0.23503330349E+02  0.71406430544E+01  0.27270382769E+02  0.00000000000E+00 0. -1.
         13    1    4    4    0    0  0.92645042789E+02 -0.76942424697E+01  0.90588645672E+02  0.12980218814E+03  0.00000000000E+00 0.  1.
         -2    1    1    2    0  502 -0.86678065906E+02 -0.61375061408E+02 -0.17627154733E+02  0.10766012194E+03  0.00000000000E+00 0.  1.
<scales pt_clust_5="13000.00000" pt_clust_6="13000.00000" pt_clust_7="13000.00000" pt_clust_8="13000.00000" pt_clust_9="98.47608"></scales>
<clustering>
<clus scale="   89.131">  5  6 -1 -1</clus>
<clus scale="   91.335">  7  8 -1 -1</clus>
<clus scale="  100.275">  1  5  2 -1</clus>
<clus scale="   98.476">  2  9  1 -1</clus>
<clus scale="   98.476">  2  5  1 -1</clus>
</clustering>
</event>
<event>
 9    1  0.1636528E-005  0.9715262E+02  0.7546771E-02  0.1287501E+00
          3   -1    0    0  502    0 -0.00000000000E+00  0.00000000000E+00  0.18103112339E+03  0.18103112339E+03  0.00000000000E+00 0. -1.
         21   -1    0    0  501  502  0.00000000000E+00 -0.00000000000E+00 -0.97204097737E+02  0.97204097737E+02  0.00000000000E+00 0. -1.
         23    2    1    2    0    0 -0.40796131773E+01 -0.24918410504E+02  0.82519902221E+02  0.12838113532E+03  0.95050571897E+02 0.  0.
         23    2    1    2    0    0  0.23761497067E+02  0.32271121697E+01  0.37657369383E+02  0.10317186908E+03  0.93012548108E+02 0.  0.
        -11    1    4    4    0    0 -0.35721147738E+02  0.70032035846E+01  0.12662106446E+02  0.38540552614E+02  0.00000000000E+00 0.  1.
         11    1    4    4    0    0  0.59482644805E+02 -0.37760914150E+01  0.24995262937E+02  0.64631316470E+02  0.00000000000E+00 0. -1.
        -11    1    3    3    0    0 -0.48688345416E+02 -0.33870603013E+01  0.41775313492E+02  0.64243318518E+02  0.00000000000E+00 0.  1.
         11    1    3    3    0    0  0.44608732239E+02 -0.21531350203E+02  0.40744588729E+02  0.64137816803E+02  0.00000000000E+00 0. -1.
          3    1    1    2  501    0 -0.19681883890E+02  0.21691298334E+02 -0.36350245954E+02  0.46682216719E+02  0.00000000000E+00 0. -1.
<scales pt_clust_5="13000.00000" pt_clust_6="13000.00000" pt_clust_7="13000.00000" pt_clust_8="13000.00000" pt_clust_9="29.28974"></scales>
<clustering>
<clus scale="   29.290">  2  9  1 -1</clus>
<clus scale="   93.013">  5  6 -1 -1</clus>
<clus scale="   95.051">  7  8 -1 -1</clus>
<clus scale="   95.160">  2  5  1 -1</clus>
<clus scale="   29.290">  2  5  1 -1</clus>
</clustering>
</event>
<event>
 9    1  0.1636528E-005  0.2456421E+03  0.7546771E-02  0.1116379E+00
         21   -1    0    0  501  502  0.00000000000E+00  0.00000000000E+00  0.94308956699E+02  0.94308956699E+02  0.00000000000E+00 0. -1.
          4   -1    0    0  502    0 -0.00000000000E+00 -0.00000000000E+00 -0.10356657272E+04  0.10356657272E+04  0.00000000000E+00 0. -1.
         23    2    1    2    0    0 -0.18017966459E+03 -0.19743348806E+02 -0.27829990884E+03  0.34439479112E+03  0.91117624728E+02 0.  0.
         23    2    1    2    0    0  0.27420865799E+03 -0.31184669961E+02 -0.58267280757E+03  0.65180130389E+03  0.95783439670E+02 0.  0.
        -13    1    4    4    0    0  0.84299239126E+02 -0.15448850725E+02 -0.29131172295E+03  0.30365695881E+03  0.00000000000E+00 0.  1.
         13    1    4    4    0    0  0.18990941887E+03 -0.15735819235E+02 -0.29136108462E+03  0.34814434508E+03  0.00000000000E+00 0. -1.
        -13    1    3    3    0    0 -0.13157554751E+03 -0.55149122641E+02 -0.19151242921E+03  0.23881072207E+03  0.00000000000E+00 0. -1.
         13    1    3    3    0    0 -0.48604117082E+02  0.35405773834E+02 -0.86787479626E+02  0.10558406905E+03  0.00000000000E+00 0.  1.
          4    1    1    2  501    0 -0.94028993401E+02  0.50928018767E+02 -0.80384054127E+02  0.13377858892E+03  0.00000000000E+00 0. -1.
<scales pt_clust_5="13000.00000" pt_clust_6="13000.00000" pt_clust_7="13000.00000" pt_clust_8="13000.00000" pt_clust_9="106.93510"></scales>
<clustering>
<clus scale="   91.118">  7  8 -1 -1</clus>
<clus scale="   95.783">  5  6 -1 -1</clus>
<clus scale="  106.935">  1  9  2 -1</clus>
<clus scale="  243.861">  2  7  1 -1</clus>
<clus scale="  106.935">  1  5  2 -1</clus>
</clustering>
</event>
<event>
 9    1  0.1636528E-005  0.9549012E+02  0.7546771E-02  0.1293210E+00
         -1   -1    0    0    0  501 -0.00000000000E+00  0.00000000000E+00  0.30668371882E+03  0.30668371882E+03  0.00000000000E+00 0.  1.
         21   -1    0    0  501  502  0.00000000000E+00 -0.00000000000E+00 -0.66101887896E+02  0.66101887896E+02  0.00000000000E+00 0.  1.
         23    2    1    2    0    0  0.17568717868E+02  0.46083154973E+01  0.14037383723E+03  0.16902842901E+03  0.92389930279E+02 0.  0.
         23    2    1    2    0    0 -0.17979109302E+02 -0.28263963409E+02  0.13362852672E+03  0.16280977086E+03  0.86765997569E+02 0.  0.
        -11    1    3    3    0    0  0.39090140558E+02  0.21776638073E+02  0.26784508060E+02  0.52150464299E+02  0.00000000000E+00 0.  1.
         11    1    3    3    0    0 -0.21521422690E+02 -0.17168322575E+02  0.11358932917E+03  0.11687796471E+03  0.00000000000E+00 0. -1.
        -13    1    4    4    0    0  0.12471695081E+02  0.24438767607E+02  0.20162354046E+02  0.34048745366E+02  0.00000000000E+00 0.  1.
         13    1    4    4    0    0 -0.30450804383E+02 -0.52702731016E+02  0.11346617268E+03  0.12876102549E+03  0.00000000000E+00 0. -1.
         -1    1    1    2    0  502  0.41039143368E+00  0.23655647911E+02 -0.33420533028E+02  0.40947406842E+02  0.00000000000E+00 0.  1.
<scales pt_clust_5="13000.00000" pt_clust_6="13000.00000" pt_clust_7="13000.00000" pt_clust_8="13000.00000" pt_clust_9="23.65921"></scales>
<clustering>
<clus scale="   23.659">  2  9  1 -1</clus>
<clus scale="   86.766">  7  8 -1 -1</clus>
<clus scale="   90.060">  2  7  1 -1</clus>
<clus scale="   92.390">  5  6 -1 -1</clus>
<clus scale="   23.659">  2  5  1 -1</clus>
</clustering>
</event>
<event>
 9    1  0.1636528E-005  0.1225138E+03  0.7546771E-02  0.1240375E+00
         21   -1    0    0  501  502  0.00000000000E+00  0.00000000000E+00  0.41525898097E+03  0.41525898097E+03  0.00000000000E+00 0. -1.
          1   -1    0    0  502    0 -0.00000000000E+00 -0.00000000000E+00 -0.12249231943E+03  0.12249231943E+03  0.00000000000E+00 0. -1.
         23    2    1    2    0    0 -0.10721665322E+02  0.10088662076E+03  0.88610792198E+01  0.13671421708E+03  0.91209616103E+02 0.  0.
         23    2    1    2    0    0  0.77742419543E+02 -0.36595045589E+02  0.23106655570E+02  0.12419548903E+03  0.86645950891E+02 0.  0.
        -11    1    3    3    0    0 -0.26405863689E+01  0.29362988035E+02  0.46828337048E+02  0.55335801371E+02  0.00000000000E+00 0.  1.
         11    1    3    3    0    0 -0.80810789529E+01  0.71523632727E+02 -0.37967257828E+02  0.81378415704E+02  0.00000000000E+00 0. -1.
        -11    1    4    4    0    0  0.74412474622E+02  0.99732389993E+01  0.18191183126E+02  0.77250249314E+02  0.00000000000E+00 0. -1.
         11    1    4    4    0    0  0.33299449202E+01 -0.46568284588E+02  0.49154724441E+01  0.46945239716E+02  0.00000000000E+00 0.  1.
          1    1    1    2  501    0 -0.67020754221E+02 -0.64291575173E+02  0.26079892675E+03  0.27684159429E+03  0.00000000000E+00 0. -1.
<scales pt_clust_5="13000.00000" pt_clust_6="13000.00000" pt_clust_7="13000.00000" pt_clust_8="13000.00000" pt_clust_9="92.87189"></scales>
<clustering>
<clus scale="   86.646">  7  8 -1 -1</clus>
<clus scale="   91.210">  5  6 -1 -1</clus>
<clus scale="   92.872">  1  9  2 -1</clus>
<clus scale="  119.155">  1  7  2 -1</clus>
<clus scale="   92.872">  1  5  2 -1</clus>
</clustering>
</event>
<event>
 9    1  0.1636528E-005  0.1121141E+03  0.7546771E-02  0.1257454E+00
          1   -1    0    0  502    0 -0.00000000000E+00  0.00000000000E+00  0.51879849573E+03  0.51879849573E+03  0.00000000000E+00 0. -1.
         21   -1    0    0  501  502  0.00000000000E+00 -0.00000000000E+00 -0.50995931929E+02  0.50995931929E+02  0.00000000000E+00 0. -1.
         23    2    1    2    0    0 -0.51502162397E+02  0.39102933896E+02  0.35380556192E+03  0.37060018409E+03  0.89356637322E+02 0.  0.
         23    2    1    2    0    0  0.32856705162E+02 -0.62361759236E+02  0.12239154457E+03  0.16822499465E+03  0.91386030406E+02 0.  0.
        -13    1    4    4    0    0  0.21787608272E+02  0.81876409814E+01  0.83963108580E+02  0.87129449336E+02  0.00000000000E+00 0.  1.
         13    1    4    4    0    0  0.11069096890E+02 -0.70549400218E+02  0.38428435988E+02  0.81095545312E+02  0.00000000000E+00 0. -1.
        -13    1    3    3    0    0 -0.62279794165E+02 -0.17095249948E+01  0.14920331747E+03  0.16168897668E+03  0.00000000000E+00 0. -1.
         13    1    3    3    0    0  0.10777631768E+02  0.40812458891E+02  0.20460224445E+03  0.20891120741E+03  0.00000000000E+00 0.  1.
          1    1    1    2  501    0  0.18645457235E+02  0.23258825340E+02 -0.83945426867E+01  0.30969248919E+02  0.00000000000E+00 0. -1.
<scales pt_clust_5="13000.00000" pt_clust_6="13000.00000" pt_clust_7="13000.00000" pt_clust_8="13000.00000" pt_clust_9="29.80983"></scales>
<clustering>
<clus scale="   29.810">  2  9  1 -1</clus>
<clus scale="   89.357">  7  8 -1 -1</clus>
<clus scale="   91.386">  5  6 -1 -1</clus>
<clus scale="  110.466">  1  7  2 -1</clus>
<clus scale="   29.810">  2  5  1 -1</clus>
</clustering>
</event>
<event>
 9    1  0.1636528E-005  0.9391881E+02  0.7546771E-02  0.1303571E+00
         21   -1    0    0  501  502  0.00000000000E+00  0.00000000000E+00  0.14918133486E+03  0.14918133486E+03  0.00000000000E+00 0. -1.
         -4   -1    0    0    0  501 -0.00000000000E+00 -0.00000000000E+00 -0.86452981008E+02  0.86452981008E+02  0.00000000000E+00 0.  1.
         23    2    1    2    0    0  0.24848916357E+02  0.21306674224E+02  0.33539531200E+01  0.81902824861E+02  0.75002538011E+02 0.  0.
         23    2    1    2    0    0 -0.14133943236E+02  0.22315769354E+02  0.51565628701E+02  0.10813867191E+03  0.91308249274E+02 0.  0.
        -11    1    3    3    0    0 -0.21990618689E+02  0.22548139340E+02 -0.10232842472E+02  0.33116717275E+02  0.00000000000E+00 0.  1.
         11    1    3    3    0    0  0.46839535046E+02 -0.12414651155E+01  0.13586795592E+02  0.48786107586E+02  0.00000000000E+00 0. -1.
        -13    1    4    4    0    0 -0.48501698450E+02  0.19236895505E+02  0.83558794678E+01  0.52842157629E+02  0.00000000000E+00 0.  1.
         13    1    4    4    0    0  0.34367755214E+02  0.30788738487E+01  0.43209749233E+02  0.55296514279E+02  0.00000000000E+00 0. -1.
         -4    1    1    2    0  502 -0.10714973121E+02 -0.43622443578E+02  0.78087720300E+01  0.45592819098E+02  0.00000000000E+00 0.  1.
<scales pt_clust_5="13000.00000" pt_clust_6="13000.00000" pt_clust_7="13000.00000" pt_clust_8="13000.00000" pt_clust_9="44.91915"></scales>
<clustering>
<clus scale="   44.919">  1  9  2 -1</clus>
<clus scale="   75.003">  5  6 -1 -1</clus>
<clus scale="   78.160">  2  5  1 -1</clus>
<clus scale="   91.308">  7  8 -1 -1</clus>
<clus scale="   44.919">  1  5  2 -1</clus>
</clustering>
</event>
<event>
 9    1  0.1636528E-005  0.9537212E+02  0.7546771E-02  0.1291205E+00
         21   -1    0    0  501  502  0.00000000000E+00  0.00000000000E+00  0.13999656924E+03  0.13999656924E+03  0.00000000000E+00 0.  1.
          1   -1    0    0  502    0 -0.00000000000E+00 -0.00000000000E+00 -0.10921898735E+03  0.10921898735E+03  0.00000000000E+00 0. -1.
         23    2    1    2    0    0  0.23470832115E+02  0.23932065695E+02 -0.21728192696E+02  0.10003286835E+03  0.91710613691E+02 0.  0.
         23    2    1    2    0    0  0.76316135205E+01 -0.78779739497E+01  0.10498622569E+02  0.94504568242E+02  0.93276944334E+02 0.  0.
        -11    1    3    3    0    0  0.50017860137E+02  0.38114706306E+02 -0.28720799527E+02  0.69133215570E+02  0.00000000000E+00 0. -1.
         11    1    3    3    0    0 -0.26547028022E+02 -0.14182640611E+02  0.69926068311E+01  0.30899652778E+02  0.00000000000E+00 0.  1.
        -11    1    4    4    0    0 -0.10023946867E+02 -0.44196466740E+02 -0.13802157721E+02  0.47374114671E+02  0.00000000000E+00 0.  1.
         11    1    4    4    0    0  0.17655560387E+02  0.36318492790E+02  0.24300780290E+02  0.47130453571E+02  0.00000000000E+00 0. -1.
          1    1    1    2  501    0 -0.31102445635E+02 -0.16054091745E+02  0.42007152021E+02  0.54678120004E+02  0.00000000000E+00 0. -1.
<scales pt_clust_5="13000.00000" pt_clust_6="13000.00000" pt_clust_7="13000.00000" pt_clust_8="13000.00000" pt_clust_9="35.00137"></scales>
<clustering>
<clus scale="   35.001">  1  9  2 -1</clus>
<clus scale="   91.711">  5  6 -1 -1</clus>
<clus scale="   93.277">  7  8 -1 -1</clus>
<clus scale="   93.841">  2  5  1 -1</clus>
<clus scale="   35.001">  1  5  2 -1</clus>
</clustering>
</event>
<event>
 9    1  0.1636528E-005  0.9354650E+02  0.7546771E-02  0.1294592E+00
          1   -1    0    0  502    0 -0.00000000000E+00  0.00000000000E+00  0.74470043984E+02  0.74470043984E+02  0.00000000000E+00 0. -1.
         21   -1    0    0  501  502  0.00000000000E+00 -0.00000000000E+00 -0.19989732322E+03  0.19989732322E+03  0.00000000000E+00 0.  1.
         23    2    1    2    0    0 -0.16205221812E+02  0.84163382693E+01 -0.33234781310E+00  0.92310636080E+02  0.90485905613E+02 0.  0.
         23    2    1    2    0    0  0.18374585398E+02 -0.28876585812E+02 -0.60483693261E+02  0.11424861978E+03  0.90680689088E+02 0.  0.
        -11    1    3    3    0    0  0.28693461005E+02 -0.15539510623E+02  0.19131085954E+02  0.37825778837E+02  0.00000000000E+00 0. -1.
         11    1    3    3    0    0 -0.44898682816E+02  0.23955848892E+02 -0.19463433767E+02  0.54484857243E+02  0.00000000000E+00 0.  1.
        -13    1    4    4    0    0 -0.23055588493E+02  0.20766526712E+02 -0.28411326514E+02  0.42071513721E+02  0.00000000000E+00 0.  1.
         13    1    4    4    0    0  0.41430173891E+02 -0.49643112524E+02 -0.32072366747E+02  0.72177106055E+02  0.00000000000E+00 0. -1.
          1    1    1    2  501    0 -0.21693635865E+01  0.20460247543E+02 -0.64611238163E+02  0.67808111350E+02  0.00000000000E+00 0. -1.
<scales pt_clust_5="13000.00000" pt_clust_6="13000.00000" pt_clust_7="13000.00000" pt_clust_8="13000.00000" pt_clust_9="20.57493"></scales>
<clustering>
<clus scale="   20.575">  2  9  1 -1</clus>
<clus scale="   90.486">  5  6 -1 -1</clus>
<clus scale="   90.681">  7  8 -1 -1</clus>
<clus scale="   93.358">  1  5  2 -1</clus>
<clus scale="   20.575">  2  5  1 -1</clus>
</clustering>
</event>
<event>
 9    1  0.1636528E-005  0.9549019E+02  0.7546771E-02  0.1292707E+00
          1   -1    0    0  502    0 -0.00000000000E+00  0.00000000000E+00  0.21976177393E+03  0.21976177393E+03  0.00000000000E+00 0. -1.
         21   -1    0    0  501  502  0.00000000000E+00 -0.00000000000E+00 -0.77898603291E+02  0.77898603291E+02  0.00000000000E+00 0.  1.
         23    2    1    2    0    0  0.39185073506E+01  0.29751902423E+02  0.11344997258E+03  0.14612042840E+03  0.87061776446E+02 0.  0.
         23    2    1    2    0    0  0.22606107489E+02 -0.18249503232E+02  0.56134658644E+02  0.11148573860E+03  0.91836210435E+02 0.  0.
        -11    1    3    3    0    0  0.70248895075E+01 -0.27032630329E+02  0.13266178730E+02  0.30920926137E+02  0.00000000000E+00 0.  1.
         11    1    3    3    0    0 -0.31063821569E+01  0.56784532752E+02  0.10018379385E+03  0.11519950226E+03  0.00000000000E+00 0. -1.
        -11    1    4    4    0    0  0.55458280076E+02 -0.13764066523E+02  0.15825590561E+02  0.59291817925E+02  0.00000000000E+00 0.  1.
         11    1    4    4    0    0 -0.32852172587E+02 -0.44854367084E+01  0.40309068083E+02  0.52193920679E+02  0.00000000000E+00 0. -1.
          1    1    1    2  501    0 -0.26524614840E+02 -0.11502399192E+02 -0.27721460586E+02  0.40054210223E+02  0.00000000000E+00 0. -1.
<scales pt_clust_5="13000.00000" pt_clust_6="13000.00000" pt_clust_7="13000.00000" pt_clust_8="13000.00000" pt_clust_9="28.91125"></scales>
<clustering>
<clus scale="   28.911">  2  9  1 -1</clus>
<clus scale="   87.062">  5  6 -1 -1</clus>
<clus scale="   90.908">  1  5  2 -1</clus>
<clus scale="   91.836">  7  8 -1 -1</clus>
<clus scale="   28.911">  2  5  1 -1</clus>
</clustering>
</event>
<event>
 9    1  0.1764063E-005  0.9730199E+02  0.7546771E-02  0.1288227E+00
         21   -1    0    0  501  502  0.00000000000E+00  0.00000000000E+00  0.59376918133E+03  0.59376918133E+03  0.00000000000E+00 0.  1.
          1   -1    0    0  502    0 -0.00000000000E+00 -0.00000000000E+00 -0.92651675509E+02  0.92651675509E+02  0.00000000000E+00 0. -1.
         23    2    1    2    0    0 -0.21852270112E+01 -0.53525188457E+01 -0.52082838448E+02  0.11050683961E+03  0.97291905441E+02 0.  0.
         23    2    1    2    0    0 -0.17168083245E+02 -0.43786119289E+02  0.31438356396E+03  0.33132740489E+03  0.93428350207E+02 0.  0.
        -11    1    3    3    0    0  0.33222809724E+02 -0.19144856896E+02 -0.60460961149E+02  0.71594751585E+02  0.00000000000E+00 0.  1.
         11    1    3    3    0    0 -0.35408036735E+02  0.13792338050E+02  0.83781227013E+01  0.38912088023E+02  0.00000000000E+00 0. -1.
        -13    1    4    4    0    0  0.32533639724E+02  0.72782142971E+01  0.99324389864E+02  0.10476996010E+03  0.00000000000E+00 0. -1.
         13    1    4    4    0    0 -0.49701722970E+02 -0.51064333587E+02  0.21505917409E+03  0.22655744480E+03  0.00000000000E+00 0.  1.
          1    1    1    2  501    0  0.19353310257E+02  0.49138638135E+02  0.23881678031E+03  0.24458661233E+03  0.00000000000E+00 0. -1.
<scales pt_clust_5="13000.00000" pt_clust_6="13000.00000" pt_clust_7="13000.00000" pt_clust_8="13000.00000" pt_clust_9="52.81246"></scales>
<clustering>
<clus scale="   52.812">  1  9  2 -1</clus>
<clus scale="   93.428">  7  8 -1 -1</clus>
<clus scale="   93.439">  1  7  2 -1</clus>
<clus scale="   97.292">  5  6 -1 -1</clus>
<clus scale="   52.812">  1  5  2 -1</clus>
</clustering>
</event>
<event>
 9    1  0.1636528E-005  0.1940685E+03  0.7546771E-02  0.1155161E+00
         21   -1    0    0  501  502  0.00000000000E+00  0.00000000000E+00  0.16810929299E+03  0.16810929299E+03  0.00000000000E+00 0. -1.
          1   -1    0    0  502    0 -0.00000000000E+00 -0.00000000000E+00 -0.80681448295E+03  0.80681448295E+03  0.00000000000E+00 0. -1.
         23    2    1    2    0    0 -0.72904477843E+02 -0.15209111812E+03 -0.66169143005E+03  0.68921167243E+03  0.93436661463E+02 0.  0.
         23    2    1    2    0    0  0.43125223506E+02  0.17673221919E+03 -0.44486286862E+02  0.20795266843E+03  0.90394802873E+02 0.  0.
        -11    1    3    3    0    0 -0.82485959315E+02 -0.13136014572E+03 -0.63685062623E+03  0.65546787984E+03  0.00000000000E+00 0. -1.
         11    1    3    3    0    0  0.95814814728E+01 -0.20730972401E+02 -0.24840803822E+02  0.33743792591E+02  0.00000000000E+00 0.  1.
        -11    1    4    4    0    0  0.21868589578E+02 -0.25674148866E+01 -0.88767334953E-01  0.22018962487E+02  0.00000000000E+00 0.  1.
         11    1    4    4    0    0  0.21256633927E+02  0.17929963408E+03 -0.44397519527E+02  0.18593370594E+03  0.00000000000E+00 0. -1.
          1    1    1    2  501    0  0.29779254337E+02 -0.24641101070E+02  0.67472526954E+02  0.77759435083E+02  0.00000000000E+00 0. -1.
<scales pt_clust_5="13000.00000" pt_clust_6="13000.00000" pt_clust_7="13000.00000" pt_clust_8="13000.00000" pt_clust_9="38.65214"></scales>
<clustering>
<clus scale="   38.652">  1  9  2 -1</clus>
<clus scale="   90.395">  7  8 -1 -1</clus>
<clus scale="   93.437">  5  6 -1 -1</clus>
<clus scale="  192.622">  1  7  2 -1</clus>
<clus scale="   38.652">  1  5  2 -1</clus>
</clustering>
</event>
<event>
 9    1  0.1636528E-005  0.9844997E+02  0.7546771E-02  0.1284233E+00
         -3   -1    0    0    0  501 -0.00000000000E+00  0.00000000000E+00  0.32561719491E+03  0.32561719491E+03  0.00000000000E+00 0.  1.
         21   -1    0    0  501  502  0.00000000000E+00 -0.00000000000E+00 -0.15903313065E+03  0.15903313065E+03  0.00000000000E+00 0.  1.
         23    2    1    2    0    0 -0.18214356810E+02 -0.12100025721E+02  0.13401555991E+03  0.16407900072E+03  0.92106323134E+02 0.  0.
         23    2    1    2    0    0  0.46833835509E+02 -0.58579412767E+02  0.14369026516E+03  0.18580225083E+03  0.90832969586E+02 0.  0.
        -11    1    4    4    0    0 -0.14508356796E+02 -0.50902329480E+02  0.87486997146E+02  0.10225220894E+03  0.00000000000E+00 0.  1.
         11    1    4    4    0    0  0.61342192305E+02 -0.76770832863E+01  0.56203268009E+02  0.83550041888E+02  0.00000000000E+00 0. -1.
        -13    1    3    3    0    0  0.28908522649E+02  0.18485559699E+02  0.28771900229E+02  0.44779915609E+02  0.00000000000E+00 0.  1.
         13    1    3    3    0    0 -0.47122879459E+02 -0.30585585421E+02  0.10524365968E+03  0.11929908511E+03  0.00000000000E+00 0. -1.
         -3    1    1    2    0  502 -0.28619478699E+02  0.70679438488E+02 -0.11112176080E+03  0.13476907401E+03  0.00000000000E+00 0.  1.
<scales pt_clust_5="13000.00000" pt_clust_6="13000.00000" pt_clust_7="13000.00000" pt_clust_8="13000.00000" pt_clust_9="76.25390"></scales>
<clustering>
<clus scale="   76.254">  2  9  1 -1</clus>
<clus scale="   90.833">  5  6 -1 -1</clus>
<clus scale="   92.106">  7  8 -1 -1</clus>
<clus scale="   97.260">  2  5  1 -1</clus>
<clus scale="   76.254">  2  5  1 -1</clus>
</clustering>
</event>
<event>
 9    1  0.1636528E-005  0.2199466E+03  0.7546771E-02  0.1134055E+00
          2   -1    0    0  502    0 -0.00000000000E+00  0.00000000000E+00  0.17280397361E+04  0.17280397361E+04  0.00000000000E+00 0. -1.
         21   -1    0    0  501  502  0.00000000000E+00 -0.00000000000E+00 -0.48329525825E+02  0.48329525825E+02  0.00000000000E+00 0.  1.
         23    2    1    2    0    0  0.18274469306E+03 -0.67053562316E+02  0.10262585238E+04  0.10485771772E+04  0.91737320026E+02 0.  0.
         23    2    1    2    0    0 -0.21739009763E+03  0.19299692073E+02  0.38008858151E+03  0.44813493149E+03  0.93416563640E+02 0.  0.
        -11    1    4    4    0    0 -0.91998382688E+02 -0.74152002049E+01  0.24540501034E+03  0.26218754111E+03  0.00000000000E+00 0. -1.
         11    1    4    4    0    0 -0.12539171495E+03  0.26714892278E+02  0.13468357117E+03  0.18594739038E+03  0.00000000000E+00 0.  1.
        -11    1    3    3    0    0  0.53431314354E+02  0.22280293424E+02  0.26030736080E+03  0.26666690630E+03  0.00000000000E+00 0.  1.
         11    1    3    3    0    0  0.12931337871E+03 -0.89333855740E+02  0.76595116297E+03  0.78191027091E+03  0.00000000000E+00 0. -1.
          2    1    1    2  501    0  0.34645404573E+02  0.47753870243E+02  0.27336310501E+03  0.27965715324E+03  0.00000000000E+00 0. -1.
<scales pt_clust_5="13000.00000" pt_clust_6="13000.00000" pt_clust_7="13000.00000" pt_clust_8="13000.00000" pt_clust_9="58.99779"></scales>
<clustering>
<clus scale="   58.998">  2  9  1 -1</clus>
<clus scale="   91.737">  7  8 -1 -1</clus>
<clus scale="   93.417">  5  6 -1 -1</clus>
<clus scale="  219.239">  1  7  2 -1</clus>
<clus scale="   58.998">  2  5  1 -1</clus>
</clustering>
</event>
<event>
 9    1  0.1636528E-005  0.1125548E+03  0.7546771E-02  0.1257870E+00
          2   -1    0    0  502    0 -0.00000000000E+00  0.00000000000E+00  0.23291660934E+03  0.23291660934E+03  0.00000000000E+00 0. -1.
         21   -1    0    0  501  502  0.00000000000E+00 -0.00000000000E+00 -0.40351344565E+03  0.40351344565E+03  0.00000000000E+00 0. -1.
         23    2    1    2    0    0 -0.53449714039E+01 -0.68257926623E+02  0.16232006565E+03  0.19610476765E+03  0.86148493415E+02 0.  0.
         23    2    1    2    0    0 -0.79902738556E+02  0.48204638802E+02 -0.43137361978E+02  0.13760183566E+03  0.91462004942E+02 0.  0.
        -11    1    4    4    0    0 -0.91401587077E+02  0.11430725937E+02 -0.29261126008E+02  0.96649496175E+02  0.00000000000E+00 0. -1.
         11    1    4    4    0    0  0.11498848521E+02  0.36773912865E+02 -0.13876235971E+02  0.40952339487E+02  0.00000000000E+00 0.  1.
        -13    1    3    3    0    0  0.31747157679E+02 -0.75448771401E+01  0.84916898538E+02  0.90970802179E+02  0.00000000000E+00 0.  1.
         13    1    3    3    0    0 -0.37092129082E+02 -0.60713049483E+02  0.77403167108E+02  0.10513396547E+03  0.00000000000E+00 0. -1.
          2    1    1    2  501    0  0.85247709960E+02  0.20053287821E+02 -0.28977953998E+03  0.30272345168E+03  0.00000000000E+00 0. -1.
<scales pt_clust_5="13000.00000" pt_clust_6="13000.00000" pt_clust_7="13000.00000" pt_clust_8="13000.00000" pt_clust_9="87.57458"></scales>
<clustering>
<clus scale="   86.148">  7  8 -1 -1</clus>
<clus scale="   87.575">  2  9  1 -1</clus>
<clus scale="   91.462">  5  6 -1 -1</clus>
<clus scale="  108.281">  1  7  2 -1</clus>
<clus scale="   87.575">  2  5  1 -1</clus>
</clustering>
</event>
<event>
 9    1  0.1636528E-005  0.1040131E+03  0.7546771E-02  0.1272937E+00
         21   -1    0    0  501  502  0.00000000000E+00  0.00000000000E+00  0.25619986931E+03  0.25619986931E+03  0.00000000000E+00 0. -1.
         -3   -1    0    0    0  501 -0.00000000000E+00 -0.00000000000E+00 -0.84207841964E+02  0.84207841964E+02  0.00000000000E+00 0.  1.
         23    2    1    2    0    0 -0.29958800839E+02 -0.31576519115E+02 -0.18347722885E+02  0.10568278509E+03  0.94538911681E+02 0.  0.
         23    2    1    2    0    0  0.46776281224E+02  0.12213704834E+02  0.11624194289E+03  0.15631426826E+03  0.92654012889E+02 0.  0.
        -11    1    4    4    0    0  0.71753599249E+02  0.16510703659E+02  0.10581076707E+03  0.12890733404E+03  0.00000000000E+00 0. -1.
         11    1    4    4    0    0 -0.24977318026E+02 -0.42969988254E+01  0.10431175822E+02  0.27406934227E+02  0.00000000000E+00 0.  1.
        -13    1    3    3    0    0 -0.39667917393E+02  0.16459023108E+02  0.16007590480E+02  0.45833241921E+02  0.00000000000E+00 0. -1.
         13    1    3    3    0    0  0.97091165545E+01 -0.48035542223E+02 -0.34355313365E+02  0.59849543167E+02  0.00000000000E+00 0.  1.
         -3    1    1    2    0  502 -0.16817480385E+02  0.19362814281E+02  0.74097807341E+02  0.78410657924E+02  0.00000000000E+00 0.  1.
<scales pt_clust_5="13000.00000" pt_clust_6="13000.00000" pt_clust_7="13000.00000" pt_clust_8="13000.00000" pt_clust_9="25.64656"></scales>
<clustering>
<clus scale="   25.647">  1  9  2 -1</clus>
<clus scale="   92.654">  5  6 -1 -1</clus>
<clus scale="   94.539">  7  8 -1 -1</clus>
<clus scale="  102.303">  1  5  2 -1</clus>
<clus scale="   25.647">  1  5  2 -1</clus>
</clustering>
</event>
<event>
 9    1  0.1636528E-005  0.1341651E+03  0.7546771E-02  0.1221873E+00
         21   -1    0    0  501  502  0.00000000000E+00  0.00000000000E+00  0.88335278591E+02  0.88335278591E+02  0.00000000000E+00 0.  1.
          2   -1    0    0  502    0 -0.00000000000E+00 -0.00000000000E+00 -0.85199148620E+03  0.85199148620E+03  0.00000000000E+00 0. -1.
         23    2    1    2    0    0 -0.42904693796E+02  0.83287367618E+02 -0.72047611718E+03  0.73246603219E+03  0.92968029628E+02 0.  0.
         23    2    1    2    0    0  0.64737470242E+02 -0.10310959415E+03 -0.70569430561E+02  0.16761440674E+03  0.91060509334E+02 0.  0.
        -11    1    4    4    0    0 -0.62211976237E+01 -0.32825248826E+02  0.14500075125E+02  0.36420494766E+02  0.00000000000E+00 0.  1.
         11    1    4    4    0    0  0.70958667866E+02 -0.70284345320E+02 -0.85069505686E+02  0.13119391198E+03  0.00000000000E+00 0. -1.
        -13    1    3    3    0    0  0.21991072620E+02 -0.47991951016E+01 -0.11433068080E+03  0.11652529391E+03  0.00000000000E+00 0.  1.
         13    1    3    3    0    0 -0.64895766416E+02  0.88086562720E+02 -0.60614543638E+03  0.61594073828E+03  0.00000000000E+00 0. -1.
          2    1    1    2  501    0 -0.21832776446E+02  0.19822226528E+02  0.27389340133E+02  0.40246325854E+02  0.00000000000E+00 0. -1.
<scales pt_clust_5="13000.00000" pt_clust_6="13000.00000" pt_clust_7="13000.00000" pt_clust_8="13000.00000" pt_clust_9="29.48882"></scales>
<clustering>
<clus scale="   29.489">  1  9  2 -1</clus>
<clus scale="   91.061">  5  6 -1 -1</clus>
<clus scale="   92.968">  7  8 -1 -1</clus>
<clus scale="  132.850">  1  5  2 -1</clus>
<clus scale="   29.489">  1  5  2 -1</clus>
</clustering>
</event>
<event>
 9    1  0.1636528E-005  0.1185111E+03  0.7546771E-02  0.1257438E+00
         -2   -1    0    0    0  501 -0.00000000000E+00  0.00000000000E+00  0.22644493176E+03  0.22644493176E+03  0.00000000000E+00 0.  1.
         21   -1    0    0  501  502  0.00000000000E+00 -0.00000000000E+00 -0.13083381167E+03  0.13083381167E+03  0.00000000000E+00 0.  1.
         23    2    1    2    0    0  0.42161118333E+00 -0.18877420983E+02  0.11909445440E+03  0.16721711111E+03  0.11585136339E+03 0.  0.
         23    2    1    2    0    0  0.17235790590E+02  0.29507166693E+02  0.53567029348E+02  0.11030240796E+03  0.90163458255E+02 0.  0.
        -11    1    4    4    0    0  0.34642875526E+01  0.52669411840E+02  0.62598755034E+02  0.81882063748E+02  0.00000000000E+00 0. -1.
         11    1    4    4    0    0  0.13771503038E+02 -0.23162245147E+02 -0.90317256855E+01  0.28420344210E+02  0.00000000000E+00 0.  1.
        -13    1    3    3    0    0 -0.26325544910E+02 -0.13755095576E+02  0.13325299833E+03  0.13652325272E+03  0.00000000000E+00 0.  1.
         13    1    3    3    0    0  0.26747156094E+02 -0.51223254068E+01 -0.14158543927E+02  0.30693858389E+02  0.00000000000E+00 0. -1.
         -2    1    1    2    0  502 -0.17657401774E+02 -0.10629745710E+02 -0.77050363656E+02  0.79759224361E+02  0.00000000000E+00 0.  1.
<scales pt_clust_5="13000.00000" pt_clust_6="13000.00000" pt_clust_7="13000.00000" pt_clust_8="13000.00000" pt_clust_9="20.61008"></scales>
<clustering>
<clus scale="   20.610">  2  9  1 -1</clus>
<clus scale="   90.163">  5  6 -1 -1</clus>
<clus scale="   93.556">  2  5  1 -1</clus>
<clus scale="  115.851">  7  8 -1 -1</clus>
<clus scale="   20.610">  2  5  1 -1</clus>
</clustering>
</event>
<event>
 9    1  0.1636528E-005  0.2227555E+03  0.7546771E-02  0.1142508E+00
         21   -1    0    0  501  502  0.00000000000E+00  0.00000000000E+00  0.51507130202E+02  0.51507130202E+02  0.00000000000E+00 0.  1.
          2   -1    0    0  502    0 -0.00000000000E+00 -0.00000000000E+00 -0.19834679473E+04  0.19834679473E+04  0.00000000000E+00 0. -1.
         23    2    1    2    0    0  0.13368693939E+03  0.59837184303E+02 -0.36119597568E+03  0.40006430001E+03  0.90201024997E+02 0.  0.
         23    2    1    2    0    0  0.13594818524E+03 -0.74454359862E+02 -0.71994082759E+03  0.74226400258E+03  0.92820760141E+02 0.  0.
        -11    1    4    4    0    0  0.83195912087E+02  0.36080108115E+01 -0.40774085337E+03  0.41615763964E+03  0.00000000000E+00 0.  1.
         11    1    4    4    0    0  0.52752273150E+02 -0.78062370674E+02 -0.31219997423E+03  0.32610636293E+03  0.00000000000E+00 0. -1.
        -11    1    3    3    0    0  0.10589099283E+03  0.64984979932E+02 -0.34671353693E+03  0.36830181464E+03  0.00000000000E+00 0. -1.
         11    1    3    3    0    0  0.27795946558E+02 -0.51477956287E+01 -0.14482438752E+02  0.31762485373E+02  0.00000000000E+00 0.  1.
          2    1    1    2  501    0 -0.26963512463E+03  0.14617175560E+02 -0.85082401380E+03  0.89264677488E+03  0.00000000000E+00 0. -1.
<scales pt_clust_5="13000.00000" pt_clust_6="13000.00000" pt_clust_7="13000.00000" pt_clust_8="13000.00000" pt_clust_9="202.49532"></scales>
<clustering>
<clus scale="   90.201">  7  8 -1 -1</clus>
<clus scale="   92.821">  5  6 -1 -1</clus>
<clus scale="  172.014">  2  7  1 -1</clus>
<clus scale="  202.495">  1  9  2 -1</clus>
<clus scale="  202.495">  1  5  2 -1</clus>
</clustering>
</event>
<event>
 9    1  0.1636528E-005  0.9679871E+02  0.7546771E-02  0.1290632E+00
         21   -1    0    0  501  502  0.00000000000E+00  0.00000000000E+00  0.90225059623E+02  0.90225059623E+02  0.00000000000E+00 0.  1.
          3   -1    0    0  502    0 -0.00000000000E+00 -0.00000000000E+00 -0.18105599489E+03  0.18105599489E+03  0.00000000000E+00 0. -1.
         23    2    1    2    0    0 -0.45611919676E+01 -0.37511942215E+01 -0.10589143508E+03  0.14335601551E+03  0.96452450614E+02 0.  0.
         23    2    1    2    0    0 -0.21529437555E+02  0.17421565877E+02 -0.73169123200E+00  0.94503589193E+02  0.90351343982E+02 0.  0.
        -11    1    3    3    0    0  0.16356456403E+02  0.28997825086E+02 -0.30670050314E+01  0.33433726171E+02  0.00000000000E+00 0.  1.
         11    1    3    3    0    0 -0.20917648370E+02 -0.32749019308E+02 -0.10282443005E+03  0.10992228934E+03  0.00000000000E+00 0. -1.
        -11    1    4    4    0    0 -0.18345153234E+02  0.41923510674E+02  0.30264908980E+02  0.54864288112E+02  0.00000000000E+00 0.  1.
         11    1    4    4    0    0 -0.31842843218E+01 -0.24501944798E+02 -0.30996600212E+02  0.39639301081E+02  0.00000000000E+00 0. -1.
          3    1    1    2  501    0  0.26090629523E+02 -0.13670371655E+02  0.15792191037E+02  0.33421449816E+02  0.00000000000E+00 0. -1.
<scales pt_clust_5="13000.00000" pt_clust_6="13000.00000" pt_clust_7="13000.00000" pt_clust_8="13000.00000" pt_clust_9="29.45505"></scales>
<clustering>
<clus scale="   29.455">  1  9  2 -1</clus>
<clus scale="   90.351">  7  8 -1 -1</clus>
<clus scale="   90.721">  1  7  2 -1</clus>
<clus scale="   96.452">  5  6 -1 -1</clus>
<clus scale="   29.455">  1  5  2 -1</clus>
</clustering>
</event>
<event>
 9    1  0.1636528E-005  0.1961873E+03  0.7546771E-02  0.1153171E+00
         -2   -1    0    0    0  501 -0.00000000000E+00  0.00000000000E+00  0.42636138064E+03  0.42636138064E+03  0.00000000000E+00 0.  1.
         21   -1    0    0  501  502  0.00000000000E+00 -0.00000000000E+00 -0.15395725729E+03  0.15395725729E+03  0.00000000000E+00 0.  1.
         23    2    1    2    0    0  0.17612087629E+03 -0.42296340693E+02  0.26940089090E+03  0.33719069879E+03  0.91176662794E+02 0.  0.
         23    2    1    2    0    0 -0.15094284181E+03  0.49630649628E+02  0.50216908899E+02  0.18912000684E+03  0.89429839386E+02 0.  0.
        -11    1    4    4    0    0 -0.29821718758E+02  0.31676405861E+02  0.50525515724E+02  0.66675012839E+02  0.00000000000E+00 0.  1.
         11    1    4    4    0    0 -0.12112112305E+03  0.17954243767E+02 -0.30860682415E+00  0.12244499400E+03  0.00000000000E+00 0. -1.
        -13    1    3    3    0    0  0.17792496392E+03 -0.18729596011E+02  0.24298048053E+03  0.30174095591E+03  0.00000000000E+00 0.  1.
         13    1    3    3    0    0 -0.18040876305E+01 -0.23566744681E+02  0.26420410361E+02  0.35449742886E+02  0.00000000000E+00 0. -1.
         -2    1    1    2    0  502 -0.25178034479E+02 -0.73343089347E+01 -0.47213676444E+02  0.54007932298E+02  0.00000000000E+00 0.  1.
<scales pt_clust_5="13000.00000" pt_clust_6="13000.00000" pt_clust_7="13000.00000" pt_clust_8="13000.00000" pt_clust_9="26.22452"></scales>
<clustering>
<clus scale="   26.225">  2  9  1 -1</clus>
<clus scale="   89.430">  5  6 -1 -1</clus>
<clus scale="   91.177">  7  8 -1 -1</clus>
<clus scale="  195.382">  2  5  1 -1</clus>
<clus scale="   26.225">  2  5  1 -1</clus>
</clustering>
</event>
<event>
 9    1  0.1636528E-005  0.1212683E+03  0.7546771E-02  0.1241814E+00
         -1   -1    0    0    0  501 -0.00000000000E+00  0.00000000000E+00  0.12005124689E+03  0.12005124689E+03  0.00000000000E+00 0.  1.
         21   -1    0    0  501  502  0.00000000000E+00 -0.00000000000E+00 -0.23327133151E+03  0.23327133151E+03  0.00000000000E+00 0.  1.
         23    2    1    2    0    0  0.43821491465E+02 -0.49302183990E+02 -0.56658953657E+01  0.11338773670E+03  0.92052419872E+02 0.  0.
         23    2    1    2    0    0 -0.85252369151E+02  0.45976560946E+02 -0.80693162116E+01  0.13211639541E+03  0.89486409411E+02 0.  0.
        -11    1    3    3    0    0  0.59305604182E+02 -0.14985243914E+02  0.23741480419E+02  0.65615319210E+02  0.00000000000E+00 0. -1.
         11    1    3    3    0    0 -0.15484112717E+02 -0.34316940075E+02 -0.29407375785E+02  0.47772417495E+02  0.00000000000E+00 0.  1.
        -13    1    4    4    0    0 -0.63312597579E+02  0.44494407542E+02 -0.44719106260E+02  0.89375812049E+02  0.00000000000E+00 0.  1.
         13    1    4    4    0    0 -0.21939771572E+02  0.14821534042E+01  0.36649790048E+02  0.42740583360E+02  0.00000000000E+00 0. -1.
         -1    1    1    2    0  502  0.41430877685E+02  0.33256230436E+01 -0.99484873047E+02  0.10781844629E+03  0.00000000000E+00 0.  1.
<scales pt_clust_5="13000.00000" pt_clust_6="13000.00000" pt_clust_7="13000.00000" pt_clust_8="13000.00000" pt_clust_9="41.56414"></scales>
<clustering>
<clus scale="   41.564">  2  9  1 -1</clus>
<clus scale="   89.486">  7  8 -1 -1</clus>
<clus scale="   92.052">  5  6 -1 -1</clus>
<clus scale="  119.332">  2  7  1 -1</clus>
<clus scale="   41.564">  2  5  1 -1</clus>
</clustering>
</event>
<event>
 9    1  0.1636528E-005  0.2430297E+03  0.7546771E-02  0.1117855E+00
         21   -1    0    0  501  502  0.00000000000E+00  0.00000000000E+00  0.28741956269E+03  0.28741956269E+03  0.00000000000E+00 0. -1.
          2   -1    0    0  502    0 -0.00000000000E+00 -0.00000000000E+00 -0.11600060395E+04  0.11600060395E+04  0.00000000000E+00 0. -1.
         23    2    1    2    0    0  0.69325213606E+02 -0.19024510051E+03 -0.62770823916E+03  0.66570993374E+03  0.90293404311E+02 0.  0.
         23    2    1    2    0    0 -0.15286762405E+03  0.23668084149E+03 -0.45954768868E+03  0.54672931658E+03  0.91337485370E+02 0.  0.
        -13    1    4    4    0    0 -0.10844555850E+03  0.93590594345E+02 -0.26426612023E+03  0.30059311504E+03  0.00000000000E+00 0.  1.
         13    1    4    4    0    0 -0.44422065548E+02  0.14309024714E+03 -0.19528156844E+03  0.24613620154E+03  0.00000000000E+00 0. -1.
        -13    1    3    3    0    0  0.22507819550E+02 -0.60182582537E+02 -0.34598628263E+03  0.35190205022E+03  0.00000000000E+00 0. -1.
         13    1    3    3    0    0  0.46817394056E+02 -0.13006251797E+03 -0.28172195653E+03  0.31380788352E+03  0.00000000000E+00 0.  1.
          2    1    1    2  501    0  0.83542410441E+02 -0.46435740974E+02  0.21466945100E+03  0.23498635189E+03  0.00000000000E+00 0. -1.
<scales pt_clust_5="13000.00000" pt_clust_6="13000.00000" pt_clust_7="13000.00000" pt_clust_8="13000.00000" pt_clust_9="95.58040"></scales>
<clustering>
<clus scale="   90.293">  7  8 -1 -1</clus>
<clus scale="   91.337">  5  6 -1 -1</clus>
<clus scale="   95.580">  1  9  2 -1</clus>
<clus scale="  242.639">  2  7  1 -1</clus>
<clus scale="   95.580">  1  5  2 -1</clus>
</clustering>
</event>
<event>
 9    1  0.1636528E-005  0.9641545E+02  0.7546771E-02  0.1289152E+00
         21   -1    0    0  501  502  0.00000000000E+00  0.00000000000E+00  0.69220703509E+02  0.69220703509E+02  0.00000000000E+00 0. -1.
          2   -1    0    0  502    0 -0.00000000000E+00 -0.00000000000E+00 -0.47684862650E+03  0.47684862650E+03  0.00000000000E+00 0. -1.
         23    2    1    2    0    0  0.21998973794E+02  0.31406447128E+02 -0.35289402737E+03  0.36596823863E+03  0.89040650065E+02 0.  0.
         23    2    1    2    0    0 -0.49461306126E+01 -0.10287359666E+02 -0.94588885421E+02  0.13188039533E+03  0.91187101333E+02 0.  0.
        -11    1    3    3    0    0  0.55180108385E+02  0.21912924350E+02 -0.17616508919E+03  0.18590093938E+03  0.00000000000E+00 0. -1.
         11    1    3    3    0    0 -0.33181134591E+02  0.94935227784E+01 -0.17672893818E+03  0.18006729924E+03  0.00000000000E+00 0.  1.
        -13    1    4    4    0    0  0.12876325055E+02 -0.48253451986E+02 -0.52623016346E+02  0.72549136624E+02  0.00000000000E+00 0.  1.
         13    1    4    4    0    0 -0.17822455668E+02  0.37966092320E+02 -0.41965869075E+02  0.59331258703E+02  0.00000000000E+00 0. -1.
          2    1    1    2  501    0 -0.17052843181E+02 -0.21119087462E+02  0.39854989800E+02  0.48220696052E+02  0.00000000000E+00 0. -1.
<scales pt_clust_5="13000.00000" pt_clust_6="13000.00000" pt_clust_7="13000.00000" pt_clust_8="13000.00000" pt_clust_9="27.14434"></scales>
<clustering>
<clus scale="   27.144">  1  9  2 -1</clus>
<clus scale="   89.041">  5  6 -1 -1</clus>
<clus scale="   91.187">  7  8 -1 -1</clus>
<clus scale="   94.388">  2  5  1 -1</clus>
<clus scale="   27.144">  1  5  2 -1</clus>
</clustering>
</event>
<event>
 9    1  0.1636528E-005  0.9492267E+02  0.7546771E-02  0.1292245E+00
         21   -1    0    0  501  502  0.00000000000E+00  0.00000000000E+00  0.53767767963E+02  0.53767767963E+02  0.00000000000E+00 0.  1.
          4   -1    0    0  502    0 -0.00000000000E+00 -0.00000000000E+00 -0.37170052327E+03  0.37170052327E+03  0.00000000000E+00 0. -1.
         23    2    1    2    0    0 -0.27817872091E+02 -0.23518692014E+02 -0.26985461060E+03  0.28613633597E+03  0.87894988596E+02 0.  0.
         23    2    1    2    0    0  0.24629003907E+02 -0.11305355578E+02 -0.46081502134E+02  0.10430525470E+03  0.89563845496E+02 0.  0.
        -13    1    3    3    0    0 -0.44466179284E+02  0.19844746744E+02 -0.13894571445E+03  0.14723099754E+03  0.00000000000E+00 0.  1.
         13    1    3    3    0    0  0.16648307192E+02 -0.43363438758E+02 -0.13090889615E+03  0.13890533843E+03  0.00000000000E+00 0. -1.
        -13    1    4    4    0    0  0.27314348434E+02  0.90368274454E+01 -0.68269419387E+02  0.74084084014E+02  0.00000000000E+00 0. -1.
         13    1    4    4    0    0 -0.26853445269E+01 -0.20342183023E+02  0.22187917253E+02  0.30221170682E+02  0.00000000000E+00 0.  1.
          4    1    1    2  501    0  0.31888681843E+01  0.34824047592E+02 -0.19966425747E+01  0.35026700566E+02  0.00000000000E+00 0. -1.
<scales pt_clust_5="13000.00000" pt_clust_6="13000.00000" pt_clust_7="13000.00000" pt_clust_8="13000.00000" pt_clust_9="34.96975"></scales>
<clustering>
<clus scale="   34.970">  1  9  2 -1</clus>
<clus scale="   87.895">  5  6 -1 -1</clus>
<clus scale="   89.564">  7  8 -1 -1</clus>
<clus scale="   93.350">  2  5  1 -1</clus>
<clus scale="   34.970">  1  5  2 -1</clus>
</clustering>
</event>
<event>
 9    1  0.1636528E-005  0.4975165E+03  0.7546771E-02  0.1014484E+00
          2   -1    0    0  502    0 -0.00000000000E+00  0.00000000000E+00  0.27873198093E+04  0.27873198093E+04  0.00000000000E+00 0. -1.
         21   -1    0    0  501  502  0.00000000000E+00 -0.00000000000E+00 -0.20637678516E+03  0.20637678516E+03  0.00000000000E+00 0. -1.
         23    2    1    2    0    0  0.10345012323E+03 -0.44564921681E+03  0.17616452128E+04  0.18223138906E+04  0.90160455316E+02 0.  0.
         23    2    1    2    0    0 -0.23475896111E+03  0.55161880535E+03  0.79609704154E+03  0.10010599505E+04  0.94633232497E+02 0.  0.
        -11    1    3    3    0    0  0.11972754796E+03 -0.37744709814E+03  0.14770396513E+04  0.15291981981E+04  0.00000000000E+00 0.  1.
         11    1    3    3    0    0 -0.16277424726E+02 -0.68202118677E+02  0.28460556153E+03  0.29311569252E+03  0.00000000000E+00 0. -1.
        -13    1    4    4    0    0 -0.19735664885E+03  0.51482103834E+03  0.69481515176E+03  0.88699404929E+03  0.00000000000E+00 0. -1.
         13    1    4    4    0    0 -0.37402312265E+02  0.36797767011E+02  0.10128188978E+03  0.11406590120E+03  0.00000000000E+00 0.  1.
          2    1    1    2  501    0  0.13130883788E+03 -0.10596958853E+03  0.23200769830E+02  0.17032275338E+03  0.00000000000E+00 0. -1.
<scales pt_clust_5="13000.00000" pt_clust_6="13000.00000" pt_clust_7="13000.00000" pt_clust_8="13000.00000" pt_clust_9="168.73519"></scales>
<clustering>
<clus scale="   90.160">  5  6 -1 -1</clus>
<clus scale="   94.633">  7  8 -1 -1</clus>
<clus scale="  168.735">  2  9  1 -1</clus>
<clus scale="  496.685">  1  5  2 -1</clus>
<clus scale="  168.735">  2  5  1 -1</clus>
</clustering>
</event>
<event>
 9    1  0.1636528E-005  0.1096141E+03  0.7546771E-02  0.1266232E+00
          3   -1    0    0  502    0 -0.00000000000E+00  0.00000000000E+00  0.59518852878E+02  0.59518852878E+02  0.00000000000E+00 0. -1.
         21   -1    0    0  501  502  0.00000000000E+00 -0.00000000000E+00 -0.37958788490E+03  0.37958788490E+03  0.00000000000E+00 0.  1.
         23    2    1    2    0    0  0.63123536398E+02  0.16158243476E+02 -0.42396317821E+02  0.12398162988E+03  0.96583265134E+02 0.  0.
         23    2    1    2    0    0 -0.28449073693E+02 -0.17309090801E+02 -0.10547226227E+03  0.13946453048E+03  0.84952944241E+02 0.  0.
        -13    1    3    3    0    0  0.85883933433E+02  0.53453309010E+01 -0.16066880171E+02  0.87537233351E+02  0.00000000000E+00 0.  1.
         13    1    3    3    0    0 -0.22760397035E+02  0.10812912575E+02 -0.26329437650E+02  0.36444396531E+02  0.00000000000E+00 0. -1.
        -13    1    4    4    0    0 -0.44647247119E+02 -0.32404973700E+02 -0.34378705360E+02  0.65002725928E+02  0.00000000000E+00 0. -1.
         13    1    4    4    0    0  0.16198173426E+02  0.15095882899E+02 -0.71093556915E+02  0.74461804555E+02  0.00000000000E+00 0.  1.
          3    1    1    2  501    0 -0.34674462705E+02  0.11508473253E+01 -0.17220045192E+03  0.17566057741E+03  0.00000000000E+00 0. -1.
<scales pt_clust_5="13000.00000" pt_clust_6="13000.00000" pt_clust_7="13000.00000" pt_clust_8="13000.00000" pt_clust_9="34.69356"></scales>
<clustering>
<clus scale="   34.694">  2  9  1 -1</clus>
<clus scale="   84.953">  7  8 -1 -1</clus>
<clus scale="   96.583">  5  6 -1 -1</clus>
<clus scale="   99.518">  2  7  1 -1</clus>
<clus scale="   34.694">  2  5  1 -1</clus>
</clustering>
</event>
<event>
 9    1  0.1636528E-005  0.1240955E+03  0.7546771E-02  0.1248733E+00
         -2   -1    0    0    0  501 -0.00000000000E+00  0.00000000000E+00  0.30325631030E+03  0.30325631030E+03  0.00000000000E+00 0.  1.
         21   -1    0    0  501  502  0.00000000000E+00 -0.00000000000E+00 -0.94110427386E+02  0.94110427386E+02  0.00000000000E+00 0. -1.
         23    2    1    2    0    0  0.11764727372E+02  0.33005287140E+02  0.21583417145E+03  0.24963638341E+03  0.12044158986E+03 0.  0.
         23    2    1    2    0    0 -0.46271964053E+01 -0.65780101571E+01 -0.43203209467E+02  0.10209391305E+03  0.92151877947E+02 0.  0.
        -13    1    3    3    0    0 -0.52281116931E+02  0.27463026101E+02  0.80798300240E+02  0.10007945999E+03  0.00000000000E+00 0. -1.
         13    1    3    3    0    0  0.64045844303E+02  0.55422610392E+01  0.13503587121E+03  0.14955692342E+03  0.00000000000E+00 0.  1.
        -13    1    4    4    0    0  0.25399946515E+02 -0.36398225825E+02 -0.39838934490E+02  0.59641670227E+02  0.00000000000E+00 0.  1.
         13    1    4    4    0    0 -0.30027142921E+02  0.29820215668E+02 -0.33642749767E+01  0.42452242822E+02  0.00000000000E+00 0. -1.
         -2    1    1    2    0  502 -0.71375309664E+01 -0.26427276983E+02  0.36514920926E+02  0.45636441220E+02  0.00000000000E+00 0.  1.
<scales pt_clust_5="13000.00000" pt_clust_6="13000.00000" pt_clust_7="13000.00000" pt_clust_8="13000.00000" pt_clust_9="27.37419"></scales>
<clustering>
<clus scale="   27.374">  2  9  1 -1</clus>
<clus scale="   92.152">  7  8 -1 -1</clus>
<clus scale="   96.879">  2  7  1 -1</clus>
<clus scale="  120.442">  5  6 -1 -1</clus>
<clus scale="   27.374">  2  5  1 -1</clus>
</clustering>
</event>
<event>
 9    1  0.1636528E-005  0.1345179E+03  0.7546771E-02  0.1222015E+00
          1   -1    0    0  502    0 -0.00000000000E+00  0.00000000000E+00  0.25557794764E+03  0.25557794764E+03  0.00000000000E+00 0. -1.
         21   -1    0    0  501  502  0.00000000000E+00 -0.00000000000E+00 -0.12795004433E+03  0.12795004433E+03  0.00000000000E+00 0. -1.
         23    2    1    2    0    0 -0.10512776345E+03  0.53805640776E+01  0.14997915270E+03  0.20448017658E+03  0.90761221065E+02 0.  0.
         23    2    1    2    0    0  0.80103197025E+02  0.28395493703E+02 -0.47606573128E+02  0.13000821525E+03  0.86098339081E+02 0.  0.
        -13    1    3    3    0    0 -0.11700702097E+02 -0.32768842725E+02  0.20736541867E+02  0.40505649627E+02  0.00000000000E+00 0.  1.
         13    1    3    3    0    0 -0.93427061358E+02  0.38149406802E+02  0.12924261083E+03  0.16397452695E+03  0.00000000000E+00 0. -1.
        -13    1    4    4    0    0  0.27294854562E+02 -0.10592755686E+02  0.20249215500E+02  0.35598402871E+02  0.00000000000E+00 0. -1.
         13    1    4    4    0    0  0.52808342463E+02  0.38988249389E+02 -0.67855788627E+02  0.94409812384E+02  0.00000000000E+00 0.  1.
          1    1    1    2  501    0  0.25024566429E+02 -0.33776057781E+02  0.25255323735E+02  0.49039600132E+02  0.00000000000E+00 0. -1.
<scales pt_clust_5="13000.00000" pt_clust_6="13000.00000" pt_clust_7="13000.00000" pt_clust_8="13000.00000" pt_clust_9="42.03633"></scales>
<clustering>
<clus scale="   42.036">  2  9  1 -1</clus>
<clus scale="   86.098">  7  8 -1 -1</clus>
<clus scale="   90.761">  5  6 -1 -1</clus>
<clus scale="  131.417">  2  7  1 -1</clus>
<clus scale="   42.036">  2  5  1 -1</clus>
</clustering>
</event>
<event>
 9    1  0.1636528E-005  0.1009275E+03  0.7546771E-02  0.1280481E+00
         -1   -1    0    0    0  501 -0.00000000000E+00  0.00000000000E+00  0.13725802454E+03  0.13725802454E+03  0.00000000000E+00 0.  1.
         21   -1    0    0  501  502  0.00000000000E+00 -0.00000000000E+00 -0.43721267901E+03  0.43721267901E+03  0.00000000000E+00 0.  1.
         23    2    1    2    0    0 -0.31633492982E+02  0.13899483974E+02  0.10038228284E+03  0.13929810242E+03  0.90185836450E+02 0.  0.
         23    2    1    2    0    0  0.33446686519E+02 -0.54977511096E+02 -0.35944286490E+03  0.37718107467E+03  0.94473183491E+02 0.  0.
        -11    1    4    4    0    0  0.48229615978E+02  0.66634115692E+01 -0.19383537986E+03  0.19985657706E+03  0.00000000000E+00 0.  1.
         11    1    4    4    0    0 -0.14782929459E+02 -0.61640922665E+02 -0.16560748504E+03  0.17732449760E+03  0.00000000000E+00 0. -1.
        -13    1    3    3    0    0 -0.23819691833E+02  0.34581784999E+02  0.10802964512E+03  0.11590376093E+03  0.00000000000E+00 0.  1.
         13    1    3    3    0    0 -0.78138011489E+01 -0.20682301026E+02 -0.76473622756E+01  0.23394341493E+02  0.00000000000E+00 0. -1.
         -1    1    1    2    0  502 -0.18131935376E+01  0.41078027122E+02 -0.40894072416E+02  0.57991526466E+02  0.00000000000E+00 0.  1.
<scales pt_clust_5="13000.00000" pt_clust_6="13000.00000" pt_clust_7="13000.00000" pt_clust_8="13000.00000" pt_clust_9="41.11803"></scales>
<clustering>
<clus scale="   41.118">  2  9  1 -1</clus>
<clus scale="   90.186">  7  8 -1 -1</clus>
<clus scale="   94.473">  5  6 -1 -1</clus>
<clus scale="   96.926">  1  7  2 -1</clus>
<clus scale="   41.118">  2  5  1 -1</clus>
</clustering>
</event>
<event>
 9    1  0.1636528E-005  0.1010641E+03  0.7546771E-02  0.1278943E+00
         21   -1    0    0  501  502  0.00000000000E+00  0.00000000000E+00  0.64762759187E+02  0.64762759187E+02  0.00000000000E+00 0. -1.
          1   -1    0    0  502    0 -0.00000000000E+00 -0.00000000000E+00 -0.34556898583E+03  0.34556898583E+03  0.00000000000E+00 0. -1.
         23    2    1    2    0    0  0.49308367658E+02  0.17994294593E+02 -0.17945111488E+03  0.20838212673E+03  0.92007055978E+02 0.  0.
         23    2    1    2    0    0 -0.13266939474E+02 -0.35338915296E+02 -0.12248390779E+03  0.15671416279E+03  0.90178548070E+02 0.  0.
        -13    1    3    3    0    0  0.26716391352E+02 -0.30852656949E+02 -0.33421139974E+02  0.52750588668E+02  0.00000000000E+00 0. -1.
         13    1    3    3    0    0  0.22591976306E+02  0.48846951542E+02 -0.14602997490E+03  0.15563153806E+03  0.00000000000E+00 0.  1.
        -13    1    4    4    0    0  0.11324641684E+02 -0.30434534817E+02 -0.12712972409E+03  0.13121156643E+03  0.00000000000E+00 0. -1.
         13    1    4    4    0    0 -0.24591581157E+02 -0.49043804785E+01  0.46458162952E+01  0.25502596353E+02  0.00000000000E+00 0.  1.
          1    1    1    2  501    0 -0.36041428184E+02  0.17344620702E+02  0.21128796029E+02  0.45235455502E+02  0.00000000000E+00 0. -1.
<scales pt_clust_5="13000.00000" pt_clust_6="13000.00000" pt_clust_7="13000.00000" pt_clust_8="13000.00000" pt_clust_9="39.99776"></scales>
<clustering>
<clus scale="   39.998">  1  9  2 -1</clus>
<clus scale="   90.179">  7  8 -1 -1</clus>
<clus scale="   92.007">  5  6 -1 -1</clus>
<clus scale="   99.402">  1  7  2 -1</clus>
<clus scale="   39.998">  1  5  2 -1</clus>
</clustering>
</event>
<event>
 9    1  0.1636528E-005  0.1988782E+03  0.7546771E-02  0.1167749E+00
         21   -1    0    0  501  502  0.00000000000E+00  0.00000000000E+00  0.56740181610E+03  0.56740181610E+03  0.00000000000E+00 0. -1.
          1   -1    0    0  502    0 -0.00000000000E+00 -0.00000000000E+00 -0.16287167283E+03  0.16287167283E+03  0.00000000000E+00 0. -1.
         23    2    1    2    0    0  0.97100739826E+02  0.65907290966E+01 -0.13959690223E+02  0.13434554667E+03  0.91552507203E+02 0.  0.
         23    2    1    2    0    0  0.91539805631E+02 -0.73847371167E+02  0.20401313702E+02  0.15030121405E+03  0.91330559514E+02 0.  0.
        -11    1    4    4    0    0 -0.10423675314E+02 -0.24143582682E+02 -0.16466221262E+02  0.31027440024E+02  0.00000000000E+00 0.  1.
         11    1    4    4    0    0  0.10196348095E+03 -0.49703788485E+02  0.36867534964E+02  0.11927377403E+03  0.00000000000E+00 0. -1.
        -11    1    3    3    0    0  0.38315972177E+02 -0.13480352332E+01  0.39098792042E+02  0.54759898301E+02  0.00000000000E+00 0.  1.
         11    1    3    3    0    0  0.58784767650E+02  0.79387643299E+01 -0.53058482264E+02  0.79585648373E+02  0.00000000000E+00 0. -1.
          1    1    1    2  501    0 -0.18864054546E+03  0.67256642071E+02  0.39808851980E+03  0.44562672820E+03  0.00000000000E+00 0. -1.
<scales pt_clust_5="13000.00000" pt_clust_6="13000.00000" pt_clust_7="13000.00000" pt_clust_8="13000.00000" pt_clust_9="176.66710"></scales>
<clustering>
<clus scale="   91.331">  5  6 -1 -1</clus>
<clus scale="   91.553">  7  8 -1 -1</clus>
<clus scale="  133.618">  2  7  1 -1</clus>
<clus scale="  176.667">  1  9  2 -1</clus>
<clus scale="  176.667">  1  5  2 -1</clus>
</clustering>
</event>
<event>
 9    1  0.1636528E-005  0.1230960E+03  0.7546771E-02  0.1238105E+00
         -1   -1    0    0    0  501 -0.00000000000E+00  0.00000000000E+00  0.11925262344E+03  0.11925262344E+03  0.00000000000E+00 0.  1.
         21   -1    0    0  501  502  0.00000000000E+00 -0.00000000000E+00 -0.30907090108E+03  0.30907090108E+03  0.00000000000E+00 0.  1.
         23    2    1    2    0    0  0.86879202390E+02 -0.22716481707E+02  0.39622188749E+02  0.13345014830E+03  0.90415650699E+02 0.  0.
         23    2    1    2    0    0 -0.58424208871E+02  0.43517448666E+02 -0.79038489535E+02  0.14039644743E+03  0.90315685810E+02 0.  0.
        -11    1    4    4    0    0  0.20415144064E+02 -0.36258110563E+01 -0.29420790185E+02  0.35993159184E+02  0.00000000000E+00 0.  1.
         11    1    4    4    0    0 -0.78839352935E+02  0.47143259722E+02 -0.49617699351E+02  0.10440328825E+03  0.00000000000E+00 0. -1.
        -13    1    3    3    0    0  0.12088660253E+02 -0.21897412631E+02  0.51938786091E+02  0.57647809041E+02  0.00000000000E+00 0.  1.
         13    1    3    3    0    0  0.74790542137E+02 -0.81906907596E+00 -0.12316597342E+02  0.75802339261E+02  0.00000000000E+00 0. -1.
         -1    1    1    2    0  502 -0.28454993520E+02 -0.20800966959E+02 -0.15040197686E+03  0.15447692878E+03  0.00000000000E+00 0.  1.
<scales pt_clust_5="13000.00000" pt_clust_6="13000.00000" pt_clust_7="13000.00000" pt_clust_8="13000.00000" pt_clust_9="35.24723"></scales>
<clustering>
<clus scale="   35.247">  2  9  1 -1</clus>
<clus scale="   90.316">  5  6 -1 -1</clus>
<clus scale="   90.416">  7  8 -1 -1</clus>
<clus scale="  123.023">  2  5  1 -1</clus>
<clus scale="   35.247">  2  5  1 -1</clus>
</clustering>
</event>
<event>
 9    1  0.1636528E-005  0.1246244E+03  0.7546771E-02  0.1236240E+00
         21   -1    0    0  501  502  0.00000000000E+00  0.00000000000E+00  0.94120003808E+02  0.94120003808E+02  0.00000000000E+00 0.  1.
         -3   -1    0    0    0  501 -0.00000000000E+00 -0.00000000000E+00 -0.27080423444E+03  0.27080423444E+03  0.00000000000E+00 0.  1.
         23    2    1    2    0    0  0.63563469051E+02 -0.20964090734E+02 -0.77493598274E+02  0.13525389954E+03  0.88366010829E+02 0.  0.
         23    2    1    2    0    0 -0.10870252581E+03  0.10373598989E+02 -0.11300044155E+03  0.18129261873E+03  0.90410525615E+02 0.  0.
        -11    1    3    3    0    0  0.15118779273E+00 -0.32283890504E+02  0.26959628585E+01  0.32396614939E+02  0.00000000000E+00 0. -1.
         11    1    3    3    0    0  0.63412281258E+02  0.11319799770E+02 -0.80189561133E+02  0.10285728460E+03  0.00000000000E+00 0.  1.
        -13    1    4    4    0    0 -0.11176504932E+03 -0.11669299280E+02 -0.11253412964E+03  0.15903310703E+03  0.00000000000E+00 0.  1.
         13    1    4    4    0    0  0.30625235171E+01  0.22042898269E+02 -0.46631190751E+00  0.22259511701E+02  0.00000000000E+00 0. -1.
         -3    1    1    2    0  502  0.45139056757E+02  0.10590491745E+02  0.13809809193E+02  0.48377719978E+02  0.00000000000E+00 0.  1.
<scales pt_clust_5="13000.00000" pt_clust_6="13000.00000" pt_clust_7="13000.00000" pt_clust_8="13000.00000" pt_clust_9="46.36478"></scales>
<clustering>
<clus scale="   46.365">  1  9  2 -1</clus>
<clus scale="   88.366">  5  6 -1 -1</clus>
<clus scale="   90.411">  7  8 -1 -1</clus>
<clus scale="  123.149">  2  5  1 -1</clus>
<clus scale="   46.365">  1  5  2 -1</clus>
</clustering>
</event>
<event>
 9    1  0.1636528E-005  0.1008087E+03  0.7546771E-02  0.1281771E+00
         21   -1    0    0  501  502  0.00000000000E+00  0.00000000000E+00  0.42358341268E+03  0.42358341268E+03  0.00000000000E+00 0.  1.
          2   -1    0    0  502    0 -0.00000000000E+00 -0.00000000000E+00 -0.33814026745E+02  0.33814026745E+02  0.00000000000E+00 0. -1.
         23    2    1    2    0    0 -0.43548554179E+02 -0.78598293176E+01  0.10947023669E+03  0.14668693302E+03  0.87034878704E+02 0.  0.
         23    2    1    2    0    0  0.19854008657E+02  0.29073573134E+02  0.18465994025E+03  0.20992205115E+03  0.93426547147E+02 0.  0.
        -11    1    4    4    0    0  0.22583202144E+02  0.59726863027E+02  0.15290175245E+03  0.16569926098E+03  0.00000000000E+00 0.  1.
         11    1    4    4    0    0 -0.27291934871E+01 -0.30653289893E+02  0.31758187797E+02  0.44222790171E+02  0.00000000000E+00 0. -1.
        -13    1    3    3    0    0 -0.95181394776E+01  0.24923550626E+02 -0.82913562836E+00  0.26692055388E+02  0.00000000000E+00 0. -1.
         13    1    3    3    0    0 -0.34030414702E+02 -0.32783379944E+02  0.11029937232E+03  0.11999487763E+03  0.00000000000E+00 0.  1.
          2    1    1    2  501    0  0.23694545522E+02 -0.21213743816E+02  0.95639209003E+02  0.10078845526E+03  0.00000000000E+00 0. -1.
<scales pt_clust_5="13000.00000" pt_clust_6="13000.00000" pt_clust_7="13000.00000" pt_clust_8="13000.00000" pt_clust_9="31.80337"></scales>
<clustering>
<clus scale="   31.803">  1  9  2 -1</clus>
<clus scale="   87.035">  7  8 -1 -1</clus>
<clus scale="   93.427">  5  6 -1 -1</clus>
<clus scale="   94.916">  2  7  1 -1</clus>
<clus scale="   31.803">  1  5  2 -1</clus>
</clustering>
</event>
<event>
 9    1  0.1636528E-005  0.1322439E+03  0.7546771E-02  0.1230401E+00
          2   -1    0    0  502    0 -0.00000000000E+00  0.00000000000E+00  0.85705409867E+03  0.85705409867E+03  0.00000000000E+00 0. -1.
         21   -1    0    0  501  502  0.00000000000E+00 -0.00000000000E+00 -0.42517212522E+02  0.42517212522E+02  0.00000000000E+00 0. -1.
         23    2    1    2    0    0 -0.68356697476E+02 -0.15796684139E+02  0.30402611925E+03  0.32459296491E+03  0.89479262197E+02 0.  0.
         23    2    1    2    0    0  0.12752260587E+03 -0.22549348411E+02  0.47427177666E+03  0.49570484919E+03  0.63396303179E+02 0.  0.
        -11    1    4    4    0    0  0.23227396239E+02  0.27783965757E+01  0.26944867811E+02  0.35682731466E+02  0.00000000000E+00 0.  1.
         11    1    4    4    0    0  0.10429520963E+03 -0.25327744987E+02  0.44732690884E+03  0.46002211772E+03  0.00000000000E+00 0. -1.
        -11    1    3    3    0    0 -0.57568944190E+02  0.31202609040E+02  0.17417390761E+03  0.18607615709E+03  0.00000000000E+00 0.  1.
         11    1    3    3    0    0 -0.10787753286E+02 -0.46999293179E+02  0.12985221164E+03  0.13851680782E+03  0.00000000000E+00 0. -1.
          2    1    1    2  501    0 -0.59165908389E+02  0.38346032551E+02  0.36238990247E+02  0.79273497097E+02  0.00000000000E+00 0. -1.
<scales pt_clust_5="13000.00000" pt_clust_6="13000.00000" pt_clust_7="13000.00000" pt_clust_8="13000.00000" pt_clust_9="70.50548"></scales>
<clustering>
<clus scale="   63.396">  5  6 -1 -1</clus>
<clus scale="   70.505">  2  9  1 -1</clus>
<clus scale="   89.479">  7  8 -1 -1</clus>
<clus scale="  116.194">  2  5  1 -1</clus>
<clus scale="   70.505">  2  5  1 -1</clus>
</clustering>
</event>
<event>
 9    1  0.1636528E-005  0.1094725E+03  0.7546771E-02  0.1261833E+00
          1   -1    0    0  502    0 -0.00000000000E+00  0.00000000000E+00  0.20017620263E+03  0.20017620263E+03  0.00000000000E+00 0. -1.
         21   -1    0    0  501  502  0.00000000000E+00 -0.00000000000E+00 -0.13710299032E+03  0.13710299032E+03  0.00000000000E+00 0.  1.
         23    2    1    2    0    0 -0.28245286887E+02  0.45322523153E+02  0.13160961870E+03  0.16933008542E+03  0.92193593898E+02 0.  0.
         23    2    1    2    0    0  0.44448287242E+02 -0.68810010430E+02 -0.62676747576E+02  0.13881948549E+03  0.92908595355E+02 0.  0.
        -11    1    3    3    0    0  0.29143662610E+02  0.75696645515E+01  0.14176147032E+02  0.33280865920E+02  0.00000000000E+00 0.  1.
         11    1    3    3    0    0 -0.57388949497E+02  0.37752858601E+02  0.11743347167E+03  0.13604921950E+03  0.00000000000E+00 0. -1.
        -11    1    4    4    0    0 -0.22414031702E+01 -0.35981221866E+02  0.17761642814E+02  0.40188906064E+02  0.00000000000E+00 0. -1.
         11    1    4    4    0    0  0.46689690412E+02 -0.32828788564E+02 -0.80438390390E+02  0.98630579426E+02  0.00000000000E+00 0.  1.
          1    1    1    2  501    0 -0.16203000355E+02  0.23487487277E+02 -0.58596588157E+01  0.29129622046E+02  0.00000000000E+00 0. -1.
<scales pt_clust_5="13000.00000" pt_clust_6="13000.00000" pt_clust_7="13000.00000" pt_clust_8="13000.00000" pt_clust_9="28.53418"></scales>
<clustering>
<clus scale="   28.534">  2  9  1 -1</clus>
<clus scale="   92.194">  5  6 -1 -1</clus>
<clus scale="   92.909">  7  8 -1 -1</clus>
<clus scale="  108.866">  1  5  2 -1</clus>
<clus scale="   28.534">  2  5  1 -1</clus>
</clustering>
</event>
<event>
 9    1  0.1636528E-005  0.1187575E+03  0.7546771E-02  0.1247506E+00
          1   -1    0    0  502    0 -0.00000000000E+00  0.00000000000E+00  0.37110882839E+03  0.37110882839E+03  0.00000000000E+00 0. -1.
         21   -1    0    0  501  502  0.00000000000E+00 -0.00000000000E+00 -0.24813632173E+03  0.24813632173E+03  0.00000000000E+00 0. -1.
         23    2    1    2    0    0  0.37201169937E+02  0.49593881324E+02  0.25326532494E+03  0.27590901258E+03  0.90216286221E+02 0.  0.
         23    2    1    2    0    0 -0.65560795060E+02 -0.67564050713E+02  0.61589178498E+02  0.14853907388E+03  0.96992323216E+02 0.  0.
        -13    1    3    3    0    0  0.13145755723E+02  0.69388525235E+02  0.21645990306E+03  0.22768941117E+03  0.00000000000E+00 0.  1.
         13    1    3    3    0    0  0.24055414214E+02 -0.19794643910E+02  0.36805421878E+02  0.48219601410E+02  0.00000000000E+00 0. -1.
        -13    1    4    4    0    0 -0.98031044859E+01  0.24335606156E+02  0.21124238029E+02  0.33683171122E+02  0.00000000000E+00 0.  1.
         13    1    4    4    0    0 -0.55757690574E+02 -0.91899656869E+02  0.40464940469E+02  0.11485590276E+03  0.00000000000E+00 0. -1.
          1    1    1    2  501    0  0.28359625123E+02  0.17970169388E+02 -0.19188199678E+03  0.19479706366E+03  0.00000000000E+00 0. -1.
<scales pt_clust_5="13000.00000" pt_clust_6="13000.00000" pt_clust_7="13000.00000" pt_clust_8="13000.00000" pt_clust_9="33.57373"></scales>
<clustering>
<clus scale="   33.574">  2  9  1 -1</clus>
<clus scale="   90.216">  5  6 -1 -1</clus>
<clus scale="   96.992">  7  8 -1 -1</clus>
<clus scale="  113.291">  1  5  2 -1</clus>
<clus scale="   33.574">  2  5  1 -1</clus>
</clustering>
</event>
<event>
 9    1  0.1830923E-005  0.1360602E+03  0.7546771E-02  0.1219073E+00
         21   -1    0    0  501  502  0.00000000000E+00  0.00000000000E+00  0.63765616499E+03  0.63765616499E+03  0.00000000000E+00 0. -1.
         -1   -1    0    0    0  501 -0.00000000000E+00 -0.00000000000E+00 -0.27567674935E+03  0.27567674935E+03  0.00000000000E+00 0.  1.
         23    2    1    2    0    0 -0.93275383820E+02 -0.39663586670E+02 -0.24075150147E+03  0.27636744260E+03  0.90245113632E+02 0.  0.
         23    2    1    2    0    0  0.60101574995E+02  0.77764868617E+02  0.28339332074E+03  0.31365647135E+03  0.91700783369E+02 0.  0.
        -13    1    3    3    0    0 -0.35681315339E+02 -0.14657021625E+02 -0.13924806495E+02  0.41010788619E+02  0.00000000000E+00 0. -1.
         13    1    3    3    0    0 -0.57594068481E+02 -0.25006565045E+02 -0.22682669497E+03  0.23535665398E+03  0.00000000000E+00 0.  1.
        -13    1    4    4    0    0  0.68198354922E+02  0.16197494030E+02  0.12161212091E+03  0.14036695615E+03  0.00000000000E+00 0.  1.
         13    1    4    4    0    0 -0.80967799273E+01  0.61567374587E+02  0.16178119983E+03  0.17328951520E+03  0.00000000000E+00 0. -1.
         -1    1    1    2    0  502  0.33173808825E+02 -0.38101281947E+02  0.31933759637E+03  0.32330900039E+03  0.00000000000E+00 0.  1.
<scales pt_clust_5="13000.00000" pt_clust_6="13000.00000" pt_clust_7="13000.00000" pt_clust_8="13000.00000" pt_clust_9="50.51940"></scales>
<clustering>
<clus scale="   50.519">  1  9  2 -1</clus>
<clus scale="   90.245">  5  6 -1 -1</clus>
<clus scale="   91.701">  7  8 -1 -1</clus>
<clus scale="  135.083">  2  5  1 -1</clus>
<clus scale="   50.519">  1  5  2 -1</clus>
</clustering>
</event>
<event>
 9    1  0.1636528E-005  0.9955344E+02  0.7546771E-02  0.1283919E+00
         21   -1    0    0  501  502  0.00000000000E+00  0.00000000000E+00  0.22547997671E+02  0.22547997671E+02  0.00000000000E+00 0.  1.
          2   -1    0    0  502    0 -0.00000000000E+00 -0.00000000000E+00 -0.72948705175E+03  0.72948705175E+03  0.00000000000E+00 0. -1.
         23    2    1    2    0    0  0.23173104209E+02  0.21816748582E+02 -0.36361094532E+03  0.37635813228E+03  0.91758165320E+02 0.  0.
         23    2    1    2    0    0 -0.58090786848E+02 -0.10411294725E+02 -0.17932913936E+03  0.20761445583E+03  0.86382217318E+02 0.  0.
        -11    1    3    3    0    0 -0.16628656694E+02 -0.28138200978E+02 -0.10457743157E+03  0.10956600646E+03  0.00000000000E+00 0.  1.
         11    1    3    3    0    0  0.39801760903E+02  0.49954949560E+02 -0.25903351375E+03  0.26679212582E+03  0.00000000000E+00 0. -1.
        -13    1    4    4    0    0 -0.32533624764E+02 -0.36485272685E+02 -0.38772434157E+02  0.62393216888E+02  0.00000000000E+00 0.  1.
         13    1    4    4    0    0 -0.25557162085E+02  0.26073977960E+02 -0.14055670520E+03  0.14522123894E+03  0.00000000000E+00 0. -1.
          2    1    1    2  501    0  0.34917682640E+02 -0.11405453857E+02 -0.16399896940E+03  0.16806246132E+03  0.00000000000E+00 0. -1.
<scales pt_clust_5="13000.00000" pt_clust_6="13000.00000" pt_clust_7="13000.00000" pt_clust_8="13000.00000" pt_clust_9="36.73323"></scales>
<clustering>
<clus scale="   36.733">  1  9  2 -1</clus>
<clus scale="   86.382">  7  8 -1 -1</clus>
<clus scale="   91.758">  5  6 -1 -1</clus>
<clus scale="   94.621">  1  7  2 -1</clus>
<clus scale="   36.733">  1  5  2 -1</clus>
</clustering>
</event>
<event>
 9    1  0.1636528E-005  0.3835960E+03  0.7546771E-02  0.1049616E+00
         21   -1    0    0  501  502  0.00000000000E+00  0.00000000000E+00  0.35735267977E+03  0.35735267977E+03  0.00000000000E+00 0. -1.
          1   -1    0    0  502    0 -0.00000000000E+00 -0.00000000000E+00 -0.62124013710E+03  0.62124013710E+03  0.00000000000E+00 0. -1.
         23    2    1    2    0    0 -0.18731521351E+03 -0.33024808985E+03 -0.21023144856E+03  0.44370972916E+03  0.92359470163E+02 0.  0.
         23    2    1    2    0    0  0.26769910733E+03  0.25411878324E+03  0.49295992483E+02  0.38369989991E+03  0.92500541898E+02 0.  0.
        -13    1    3    3    0    0 -0.81344738811E-01 -0.67015151805E+02 -0.26343574970E+02  0.72007090835E+02  0.00000000000E+00 0.  1.
         13    1    3    3    0    0 -0.18723386877E+03 -0.26323293805E+03 -0.18388787359E+03  0.37170263833E+03  0.00000000000E+00 0. -1.
        -13    1    4    4    0    0  0.10838940550E+03  0.10159140082E+03 -0.25660261205E+02  0.15075650882E+03  0.00000000000E+00 0. -1.
         13    1    4    4    0    0  0.15930970183E+03  0.15252738242E+03  0.74956253688E+02  0.23294339109E+03  0.00000000000E+00 0.  1.
          1    1    1    2  501    0 -0.80383893826E+02  0.76129306609E+02 -0.10295200125E+03  0.15118318780E+03  0.00000000000E+00 0. -1.
<scales pt_clust_5="13000.00000" pt_clust_6="13000.00000" pt_clust_7="13000.00000" pt_clust_8="13000.00000" pt_clust_9="110.71248"></scales>
<clustering>
<clus scale="   92.359">  5  6 -1 -1</clus>
<clus scale="   92.501">  7  8 -1 -1</clus>
<clus scale="  110.712">  1  9  2 -1</clus>
<clus scale="  383.562">  2  5  1 -1</clus>
<clus scale="  110.712">  1  5  2 -1</clus>
</clustering>
</event>
<event>
 9    1  0.1636528E-005  0.9639568E+02  0.7546771E-02  0.1291379E+00
         -1   -1    0    0    0  501 -0.00000000000E+00  0.00000000000E+00  0.16049037364E+03  0.16049037364E+03  0.00000000000E+00 0.  1.
         21   -1    0    0  501  502  0.00000000000E+00 -0.00000000000E+00 -0.15321610471E+03  0.15321610471E+03  0.00000000000E+00 0.  1.
         23    2    1    2    0    0  0.79544796498E+01 -0.24221817737E+02  0.95457172536E+02  0.13039757327E+03  0.85096916067E+02 0.  0.
         23    2    1    2    0    0  0.17043517964E+02  0.61791822215E+02 -0.43199791595E+02  0.11959167439E+03  0.91253689204E+02 0.  0.
        -13    1    4    4    0    0 -0.30718986375E+02 -0.16098750435E+01 -0.38703878271E+01  0.31003672742E+02  0.00000000000E+00 0. -1.
         13    1    4    4    0    0  0.47762504339E+02  0.63401697259E+02 -0.39329403768E+02  0.88588001652E+02  0.00000000000E+00 0.  1.
        -13    1    3    3    0    0 -0.15701075633E+02 -0.50823392162E+02  0.59148967642E+02  0.79549615587E+02  0.00000000000E+00 0.  1.
         13    1    3    3    0    0  0.23655555283E+02  0.26601574424E+02  0.36308204894E+02  0.50847957680E+02  0.00000000000E+00 0. -1.
         -1    1    1    2    0  502 -0.24997997614E+02 -0.37570004478E+02 -0.44983112012E+02  0.63717230695E+02  0.00000000000E+00 0.  1.
<scales pt_clust_5="13000.00000" pt_clust_6="13000.00000" pt_clust_7="13000.00000" pt_clust_8="13000.00000" pt_clust_9="45.12655"></scales>
<clustering>
<clus scale="   45.127">  2  9  1 -1</clus>
<clus scale="   85.097">  7  8 -1 -1</clus>
<clus scale="   90.589">  1  7  2 -1</clus>
<clus scale="   91.254">  5  6 -1 -1</clus>
<clus scale="   45.127">  2  5  1 -1</clus>
</clustering>
</event>
<event>
 9    1  0.1636528E-005  0.1379385E+03  0.7546771E-02  0.1218261E+00
         21   -1    0    0  501  502  0.00000000000E+00  0.00000000000E+00  0.21051010284E+03  0.21051010284E+03  0.00000000000E+00 0. -1.
          1   -1    0    0  502    0 -0.00000000000E+00 -0.00000000000E+00 -0.21796534104E+03  0.21796534104E+03  0.00000000000E+00 0. -1.
         23    2    1    2    0    0 -0.59841893609E+02 -0.73785510406E+02 -0.70703256246E+02  0.15012395912E+03  0.92265372055E+02 0.  0.
         23    2    1    2    0    0  0.41376914661E+02  0.85140177740E+02 -0.61810619516E+02  0.15142809547E+03  0.10074232716E+03 0.  0.
        -13    1    3    3    0    0 -0.71537079695E+02 -0.33159257697E+02 -0.15111849685E+02  0.80283610676E+02  0.00000000000E+00 0.  1.
         13    1    3    3    0    0  0.11695186086E+02 -0.40626252709E+02 -0.55591406561E+02  0.69840348440E+02  0.00000000000E+00 0. -1.
        -13    1    4    4    0    0  0.13753319780E+02  0.18619041138E+02  0.27982203892E+02  0.36315647214E+02  0.00000000000E+00 0.  1.
         13    1    4    4    0    0  0.27623594881E+02  0.66521136602E+02 -0.89792823408E+02  0.11511244826E+03  0.00000000000E+00 0. -1.
          1    1    1    2  501    0  0.18464978948E+02 -0.11354667334E+02  0.12505863757E+03  0.12692338929E+03  0.00000000000E+00 0. -1.
<scales pt_clust_5="13000.00000" pt_clust_6="13000.00000" pt_clust_7="13000.00000" pt_clust_8="13000.00000" pt_clust_9="21.67681"></scales>
<clustering>
<clus scale="   21.677">  1  9  2 -1</clus>
<clus scale="   92.265">  5  6 -1 -1</clus>
<clus scale="  100.742">  7  8 -1 -1</clus>
<clus scale="  131.875">  2  5  1 -1</clus>
<clus scale="   21.677">  1  5  2 -1</clus>
</clustering>
</event>
<event>
 9    1  0.1636528E-005  0.2594993E+03  0.7546771E-02  0.1107458E+00
         -2   -1    0    0    0  501 -0.00000000000E+00  0.00000000000E+00  0.26403005172E+03  0.26403005172E+03  0.00000000000E+00 0.  1.
         21   -1    0    0  501  502  0.00000000000E+00 -0.00000000000E+00 -0.45632492202E+03  0.45632492202E+03  0.00000000000E+00 0.  1.
         23    2    1    2    0    0 -0.11307747275E+03  0.19734183753E+03  0.53350322021E+02  0.25071256811E+03  0.90995710146E+02 0.  0.
         23    2    1    2    0    0  0.74713332665E+02 -0.28295627751E+03 -0.18450141960E+03  0.35765936888E+03  0.90736504542E+02 0.  0.
        -11    1    4    4    0    0 -0.83166204256E+01 -0.62726431731E+02 -0.74840514119E+02  0.98004458911E+02  0.00000000000E+00 0.  1.
         11    1    4    4    0    0  0.83029953090E+02 -0.22022984578E+03 -0.10966090548E+03  0.25965490997E+03  0.00000000000E+00 0. -1.
        -13    1    3    3    0    0 -0.85895394543E+02  0.99181116855E+02  0.68049309508E+02  0.14780264297E+03  0.00000000000E+00 0.  1.
         13    1    3    3    0    0 -0.27182078209E+02  0.98160720678E+02 -0.14698987487E+02  0.10290992514E+03  0.00000000000E+00 0. -1.
         -2    1    1    2    0  502  0.38364140087E+02  0.85614439974E+02 -0.61143772727E+02  0.11198303675E+03  0.00000000000E+00 0.  1.
<scales pt_clust_5="13000.00000" pt_clust_6="13000.00000" pt_clust_7="13000.00000" pt_clust_8="13000.00000" pt_clust_9="93.81705"></scales>
<clustering>
<clus scale="   90.737">  5  6 -1 -1</clus>
<clus scale="   90.996">  7  8 -1 -1</clus>
<clus scale="   93.817">  2  9  1 -1</clus>
<clus scale="  259.409">  2  5  1 -1</clus>
<clus scale="   93.817">  2  5  1 -1</clus>
</clustering>
</event>
<event>
 9    1  0.1636528E-005  0.1428134E+03  0.7546771E-02  0.1210547E+00
         21   -1    0    0  501  502  0.00000000000E+00  0.00000000000E+00  0.28530092738E+03  0.28530092738E+03  0.00000000000E+00 0.  1.
         -2   -1    0    0    0  501 -0.00000000000E+00 -0.00000000000E+00 -0.41920975674E+03  0.41920975674E+03  0.00000000000E+00 0.  1.
         23    2    1    2    0    0 -0.82261816641E+01  0.12544847932E+03 -0.22759670161E+03  0.27756635542E+03  0.97148505139E+02 0.  0.
         23    2    1    2    0    0 -0.30389944373E+02 -0.82643148325E+02 -0.13799274963E+03  0.18819883218E+03  0.92862063297E+02 0.  0.
        -13    1    4    4    0    0  0.28151022216E+02 -0.21826795414E+01 -0.35355589524E+02  0.45246677805E+02  0.00000000000E+00 0. -1.
         13    1    4    4    0    0 -0.58540966589E+02 -0.80460468784E+02 -0.10263716011E+03  0.14295215438E+03  0.00000000000E+00 0.  1.
        -13    1    3    3    0    0  0.12118945297E+02  0.13467263813E+03 -0.18138876534E+03  0.22624206613E+03  0.00000000000E+00 0.  1.
         13    1    3    3    0    0 -0.20345126962E+02 -0.92241588107E+01 -0.46207936275E+02  0.51324289295E+02  0.00000000000E+00 0. -1.
         -2    1    1    2    0  502  0.38616126037E+02 -0.42805330995E+02  0.23168062188E+03  0.23874549652E+03  0.00000000000E+00 0.  1.
<scales pt_clust_5="13000.00000" pt_clust_6="13000.00000" pt_clust_7="13000.00000" pt_clust_8="13000.00000" pt_clust_9="57.64982"></scales>
<clustering>
<clus scale="   57.650">  1  9  2 -1</clus>
<clus scale="   92.862">  5  6 -1 -1</clus>
<clus scale="   97.149">  7  8 -1 -1</clus>
<clus scale="  139.933">  1  5  2 -1</clus>
<clus scale="   57.650">  1  5  2 -1</clus>
</clustering>
</event>
<event>
 9    1  0.1636528E-005  0.2016071E+03  0.7546771E-02  0.1149455E+00
          2   -1    0    0  502    0 -0.00000000000E+00  0.00000000000E+00  0.63871489770E+03  0.63871489770E+03  0.00000000000E+00 0. -1.
         21   -1    0    0  501  502  0.00000000000E+00 -0.00000000000E+00 -0.12648467044E+03  0.12648467044E+03  0.00000000000E+00 0. -1.
         23    2    1    2    0    0  0.20495857544E+03 -0.28469531297E+00  0.25897176441E+03  0.34294224029E+03  0.92384558855E+02 0.  0.
         23    2    1    2    0    0 -0.12990179565E+03 -0.12113067025E+03  0.14583024275E+03  0.24360673687E+03  0.80812540841E+02 0.  0.
        -11    1    4    4    0    0 -0.91906275666E+02 -0.89292186038E+02  0.14570413231E+03  0.19403492512E+03  0.00000000000E+00 0.  1.
         11    1    4    4    0    0 -0.37995519988E+02 -0.31838484208E+02  0.12611044078E+00  0.49571811745E+02  0.00000000000E+00 0. -1.
        -11    1    3    3    0    0  0.90926784919E+02  0.95418666921E+01  0.18585933673E+03  0.20712899479E+03  0.00000000000E+00 0.  1.
         11    1    3    3    0    0  0.11403179052E+03 -0.98265620051E+01  0.73112427684E+02  0.13581324550E+03  0.00000000000E+00 0. -1.
          2    1    1    2  501    0 -0.75056779785E+02  0.12141536556E+03  0.10742822009E+03  0.17865059098E+03  0.00000000000E+00 0. -1.
<scales pt_clust_5="13000.00000" pt_clust_6="13000.00000" pt_clust_7="13000.00000" pt_clust_8="13000.00000" pt_clust_9="142.74176"></scales>
<clustering>
<clus scale="   80.813">  5  6 -1 -1</clus>
<clus scale="   92.385">  7  8 -1 -1</clus>
<clus scale="  142.742">  2  9  1 -1</clus>
<clus scale="  196.574">  2  5  1 -1</clus>
<clus scale="  142.742">  2  5  1 -1</clus>
</clustering>
</event>
<event>
 9    1  0.1636528E-005  0.1261620E+03  0.7546771E-02  0.1233621E+00
         21   -1    0    0  501  502  0.00000000000E+00  0.00000000000E+00  0.52447168871E+03  0.52447168871E+03  0.00000000000E+00 0. -1.
         -4   -1    0    0    0  501 -0.00000000000E+00 -0.00000000000E+00 -0.72575855803E+02  0.72575855803E+02  0.00000000000E+00 0.  1.
         23    2    1    2    0    0  0.75070967695E+01  0.96507124856E+02  0.41212435923E+02  0.13967530395E+03  0.91873521811E+02 0.  0.
         23    2    1    2    0    0 -0.33809734360E+02 -0.40207057964E+02  0.36637830455E+03  0.38105404160E+03  0.90605821720E+02 0.  0.
        -11    1    4    4    0    0  0.24897636712E+02 -0.66611254857E+01  0.38867431006E+02  0.46636253061E+02  0.00000000000E+00 0.  1.
         11    1    4    4    0    0 -0.58707371072E+02 -0.33545932478E+02  0.32751087354E+03  0.33441778854E+03  0.00000000000E+00 0. -1.
        -13    1    3    3    0    0 -0.21412178166E+02  0.13933583782E+01  0.33735700625E+02  0.39981499697E+02  0.00000000000E+00 0. -1.
         13    1    3    3    0    0  0.28919274936E+02  0.95113766478E+02  0.74767352989E+01  0.99693804257E+02  0.00000000000E+00 0.  1.
         -4    1    1    2    0  502  0.26302637591E+02 -0.56300066893E+02  0.44305092436E+02  0.76318198957E+02  0.00000000000E+00 0.  1.
<scales pt_clust_5="13000.00000" pt_clust_6="13000.00000" pt_clust_7="13000.00000" pt_clust_8="13000.00000" pt_clust_9="62.14121"></scales>
<clustering>
<clus scale="   62.141">  1  9  2 -1</clus>
<clus scale="   90.606">  5  6 -1 -1</clus>
<clus scale="   91.874">  7  8 -1 -1</clus>
<clus scale="  125.242">  1  5  2 -1</clus>
<clus scale="   62.141">  1  5  2 -1</clus>
</clustering>
</event>
<event>
 9    1  0.1636528E-005  0.9190689E+02  0.7546771E-02  0.1299955E+00
          2   -1    0    0  502    0 -0.00000000000E+00  0.00000000000E+00  0.18342725138E+03  0.18342725138E+03  0.00000000000E+00 0. -1.
         21   -1    0    0  501  502  0.00000000000E+00 -0.00000000000E+00 -0.13379602732E+03  0.13379602732E+03  0.00000000000E+00 0.  1.
         23    2    1    2    0    0  0.10779075239E+02  0.13384275738E+02  0.13256457991E+03  0.16173331524E+03  0.91043781288E+02 0.  0.
         23    2    1    2    0    0  0.57825235895E+01  0.26064045079E+01 -0.23191247649E+02  0.91465687563E+02  0.88249119601E+02 0.  0.
        -11    1    4    4    0    0  0.12697146638E+02  0.35325493297E+02  0.15246824673E+02  0.40516338334E+02  0.00000000000E+00 0. -1.
         11    1    4    4    0    0 -0.69146230482E+01 -0.32719088789E+02 -0.38438072321E+02  0.50949349229E+02  0.00000000000E+00 0.  1.
        -13    1    3    3    0    0  0.20290704700E+02 -0.34210554307E+02  0.84659613942E+02  0.93537826338E+02  0.00000000000E+00 0.  1.
         13    1    3    3    0    0 -0.95116294611E+01  0.47594830045E+02  0.47904965969E+02  0.68195488901E+02  0.00000000000E+00 0. -1.
          2    1    1    2  501    0 -0.16561598828E+02 -0.15990680245E+02 -0.59742108210E+02  0.64024275894E+02  0.00000000000E+00 0. -1.
<scales pt_clust_5="13000.00000" pt_clust_6="13000.00000" pt_clust_7="13000.00000" pt_clust_8="13000.00000" pt_clust_9="23.02148"></scales>
<clustering>
<clus scale="   23.021">  2  9  1 -1</clus>
<clus scale="   88.249">  5  6 -1 -1</clus>
<clus scale="   89.139">  2  5  1 -1</clus>
<clus scale="   91.044">  7  8 -1 -1</clus>
<clus scale="   23.021">  2  5  1 -1</clus>
</clustering>
</event>
<event>
 9    1  0.1636528E-005  0.1325356E+03  0.7546771E-02  0.1223761E+00
          1   -1    0    0  502    0 -0.00000000000E+00  0.00000000000E+00  0.32391568248E+03  0.32391568248E+03  0.00000000000E+00 0. -1.
         21   -1    0    0  501  502  0.00000000000E+00 -0.00000000000E+00 -0.11447189782E+03  0.11447189782E+03  0.00000000000E+00 0. -1.
         23    2    1    2    0    0 -0.29491270028E+02 -0.86249636790E+02  0.21577112606E+03  0.25131176603E+03  0.91058717593E+02 0.  0.
         23    2    1    2    0    0  0.41924692022E+02  0.11410269255E+03 -0.20906272078E+02  0.15326859733E+03  0.90978494528E+02 0.  0.
        -11    1    3    3    0    0  0.51748939060E+01 -0.91528441942E+02  0.17482070365E+03  0.19739937598E+03  0.00000000000E+00 0.  1.
         11    1    3    3    0    0 -0.34666163934E+02  0.52788051520E+01  0.40950422410E+02  0.53912390054E+02  0.00000000000E+00 0. -1.
        -13    1    4    4    0    0 -0.24281472101E+02  0.28226488894E+02 -0.24847195911E+02  0.44762793784E+02  0.00000000000E+00 0.  1.
         13    1    4    4    0    0  0.66206164123E+02  0.85876203659E+02  0.39409238332E+01  0.10850580355E+03  0.00000000000E+00 0. -1.
          1    1    1    2  501    0 -0.12433421994E+02 -0.27853055762E+02  0.14578930670E+02  0.33807216941E+02  0.00000000000E+00 0. -1.
<scales pt_clust_5="13000.00000" pt_clust_6="13000.00000" pt_clust_7="13000.00000" pt_clust_8="13000.00000" pt_clust_9="30.50218"></scales>
<clustering>
<clus scale="   30.502">  2  9  1 -1</clus>
<clus scale="   90.978">  7  8 -1 -1</clus>
<clus scale="   91.059">  5  6 -1 -1</clus>
<clus scale="  132.480">  2  7  1 -1</clus>
<clus scale="   30.502">  2  5  1 -1</clus>
</clustering>
</event>
<event>
 9    1  0.1636528E-005  0.1151187E+03  0.7546771E-02  0.1252018E+00
          2   -1    0    0  502    0 -0.00000000000E+00  0.00000000000E+00  0.45433162486E+03  0.45433162486E+03  0.00000000000E+00 0. -1.
         21   -1    0    0  501  502  0.00000000000E+00 -0.00000000000E+00 -0.16064844357E+03  0.16064844357E+03  0.00000000000E+00 0. -1.
         23    2    1    2    0    0  0.72014217180E+02 -0.30221441434E+02  0.34403896561E+03  0.36491299303E+03  0.93270036074E+02 0.  0.
         23    2    1    2    0    0 -0.28087298026E+02  0.34313307531E+02  0.68983236656E+02  0.12283453427E+03  0.91451279298E+02 0.  0.
        -11    1    4    4    0    0  0.16202168227E+02  0.40318180314E+02  0.64697555188E+02  0.77934841800E+02  0.00000000000E+00 0. -1.
         11    1    4    4    0    0 -0.44289466253E+02 -0.60048727838E+01  0.42856814684E+01  0.44899692469E+02  0.00000000000E+00 0.  1.
        -13    1    3    3    0    0 -0.30418721974E+01 -0.33088664175E+02  0.41363107115E+02  0.53056755588E+02  0.00000000000E+00 0.  1.
         13    1    3    3    0    0  0.75056089378E+02  0.28672227411E+01  0.30267585849E+03  0.31185623744E+03  0.00000000000E+00 0. -1.
          2    1    1    2  501    0 -0.43926919154E+02 -0.40918660969E+01 -0.11933902098E+03  0.12723254113E+03  0.00000000000E+00 0. -1.
<scales pt_clust_5="13000.00000" pt_clust_6="13000.00000" pt_clust_7="13000.00000" pt_clust_8="13000.00000" pt_clust_9="44.11709"></scales>
<clustering>
<clus scale="   44.117">  2  9  1 -1</clus>
<clus scale="   91.451">  5  6 -1 -1</clus>
<clus scale="   93.270">  7  8 -1 -1</clus>
<clus scale="  113.650">  2  5  1 -1</clus>
<clus scale="   44.117">  2  5  1 -1</clus>
</clustering>
</event>
<event>
 9    1  0.1636528E-005  0.9557247E+02  0.7546771E-02  0.1290032E+00
         21   -1    0    0  501  502  0.00000000000E+00  0.00000000000E+00  0.40957759506E+02  0.40957759506E+02  0.00000000000E+00 0.  1.
          2   -1    0    0  502    0 -0.00000000000E+00 -0.00000000000E+00 -0.45644473061E+03  0.45644473061E+03  0.00000000000E+00 0. -1.
         23    2    1    2    0    0  0.55721201422E+01  0.28579825734E+02 -0.31098374075E+03  0.32530016839E+03  0.90892560642E+02 0.  0.
         23    2    1    2    0    0  0.17343670776E+02 -0.29151388586E+02 -0.42771100386E+02  0.10625161157E+03  0.91156083512E+02 0.  0.
        -11    1    4    4    0    0  0.88812820703E+01  0.27150834813E+02  0.83208056449E+01  0.29753668830E+02  0.00000000000E+00 0. -1.
         11    1    4    4    0    0  0.84623887053E+01 -0.56302223399E+02 -0.51091906030E+02  0.76497942744E+02  0.00000000000E+00 0.  1.
        -13    1    3    3    0    0 -0.45372471861E+01  0.59736295642E+02 -0.16108807586E+03  0.17186733201E+03  0.00000000000E+00 0. -1.
         13    1    3    3    0    0  0.10109367328E+02 -0.31156469908E+02 -0.14989566490E+03  0.15343283638E+03  0.00000000000E+00 0.  1.
          2    1    1    2  501    0 -0.22915790918E+02  0.57156285225E+00 -0.61732129965E+02  0.65850710152E+02  0.00000000000E+00 0. -1.
<scales pt_clust_5="13000.00000" pt_clust_6="13000.00000" pt_clust_7="13000.00000" pt_clust_8="13000.00000" pt_clust_9="22.92293"></scales>
<clustering>
<clus scale="   22.923">  1  9  2 -1</clus>
<clus scale="   90.893">  7  8 -1 -1</clus>
<clus scale="   91.156">  5  6 -1 -1</clus>
<clus scale="   95.321">  2  7  1 -1</clus>
<clus scale="   22.923">  1  5  2 -1</clus>
</clustering>
</event>
<event>
 9    1  0.1652743E-005  0.1582801E+03  0.7546771E-02  0.1215507E+00
         21   -1    0    0  501  502  0.00000000000E+00  0.00000000000E+00  0.14956738607E+03  0.14956738607E+03  0.00000000000E+00 0. -1.
          2   -1    0    0  502    0 -0.00000000000E+00 -0.00000000000E+00 -0.74719958638E+03  0.74719958638E+03  0.00000000000E+00 0. -1.
         23    2    1    2    0    0  0.17859345257E+02  0.25986471872E+02 -0.12841473880E+02  0.93396812439E+02  0.86970156888E+02 0.  0.
         23    2    1    2    0    0  0.84800414217E+02 -0.10378788484E+03 -0.64213621723E+03  0.66237160899E+03  0.91837855049E+02 0.  0.
        -13    1    4    4    0    0  0.96491397264E+02 -0.75621897878E+02 -0.58393092784E+03  0.59666120175E+03  0.00000000000E+00 0. -1.
         13    1    4    4    0    0 -0.11690983047E+02 -0.28165986961E+02 -0.58205289388E+02  0.65710407234E+02  0.00000000000E+00 0.  1.
        -13    1    3    3    0    0 -0.35017945309E+02  0.40449071729E+01 -0.42247109648E+01  0.35503041426E+02  0.00000000000E+00 0.  1.
         13    1    3    3    0    0  0.52877290566E+02  0.21941564699E+02 -0.86167629153E+01  0.57893771014E+02  0.00000000000E+00 0. -1.
          2    1    1    2  501    0 -0.10265975947E+03  0.77801412967E+02  0.57345490799E+02  0.14099855102E+03  0.00000000000E+00 0. -1.
<scales pt_clust_5="13000.00000" pt_clust_6="13000.00000" pt_clust_7="13000.00000" pt_clust_8="13000.00000" pt_clust_9="128.91236"></scales>
<clustering>
<clus scale="   86.970">  7  8 -1 -1</clus>
<clus scale="   91.838">  5  6 -1 -1</clus>
<clus scale="   92.510">  2  7  1 -1</clus>
<clus scale="  128.912">  1  9  2 -1</clus>
<clus scale="  128.912">  1  5  2 -1</clus>
</clustering>
</event>
<event>
 9    1  0.1636528E-005  0.1075203E+03  0.7546771E-02  0.1266061E+00
          1   -1    0    0  502    0 -0.00000000000E+00  0.00000000000E+00  0.45885202487E+03  0.45885202487E+03  0.00000000000E+00 0. -1.
         21   -1    0    0  501  502  0.00000000000E+00 -0.00000000000E+00 -0.35550018392E+02  0.35550018392E+02  0.00000000000E+00 0.  1.
         23    2    1    2    0    0 -0.28496535254E+02 -0.54392302252E+02  0.23641431275E+03  0.26025132538E+03  0.89824551322E+02 0.  0.
         23    2    1    2    0    0 -0.60142576268E+01  0.53415771216E+02  0.14521233274E+03  0.18003247557E+03  0.91845820651E+02 0.  0.
        -11    1    4    4    0    0  0.33482126984E+02  0.36082107952E+02  0.31564022883E+02  0.58474429302E+02  0.00000000000E+00 0. -1.
         11    1    4    4    0    0 -0.39496384611E+02  0.17333663264E+02  0.11364830985E+03  0.12155804627E+03  0.00000000000E+00 0.  1.
        -13    1    3    3    0    0 -0.38223795770E+02 -0.25700756261E+02  0.22195155329E+03  0.22668056697E+03  0.00000000000E+00 0. -1.
         13    1    3    3    0    0  0.97272605161E+01 -0.28691545991E+02  0.14462759462E+02  0.33570758403E+02  0.00000000000E+00 0.  1.
          1    1    1    2  501    0  0.34510792881E+02  0.97653103620E+00  0.41675360994E+02  0.54118242323E+02  0.00000000000E+00 0. -1.
<scales pt_clust_5="13000.00000" pt_clust_6="13000.00000" pt_clust_7="13000.00000" pt_clust_8="13000.00000" pt_clust_9="34.52461"></scales>
<clustering>
<clus scale="   34.525">  2  9  1 -1</clus>
<clus scale="   89.825">  7  8 -1 -1</clus>
<clus scale="   91.846">  5  6 -1 -1</clus>
<clus scale="  105.799">  1  7  2 -1</clus>
<clus scale="   34.525">  2  5  1 -1</clus>
</clustering>
</event>
<event>
 9    1  0.1636528E-005  0.1091529E+03  0.7546771E-02  0.1263567E+00
         21   -1    0    0  501  502  0.00000000000E+00  0.00000000000E+00  0.89687078554E+03  0.89687078554E+03  0.00000000000E+00 0.  1.
         -1   -1    0    0    0  501 -0.00000000000E+00 -0.00000000000E+00 -0.45426777887E+02  0.45426777887E+02  0.00000000000E+00 0.  1.
         23    2    1    2    0    0  0.62570070834E+02  0.59932985578E+02  0.10580648898E+03  0.16352578491E+03  0.89658756931E+02 0.  0.
         23    2    1    2    0    0 -0.31463188330E+02  0.12329798852E+02  0.16244951399E+03  0.19030105116E+03  0.93180949328E+02 0.  0.
        -11    1    3    3    0    0  0.63560496550E+02  0.97537076427E+01  0.26239194668E+02  0.69451903295E+02  0.00000000000E+00 0. -1.
         11    1    3    3    0    0 -0.99042571626E+00  0.50179277936E+02  0.79567294314E+02  0.94073881613E+02  0.00000000000E+00 0.  1.
        -13    1    4    4    0    0 -0.60156756535E+02 -0.86196824725E+00  0.13739155477E+03  0.14998672498E+03  0.00000000000E+00 0. -1.
         13    1    4    4    0    0  0.28693568206E+02  0.13191767099E+02  0.25057959214E+02  0.40314326182E+02  0.00000000000E+00 0.  1.
         -1    1    1    2    0  502 -0.31106882504E+02 -0.72262784430E+02  0.58318800469E+03  0.58847072736E+03  0.00000000000E+00 0.  1.
<scales pt_clust_5="13000.00000" pt_clust_6="13000.00000" pt_clust_7="13000.00000" pt_clust_8="13000.00000" pt_clust_9="78.67368"></scales>
<clustering>
<clus scale="   78.674">  1  9  2 -1</clus>
<clus scale="   89.659">  5  6 -1 -1</clus>
<clus scale="   93.181">  7  8 -1 -1</clus>
<clus scale="  106.162">  2  5  1 -1</clus>
<clus scale="   78.674">  1  5  2 -1</clus>
</clustering>
</event>
<event>
 9    1  0.1636528E-005  0.2261303E+03  0.7546771E-02  0.1152048E+00
         21   -1    0    0  501  502  0.00000000000E+00  0.00000000000E+00  0.60411188395E+02  0.60411188395E+02  0.00000000000E+00 0.  1.
          2   -1    0    0  502    0 -0.00000000000E+00 -0.00000000000E+00 -0.15081607763E+04  0.15081607763E+04  0.00000000000E+00 0. -1.
         23    2    1    2    0    0 -0.91233661378E+02 -0.16342797984E+02 -0.28190267965E+03  0.31085988535E+03  0.92596325582E+02 0.  0.
         23    2    1    2    0    0  0.22340968440E+03  0.71368232369E+02 -0.36945433968E+03  0.44855237769E+03  0.98475452554E+02 0.  0.
        -11    1    4    4    0    0  0.19330248323E+03  0.20320859025E+02 -0.29699558547E+03  0.35494389011E+03  0.00000000000E+00 0.  1.
         11    1    4    4    0    0  0.30107201165E+02  0.51047373344E+02 -0.72458754201E+02  0.93608487583E+02  0.00000000000E+00 0. -1.
        -13    1    3    3    0    0 -0.18263795555E+02  0.16761587457E+02 -0.88962093779E+01  0.26337417934E+02  0.00000000000E+00 0.  1.
         13    1    3    3    0    0 -0.72969865823E+02 -0.33104385441E+02 -0.27300647027E+03  0.28452246742E+03  0.00000000000E+00 0. -1.
          2    1    1    2  501    0 -0.13217602302E+03 -0.55025434386E+02 -0.79639256863E+03  0.80915970170E+03  0.00000000000E+00 0. -1.
<scales pt_clust_5="13000.00000" pt_clust_6="13000.00000" pt_clust_7="13000.00000" pt_clust_8="13000.00000" pt_clust_9="203.56218"></scales>
<clustering>
<clus scale="   92.596">  7  8 -1 -1</clus>
<clus scale="   98.475">  5  6 -1 -1</clus>
<clus scale="  131.014">  2  7  1 -1</clus>
<clus scale="  203.562">  1  9  2 -1</clus>
<clus scale="  203.562">  1  5  2 -1</clus>
</clustering>
</event>
<event>
 9    1  0.1636528E-005  0.1089535E+03  0.7546771E-02  0.1263202E+00
         21   -1    0    0  501  502  0.00000000000E+00  0.00000000000E+00  0.44178423943E+02  0.44178423943E+02  0.00000000000E+00 0. -1.
          1   -1    0    0  502    0 -0.00000000000E+00 -0.00000000000E+00 -0.47988287258E+03  0.47988287258E+03  0.00000000000E+00 0. -1.
         23    2    1    2    0    0  0.62359189438E+02  0.14168444055E+02 -0.30371404696E+03  0.32556448089E+03  0.98288328809E+02 0.  0.
         23    2    1    2    0    0 -0.14099258549E+02 -0.10310199654E+02 -0.10159268100E+03  0.14133101816E+03  0.96686578962E+02 0.  0.
        -11    1    4    4    0    0 -0.73217776943E+01  0.33838315318E+02 -0.88120649485E+02  0.94677816187E+02  0.00000000000E+00 0.  1.
         11    1    4    4    0    0 -0.67774808547E+01 -0.44148514972E+02 -0.13472031520E+02  0.46653201972E+02  0.00000000000E+00 0. -1.
        -13    1    3    3    0    0 -0.11106889085E+02  0.26268879699E+02 -0.17125434413E+03  0.17361298168E+03  0.00000000000E+00 0.  1.
         13    1    3    3    0    0  0.73466078523E+02 -0.12100435644E+02 -0.13245970283E+03  0.15195149921E+03  0.00000000000E+00 0. -1.
          1    1    1    2  501    0 -0.48259930889E+02 -0.38582444012E+01 -0.30397720671E+02  0.57165797478E+02  0.00000000000E+00 0. -1.
<scales pt_clust_5="13000.00000" pt_clust_6="13000.00000" pt_clust_7="13000.00000" pt_clust_8="13000.00000" pt_clust_9="48.41391"></scales>
<clustering>
<clus scale="   48.414">  1  9  2 -1</clus>
<clus scale="   96.687">  5  6 -1 -1</clus>
<clus scale="   98.288">  7  8 -1 -1</clus>
<clus scale="  107.511">  1  5  2 -1</clus>
<clus scale="   48.414">  1  5  2 -1</clus>
</clustering>
</event>
<event>
 9    1  0.1636528E-005  0.1061054E+03  0.7546771E-02  0.1270662E+00
         21   -1    0    0  501  502  0.00000000000E+00  0.00000000000E+00  0.10589200241E+03  0.10589200241E+03  0.00000000000E+00 0. -1.
          1   -1    0    0  502    0 -0.00000000000E+00 -0.00000000000E+00 -0.30192898534E+03  0.30192898534E+03  0.00000000000E+00 0. -1.
         23    2    1    2    0    0 -0.93246128622E+01 -0.10123961225E+02 -0.23537668706E+03  0.25581555232E+03  0.99247010043E+02 0.  0.
         23    2    1    2    0    0  0.28830875351E+02  0.21004845484E+02  0.46437109299E+01  0.11074165152E+03  0.10473646177E+03 0.  0.
        -11    1    3    3    0    0 -0.32124342545E+01  0.43670797017E+02 -0.13271511778E+03  0.13975249813E+03  0.00000000000E+00 0.  1.
         11    1    3    3    0    0 -0.61121786077E+01 -0.53794758241E+02 -0.10266156928E+03  0.11606305419E+03  0.00000000000E+00 0. -1.
        -11    1    4    4    0    0  0.51654880398E+00 -0.29238452878E+02 -0.31260615988E+02  0.42806308663E+02  0.00000000000E+00 0.  1.
         11    1    4    4    0    0  0.28314326547E+02  0.50243298362E+02  0.35904326918E+02  0.67935342860E+02  0.00000000000E+00 0. -1.
          1    1    1    2  501    0 -0.19506262489E+02 -0.10880884260E+02  0.34695993196E+02  0.41263783908E+02  0.00000000000E+00 0. -1.
<scales pt_clust_5="13000.00000" pt_clust_6="13000.00000" pt_clust_7="13000.00000" pt_clust_8="13000.00000" pt_clust_9="22.33580"></scales>
<clustering>
<clus scale="   22.336">  1  9  2 -1</clus>
<clus scale="   99.247">  5  6 -1 -1</clus>
<clus scale="  100.691">  2  5  1 -1</clus>
<clus scale="  104.736">  7  8 -1 -1</clus>
<clus scale="   22.336">  1  5  2 -1</clus>
</clustering>
</event>
<event>
 9    1  0.1636528E-005  0.9813659E+02  0.7546771E-02  0.1284638E+00
          1   -1    0    0  502    0 -0.00000000000E+00  0.00000000000E+00  0.16251071156E+03  0.16251071156E+03  0.00000000000E+00 0. -1.
         21   -1    0    0  501  502  0.00000000000E+00 -0.00000000000E+00 -0.40767440581E+03  0.40767440581E+03  0.00000000000E+00 0. -1.
         23    2    1    2    0    0  0.19699427676E+01 -0.15391176420E+02  0.36907952760E+02  0.99408904081E+02  0.90989912889E+02 0.  0.
         23    2    1    2    0    0  0.70758862676E+02  0.26063600433E+02  0.52092637781E+02  0.12862252121E+03  0.90244014411E+02 0.  0.
        -11    1    4    4    0    0  0.58529690340E+02 -0.15481939431E+02  0.59268438829E+02  0.84724039924E+02  0.00000000000E+00 0. -1.
         11    1    4    4    0    0  0.12229172336E+02  0.41545539864E+02 -0.71758010478E+01  0.43898481287E+02  0.00000000000E+00 0.  1.
        -13    1    3    3    0    0  0.99079530914E+01 -0.51716915430E+02  0.10220846210E+02  0.53640214143E+02  0.00000000000E+00 0. -1.
         13    1    3    3    0    0 -0.79380103239E+01  0.36325739011E+02  0.26687106550E+02  0.45768689937E+02  0.00000000000E+00 0.  1.
          1    1    1    2  501    0 -0.72728805444E+02 -0.10672424014E+02 -0.33416428479E+03  0.34215369208E+03  0.00000000000E+00 0. -1.
<scales pt_clust_5="13000.00000" pt_clust_6="13000.00000" pt_clust_7="13000.00000" pt_clust_8="13000.00000" pt_clust_9="73.50769"></scales>
<clustering>
<clus scale="   73.508">  2  9  1 -1</clus>
<clus scale="   90.244">  5  6 -1 -1</clus>
<clus scale="   90.990">  7  8 -1 -1</clus>
<clus scale="   97.445">  2  5  1 -1</clus>
<clus scale="   73.508">  2  5  1 -1</clus>
</clustering>
</event>
<event>
 9    1  0.1636528E-005  0.1708761E+03  0.7546771E-02  0.1177791E+00
          2   -1    0    0  502    0 -0.00000000000E+00  0.00000000000E+00  0.12754576624E+03  0.12754576624E+03  0.00000000000E+00 0. -1.
         21   -1    0    0  501  502  0.00000000000E+00 -0.00000000000E+00 -0.38700278745E+03  0.38700278745E+03  0.00000000000E+00 0.  1.
         23    2    1    2    0    0  0.11553652501E+03  0.56440698367E+02 -0.14922776694E+02  0.16197562290E+03  0.97361039980E+02 0.  0.
         23    2    1    2    0    0 -0.14949668922E+03 -0.92746473666E+02 -0.22292791131E+03  0.29836743561E+03  0.91515597190E+02 0.  0.
        -13    1    4    4    0    0 -0.41328020273E+02  0.93789886867E+01 -0.87373611073E+02  0.97108797750E+02  0.00000000000E+00 0. -1.
         13    1    4    4    0    0 -0.10816866894E+03 -0.10212546235E+03 -0.13555430024E+03  0.20125863786E+03  0.00000000000E+00 0.  1.
        -13    1    3    3    0    0  0.64663472081E+02  0.23712371720E+02  0.40529031250E+02  0.79913976051E+02  0.00000000000E+00 0. -1.
         13    1    3    3    0    0  0.50873052934E+02  0.32728326647E+02 -0.55451807944E+02  0.82061646853E+02  0.00000000000E+00 0.  1.
          2    1    1    2  501    0  0.33960164200E+02  0.36305775298E+02 -0.21606333206E+02  0.54205495175E+02  0.00000000000E+00 0. -1.
<scales pt_clust_5="13000.00000" pt_clust_6="13000.00000" pt_clust_7="13000.00000" pt_clust_8="13000.00000" pt_clust_9="49.71322"></scales>
<clustering>
<clus scale="   49.713">  2  9  1 -1</clus>
<clus scale="   91.516">  5  6 -1 -1</clus>
<clus scale="   97.361">  7  8 -1 -1</clus>
<clus scale="  167.614">  2  5  1 -1</clus>
<clus scale="   49.713">  2  5  1 -1</clus>
</clustering>
</event>
<event>
 9    1  0.1636528E-005  0.1493747E+03  0.7546771E-02  0.1201999E+00
         -3   -1    0    0    0  501 -0.00000000000E+00  0.00000000000E+00  0.42243168515E+03  0.42243168515E+03  0.00000000000E+00 0.  1.
         21   -1    0    0  501  502  0.00000000000E+00 -0.00000000000E+00 -0.20814354607E+03  0.20814354607E+03  0.00000000000E+00 0. -1.
         23    2    1    2    0    0  0.85393787171E+02 -0.63998379300E+02  0.25029498721E+03  0.28690135499E+03  0.90977554551E+02 0.  0.
         23    2    1    2    0    0 -0.14030996043E+03  0.40931803213E+02  0.95942625818E+02  0.19890331053E+03  0.94843249514E+02 0.  0.
        -13    1    4    4    0    0 -0.13677663632E+03  0.63005687919E+02  0.74843881298E+02  0.16816412079E+03  0.00000000000E+00 0. -1.
         13    1    4    4    0    0 -0.35333241133E+01 -0.22073884706E+02  0.21098744520E+02  0.30739189737E+02  0.00000000000E+00 0.  1.
        -13    1    3    3    0    0  0.24392363717E+02  0.23295441037E+02  0.59073040989E+02  0.68024180646E+02  0.00000000000E+00 0. -1.
         13    1    3    3    0    0  0.61001423454E+02 -0.87293820337E+02  0.19122194622E+03  0.21887717434E+03  0.00000000000E+00 0.  1.
         -3    1    1    2    0  502  0.54916173261E+02  0.23066576087E+02 -0.13194947395E+03  0.14477056570E+03  0.00000000000E+00 0.  1.
<scales pt_clust_5="13000.00000" pt_clust_6="13000.00000" pt_clust_7="13000.00000" pt_clust_8="13000.00000" pt_clust_9="59.56386"></scales>
<clustering>
<clus scale="   59.564">  2  9  1 -1</clus>
<clus scale="   90.978">  7  8 -1 -1</clus>
<clus scale="   94.843">  5  6 -1 -1</clus>
<clus scale="  146.951">  1  7  2 -1</clus>
<clus scale="   59.564">  2  5  1 -1</clus>
</clustering>
</event>
<event>
 9    1  0.1636528E-005  0.9912668E+02  0.7546771E-02  0.1283694E+00
         21   -1    0    0  501  502  0.00000000000E+00  0.00000000000E+00  0.11840661004E+03  0.11840661004E+03  0.00000000000E+00 0.  1.
         -1   -1    0    0    0  501 -0.00000000000E+00 -0.00000000000E+00 -0.22223256528E+03  0.22223256528E+03  0.00000000000E+00 0.  1.
         23    2    1    2    0    0  0.26020066625E+02 -0.33525764009E+02 -0.15406763412E+03  0.18445311295E+03  0.92114571463E+02 0.  0.
         23    2    1    2    0    0 -0.32166118146E+02 -0.60332031919E+01  0.38686129898E+01  0.94923128418E+02  0.89018961154E+02 0.  0.
        -11    1    4    4    0    0 -0.50553466748E+02 -0.28951206288E+02 -0.14805655678E+02  0.60108508431E+02  0.00000000000E+00 0.  1.
         11    1    4    4    0    0  0.18387348602E+02  0.22918003096E+02  0.18674268668E+02  0.34814619987E+02  0.00000000000E+00 0. -1.
        -11    1    3    3    0    0  0.48544038834E+01 -0.54210777439E+02 -0.14273943721E+03  0.15276426468E+03  0.00000000000E+00 0.  1.
         11    1    3    3    0    0  0.21165662742E+02  0.20685013430E+02 -0.11328196910E+02  0.31688848277E+02  0.00000000000E+00 0. -1.
         -1    1    1    2    0  502  0.61460515204E+01  0.39558967201E+02  0.46373065891E+02  0.61262933944E+02  0.00000000000E+00 0.  1.
<scales pt_clust_5="13000.00000" pt_clust_6="13000.00000" pt_clust_7="13000.00000" pt_clust_8="13000.00000" pt_clust_9="40.03356"></scales>
<clustering>
<clus scale="   40.034">  1  9  2 -1</clus>
<clus scale="   89.019">  5  6 -1 -1</clus>
<clus scale="   92.115">  7  8 -1 -1</clus>
<clus scale="   96.257">  1  5  2 -1</clus>
<clus scale="   40.034">  1  5  2 -1</clus>
</clustering>
</event>
<event>
 9    1  0.1636528E-005  0.9199720E+02  0.7546771E-02  0.1301155E+00
         21   -1    0    0  501  502  0.00000000000E+00  0.00000000000E+00  0.14673692470E+03  0.14673692470E+03  0.00000000000E+00 0. -1.
         -2   -1    0    0    0  501 -0.00000000000E+00 -0.00000000000E+00 -0.74420069682E+02  0.74420069682E+02  0.00000000000E+00 0.  1.
         23    2    1    2    0    0 -0.15878333508E+01 -0.23841887531E+02  0.18711853540E+02  0.96055457162E+02  0.91134848285E+02 0.  0.
         23    2    1    2    0    0  0.24770841656E+01  0.59300530001E+00  0.27986228391E+02  0.90494849623E+02  0.86020934821E+02 0.  0.
        -11    1    3    3    0    0  0.41778213061E+02  0.37504926324E+01  0.14901458630E+02  0.44514477991E+02  0.00000000000E+00 0.  1.
         11    1    3    3    0    0 -0.43366046412E+02 -0.27592380164E+02  0.38103949101E+01  0.51540979170E+02  0.00000000000E+00 0. -1.
        -13    1    4    4    0    0  0.28750503662E+01  0.41965977302E+02  0.25179999565E+02  0.49024907380E+02  0.00000000000E+00 0.  1.
         13    1    4    4    0    0 -0.39796620057E+00 -0.41372972002E+02  0.28062288256E+01  0.41469942243E+02  0.00000000000E+00 0. -1.
         -2    1    1    2    0  502 -0.88925081483E+00  0.23248882231E+02  0.25618773092E+02  0.34606687601E+02  0.00000000000E+00 0.  1.
<scales pt_clust_5="13000.00000" pt_clust_6="13000.00000" pt_clust_7="13000.00000" pt_clust_8="13000.00000" pt_clust_9="23.26588"></scales>
<clustering>
<clus scale="   23.266">  1  9  2 -1</clus>
<clus scale="   86.021">  7  8 -1 -1</clus>
<clus scale="   86.934">  1  7  2 -1</clus>
<clus scale="   91.135">  5  6 -1 -1</clus>
<clus scale="   23.266">  1  5  2 -1</clus>
</clustering>
</event>
<event>
 9    1  0.1636528E-005  0.1649237E+03  0.7546771E-02  0.1183483E+00
         21   -1    0    0  501  502  0.00000000000E+00  0.00000000000E+00  0.83306404905E+02  0.83306404905E+02  0.00000000000E+00 0. -1.
         -4   -1    0    0    0  501 -0.00000000000E+00 -0.00000000000E+00 -0.57419439437E+03  0.57419439437E+03  0.00000000000E+00 0.  1.
         23    2    1    2    0    0 -0.71683119552E+02  0.10018536538E+03 -0.24942499387E+03  0.29243736296E+03  0.90173203459E+02 0.  0.
         23    2    1    2    0    0  0.57522849616E+02 -0.14787343320E+03 -0.25450961705E+03  0.31363504543E+03  0.91740754731E+02 0.  0.
        -11    1    4    4    0    0  0.58373560431E+02 -0.33418869185E+02 -0.11449420463E+03  0.13279012112E+03  0.00000000000E+00 0.  1.
         11    1    4    4    0    0 -0.85071081439E+00 -0.11445456401E+03 -0.14001541243E+03  0.18084492431E+03  0.00000000000E+00 0. -1.
        -11    1    3    3    0    0 -0.19494011490E+02  0.95292871554E+02 -0.13314718169E+03  0.16489062995E+03  0.00000000000E+00 0.  1.
         11    1    3    3    0    0 -0.52189108062E+02  0.48924938259E+01 -0.11627781218E+03  0.12754673301E+03  0.00000000000E+00 0. -1.
         -4    1    1    2    0  502  0.14160269936E+02  0.47688067815E+02  0.13046621465E+02  0.51428390878E+02  0.00000000000E+00 0.  1.
<scales pt_clust_5="13000.00000" pt_clust_6="13000.00000" pt_clust_7="13000.00000" pt_clust_8="13000.00000" pt_clust_9="49.74601"></scales>
<clustering>
<clus scale="   49.746">  1  9  2 -1</clus>
<clus scale="   90.173">  7  8 -1 -1</clus>
<clus scale="   91.741">  5  6 -1 -1</clus>
<clus scale="  164.057">  2  7  1 -1</clus>
<clus scale="   49.746">  1  5  2 -1</clus>
</clustering>
</event>
<event>
 9    1  0.1636528E-005  0.9713806E+02  0.7546771E-02  0.1290309E+00
         -1   -1    0    0    0  501 -0.00000000000E+00  0.00000000000E+00  0.78515596471E+02  0.78515596471E+02  0.00000000000E+00 0.  1.
         21   -1    0    0  501  502  0.00000000000E+00 -0.00000000000E+00 -0.30148361859E+03  0.30148361859E+03  0.00000000000E+00 0.  1.
         23    2    1    2    0    0 -0.85677111375E+00 -0.23814289184E+02  0.69629040874E+01  0.99442407442E+02  0.96293592406E+02 0.  0.
         23    2    1    2    0    0 -0.26056406326E+01 -0.73617883517E+01 -0.60476637123E+02  0.10822372259E+03  0.89408977197E+02 0.  0.
        -11    1    4    4    0    0  0.32359539357E+02 -0.62597127205E+01  0.56250152266E+01  0.33435977435E+02  0.00000000000E+00 0.  1.
         11    1    4    4    0    0 -0.34965179990E+02 -0.11020756312E+01 -0.66101652350E+02  0.74787745158E+02  0.00000000000E+00 0. -1.
        -13    1    3    3    0    0  0.43021941266E+02 -0.31563296515E+02 -0.41505325918E+01  0.53519678979E+02  0.00000000000E+00 0. -1.
         13    1    3    3    0    0 -0.43878712380E+02  0.77490073311E+01  0.11113436679E+02  0.45922728464E+02  0.00000000000E+00 0.  1.
         -1    1    1    2    0  502  0.34624117464E+01  0.31176077535E+02 -0.16945428908E+03  0.17233308502E+03  0.00000000000E+00 0.  1.
<scales pt_clust_5="13000.00000" pt_clust_6="13000.00000" pt_clust_7="13000.00000" pt_clust_8="13000.00000" pt_clust_9="31.36776"></scales>
<clustering>
<clus scale="   31.368">  2  9  1 -1</clus>
<clus scale="   89.409">  5  6 -1 -1</clus>
<clus scale="   90.318">  2  5  1 -1</clus>
<clus scale="   96.294">  7  8 -1 -1</clus>
<clus scale="   31.368">  2  5  1 -1</clus>
</clustering>
</event>
<event>
 9    1  0.1636528E-005  0.1090608E+03  0.7546771E-02  0.1263759E+00
         21   -1    0    0  501  502  0.00000000000E+00  0.00000000000E+00  0.23810008475E+03  0.23810008475E+03  0.00000000000E+00 0. -1.
         -2   -1    0    0    0  501 -0.00000000000E+00 -0.00000000000E+00 -0.13627040663E+03  0.13627040663E+03  0.00000000000E+00 0.  1.
         23    2    1    2    0    0 -0.24027565844E+02 -0.50944742555E+02 -0.54913165800E+02  0.12349956064E+03  0.95205015548E+02 0.  0.
         23    2    1    2    0    0 -0.18133446000E+02  0.54937647667E+02  0.23362981002E+02  0.11092922130E+03  0.91719661260E+02 0.  0.
        -11    1    3    3    0    0  0.11209516991E+02  0.24634337204E+02 -0.16398858285E+02  0.31645321830E+02  0.00000000000E+00 0.  1.
         11    1    3    3    0    0 -0.35237082835E+02 -0.75579079759E+02 -0.38514307515E+02  0.91854238809E+02  0.00000000000E+00 0. -1.
        -13    1    4    4    0    0  0.27260889586E+02  0.51580038785E+02 -0.28358011571E+01  0.58409744652E+02  0.00000000000E+00 0.  1.
         13    1    4    4    0    0 -0.45394335585E+02  0.33576088818E+01  0.26198782159E+02  0.52519476647E+02  0.00000000000E+00 0. -1.
         -2    1    1    2    0  502  0.42161011844E+02 -0.39929051117E+01  0.13337986292E+03  0.13994170945E+03  0.00000000000E+00 0.  1.
<scales pt_clust_5="13000.00000" pt_clust_6="13000.00000" pt_clust_7="13000.00000" pt_clust_8="13000.00000" pt_clust_9="42.34967"></scales>
<clustering>
<clus scale="   42.350">  1  9  2 -1</clus>
<clus scale="   91.720">  7  8 -1 -1</clus>
<clus scale="   95.205">  5  6 -1 -1</clus>
<clus scale="  106.032">  1  7  2 -1</clus>
<clus scale="   42.350">  1  5  2 -1</clus>
</clustering>
</event>
<event>
 9    1  0.1636528E-005  0.9333243E+02  0.7546771E-02  0.1296128E+00
         21   -1    0    0  501  502  0.00000000000E+00  0.00000000000E+00  0.11300990840E+03  0.11300990840E+03  0.00000000000E+00 0. -1.
          1   -1    0    0  502    0 -0.00000000000E+00 -0.00000000000E+00 -0.12276217085E+03  0.12276217085E+03  0.00000000000E+00 0. -1.
         23    2    1    2    0    0 -0.20098805423E+02  0.20798092904E+01 -0.47156409813E+02  0.10520621197E+03  0.91849509875E+02 0.  0.
         23    2    1    2    0    0  0.47480379536E+01  0.24422183984E+02  0.35911829221E+02  0.99902718010E+02  0.89843790285E+02 0.  0.
        -11    1    4    4    0    0  0.97246343371E+01  0.58160048567E+02  0.25508319484E+02  0.64248222739E+02  0.00000000000E+00 0. -1.
         11    1    4    4    0    0 -0.49765963836E+01 -0.33737864582E+02  0.10403509737E+02  0.35654495270E+02  0.00000000000E+00 0.  1.
        -11    1    3    3    0    0  0.37382496907E+01 -0.40338509432E+02 -0.49844820178E+01  0.40816845970E+02  0.00000000000E+00 0.  1.
         11    1    3    3    0    0 -0.23837055114E+02  0.42418318722E+02 -0.42171927795E+02  0.64389365999E+02  0.00000000000E+00 0. -1.
          1    1    1    2  501    0  0.15350767470E+02 -0.26501993275E+02  0.14923181407E+01  0.30663149265E+02  0.00000000000E+00 0. -1.
<scales pt_clust_5="13000.00000" pt_clust_6="13000.00000" pt_clust_7="13000.00000" pt_clust_8="13000.00000" pt_clust_9="30.62681"></scales>
<clustering>
<clus scale="   30.627">  1  9  2 -1</clus>
<clus scale="   89.844">  5  6 -1 -1</clus>
<clus scale="   91.359">  1  5  2 -1</clus>
<clus scale="   91.850">  7  8 -1 -1</clus>
<clus scale="   30.627">  1  5  2 -1</clus>
</clustering>
</event>
<event>
 9    1  0.1636528E-005  0.3395995E+03  0.7546771E-02  0.1067035E+00
         21   -1    0    0  501  502  0.00000000000E+00  0.00000000000E+00  0.15338473478E+03  0.15338473478E+03  0.00000000000E+00 0. -1.
          1   -1    0    0  502    0 -0.00000000000E+00 -0.00000000000E+00 -0.85412586218E+03  0.85412586218E+03  0.00000000000E+00 0. -1.
         23    2    1    2    0    0  0.21140553793E+03  0.27578859447E+03 -0.41041883900E+03  0.54431556470E+03  0.84167453717E+02 0.  0.
         23    2    1    2    0    0 -0.19441678047E+03 -0.23723545345E+03 -0.25874904444E+03  0.41054683858E+03  0.86712708261E+02 0.  0.
        -13    1    3    3    0    0  0.64172306677E+02  0.30773630859E+02 -0.93933910660E+02  0.11785024766E+03  0.00000000000E+00 0.  1.
         13    1    3    3    0    0  0.14723323125E+03  0.24501496361E+03 -0.31648492834E+03  0.42646531705E+03  0.00000000000E+00 0. -1.
        -13    1    4    4    0    0 -0.53587994197E+02 -0.12930625852E+03 -0.13292787710E+03  0.19303264523E+03  0.00000000000E+00 0. -1.
         13    1    4    4    0    0 -0.14082878627E+03 -0.10792919493E+03 -0.12582116733E+03  0.21751419335E+03  0.00000000000E+00 0.  1.
          1    1    1    2  501    0 -0.16988757462E+02 -0.38553141023E+02 -0.31573243969E+02  0.52648193678E+02  0.00000000000E+00 0. -1.
<scales pt_clust_5="13000.00000" pt_clust_6="13000.00000" pt_clust_7="13000.00000" pt_clust_8="13000.00000" pt_clust_9="42.13030"></scales>
<clustering>
<clus scale="   42.130">  1  9  2 -1</clus>
<clus scale="   84.167">  5  6 -1 -1</clus>
<clus scale="   86.713">  7  8 -1 -1</clus>
<clus scale="  338.959">  2  5  1 -1</clus>
<clus scale="   42.130">  1  5  2 -1</clus>
</clustering>
</event>
<event>
 9    1  0.1636528E-005  0.1578328E+03  0.7546771E-02  0.1192083E+00
          1   -1    0    0  502    0 -0.00000000000E+00  0.00000000000E+00  0.83061287332E+03  0.83061287332E+03  0.00000000000E+00 0. -1.
         21   -1    0    0  501  502  0.00000000000E+00 -0.00000000000E+00 -0.52214281192E+02  0.52214281192E+02  0.00000000000E+00 0. -1.
         23    2    1    2    0    0  0.63190870547E+02  0.14026411956E+03  0.55542360062E+03  0.58424224417E+03  0.95794125000E+02 0.  0.
         23    2    1    2    0    0 -0.50240540949E+02 -0.65259116188E+02  0.14220560481E+03  0.18760222975E+03  0.90494742191E+02 0.  0.
        -11    1    3    3    0    0  0.56584222564E+02  0.62921744881E+02  0.15725670790E+03  0.17857937284E+03  0.00000000000E+00 0. -1.
         11    1    3    3    0    0  0.66066479837E+01  0.77342374674E+02  0.39816689272E+03  0.40566287133E+03  0.00000000000E+00 0.  1.
        -13    1    4    4    0    0  0.56209996182E+01 -0.66054665721E+02  0.71807553646E+02  0.97729930220E+02  0.00000000000E+00 0.  1.
         13    1    4    4    0    0 -0.55861540567E+02  0.79554953317E+00  0.70398051168E+02  0.89872299525E+02  0.00000000000E+00 0. -1.
          1    1    1    2  501    0 -0.12950329598E+02 -0.75005003368E+02  0.80769386690E+02  0.11098268060E+03  0.00000000000E+00 0. -1.
<scales pt_clust_5="13000.00000" pt_clust_6="13000.00000" pt_clust_7="13000.00000" pt_clust_8="13000.00000" pt_clust_9="76.11479"></scales>
<clustering>
<clus scale="   76.115">  2  9  1 -1</clus>
<clus scale="   90.495">  7  8 -1 -1</clus>
<clus scale="   95.794">  5  6 -1 -1</clus>
<clus scale="  154.674">  2  7  1 -1</clus>
<clus scale="   76.115">  2  5  1 -1</clus>
</clustering>
</event>
<event>
 9    1  0.1636528E-005  0.1198282E+03  0.7546771E-02  0.1244219E+00
         21   -1    0    0  501  502  0.00000000000E+00  0.00000000000E+00  0.17090369102E+03  0.17090369102E+03  0.00000000000E+00 0.  1.
         -1   -1    0    0    0  501 -0.00000000000E+00 -0.00000000000E+00 -0.26536505240E+03  0.26536505240E+03  0.00000000000E+00 0.  1.
         23    2    1    2    0    0  0.57936590297E+02 -0.56053045433E+02 -0.84554164724E+02  0.15040318715E+03  0.94726551375E+02 0.  0.
         23    2    1    2    0    0  0.28591872041E+02  0.87852592092E+02 -0.94201086892E+02  0.16095020135E+03  0.92171304966E+02 0.  0.
        -11    1    4    4    0    0  0.55475798514E+02  0.72915616055E+02 -0.42968899896E+02  0.10119573926E+03  0.00000000000E+00 0.  1.
         11    1    4    4    0    0 -0.26883926473E+02  0.14936976037E+02 -0.51232186996E+02  0.59754462094E+02  0.00000000000E+00 0. -1.
        -13    1    3    3    0    0  0.71399100954E+02 -0.72322660501E+02 -0.60005411340E+02  0.11802138886E+03  0.00000000000E+00 0.  1.
         13    1    3    3    0    0 -0.13462510658E+02  0.16269615068E+02 -0.24548753384E+02  0.32381798288E+02  0.00000000000E+00 0. -1.
         -1    1    1    2    0  502 -0.86528462338E+02 -0.31799546659E+02  0.84293890243E+02  0.12491535492E+03  0.00000000000E+00 0.  1.
<scales pt_clust_5="13000.00000" pt_clust_6="13000.00000" pt_clust_7="13000.00000" pt_clust_8="13000.00000" pt_clust_9="92.18669"></scales>
<clustering>
<clus scale="   92.171">  5  6 -1 -1</clus>
<clus scale="   92.187">  1  9  2 -1</clus>
<clus scale="   94.727">  7  8 -1 -1</clus>
<clus scale="  117.819">  1  5  2 -1</clus>
<clus scale="   92.187">  1  5  2 -1</clus>
</clustering>
</event>
<event>
 9    1  0.1741042E-005  0.1615480E+03  0.7546771E-02  0.1187441E+00
         21   -1    0    0  501  502  0.00000000000E+00  0.00000000000E+00  0.74229153828E+03  0.74229153828E+03  0.00000000000E+00 0. -1.
         -1   -1    0    0    0  501 -0.00000000000E+00 -0.00000000000E+00 -0.14503678037E+03  0.14503678037E+03  0.00000000000E+00 0.  1.
         23    2    1    2    0    0  0.93099933738E+02 -0.90472654420E+02 -0.80336515143E+02  0.17778197474E+03  0.91102008857E+02 0.  0.
         23    2    1    2    0    0 -0.11853350741E+03  0.88962089840E+02  0.49540186579E+03  0.52558404182E+03  0.94080447352E+02 0.  0.
        -11    1    3    3    0    0  0.43341708445E+02 -0.98301494218E+02 -0.62830510512E+02  0.12445625942E+03  0.00000000000E+00 0. -1.
         11    1    3    3    0    0  0.49758225293E+02  0.78288397980E+01 -0.17506004630E+02  0.53325715326E+02  0.00000000000E+00 0.  1.
        -13    1    4    4    0    0 -0.30707276675E+02 -0.18598144051E+02  0.83003012623E+02  0.90434108098E+02  0.00000000000E+00 0.  1.
         13    1    4    4    0    0 -0.87826230734E+02  0.10756023389E+03  0.41239885317E+03  0.43514993372E+03  0.00000000000E+00 0. -1.
         -1    1    1    2    0  502  0.25433573671E+02  0.15105645806E+01  0.18218940726E+03  0.18396230209E+03  0.00000000000E+00 0.  1.
<scales pt_clust_5="13000.00000" pt_clust_6="13000.00000" pt_clust_7="13000.00000" pt_clust_8="13000.00000" pt_clust_9="25.47839"></scales>
<clustering>
<clus scale="   25.478">  1  9  2 -1</clus>
<clus scale="   91.102">  5  6 -1 -1</clus>
<clus scale="   94.080">  7  8 -1 -1</clus>
<clus scale="  159.832">  2  5  1 -1</clus>
<clus scale="   25.478">  1  5  2 -1</clus>
</clustering>
</event>
<event>
 9    1  0.1636528E-005  0.1495623E+03  0.7546771E-02  0.1214963E+00
         21   -1    0    0  501  502  0.00000000000E+00  0.00000000000E+00  0.97430761841E+02  0.97430761841E+02  0.00000000000E+00 0. -1.
          1   -1    0    0  502    0 -0.00000000000E+00 -0.00000000000E+00 -0.53195854002E+03  0.53195854002E+03  0.00000000000E+00 0. -1.
         23    2    1    2    0    0 -0.52828330853E+02  0.38590671142E+02 -0.11374576391E+03  0.15887286167E+03  0.89567934712E+02 0.  0.
         23    2    1    2    0    0  0.13156967473E+03  0.45797444233E+02 -0.31277623972E+03  0.35482008900E+03  0.93060916717E+02 0.  0.
        -13    1    3    3    0    0 -0.84220294412E+01 -0.18410676212E+02 -0.73345641034E+02  0.76088544717E+02  0.00000000000E+00 0.  1.
         13    1    3    3    0    0 -0.44406301411E+02  0.57001347354E+02 -0.40400122871E+02  0.82784316952E+02  0.00000000000E+00 0. -1.
        -13    1    4    4    0    0  0.11571529692E+03  0.70876380999E+02 -0.27611256051E+03  0.30765506236E+03  0.00000000000E+00 0. -1.
         13    1    4    4    0    0  0.15854377813E+02 -0.25078936766E+02 -0.36663679215E+02  0.47165026648E+02  0.00000000000E+00 0.  1.
          1    1    1    2  501    0 -0.78741343878E+02 -0.84388115375E+02 -0.80057745548E+01  0.11569635119E+03  0.00000000000E+00 0. -1.
<scales pt_clust_5="13000.00000" pt_clust_6="13000.00000" pt_clust_7="13000.00000" pt_clust_8="13000.00000" pt_clust_9="117.08346"></scales>
<clustering>
<clus scale="   89.568">  5  6 -1 -1</clus>
<clus scale="   93.061">  7  8 -1 -1</clus>
<clus scale="  110.917">  2  5  1 -1</clus>
<clus scale="  117.083">  1  9  2 -1</clus>
<clus scale="  117.083">  1  5  2 -1</clus>
</clustering>
</event>
<event>
 9    1  0.1636528E-005  0.1066029E+03  0.7546771E-02  0.1267203E+00
          3   -1    0    0  502    0 -0.00000000000E+00  0.00000000000E+00  0.75433906174E+03  0.75433906174E+03  0.00000000000E+00 0. -1.
         21   -1    0    0  501  502  0.00000000000E+00 -0.00000000000E+00 -0.46888751686E+02  0.46888751686E+02  0.00000000000E+00 0.  1.
         23    2    1    2    0    0  0.31639880213E+01  0.73143038687E+02  0.57269887807E+03  0.58414149808E+03  0.88754548661E+02 0.  0.
         23    2    1    2    0    0  0.28894982888E+02 -0.82237671782E+01  0.97860840193E+02  0.13582620710E+03  0.89271855083E+02 0.  0.
        -13    1    3    3    0    0 -0.37644119550E+02  0.61622288576E+02  0.38488642527E+03  0.39160177035E+03  0.00000000000E+00 0. -1.
         13    1    3    3    0    0  0.40808107571E+02  0.11520750111E+02  0.18781245280E+03  0.19253972773E+03  0.00000000000E+00 0.  1.
        -13    1    4    4    0    0 -0.29611594878E+02  0.68153430700E+01  0.51028263292E+02  0.59390058991E+02  0.00000000000E+00 0. -1.
         13    1    4    4    0    0  0.58506577766E+02 -0.15039110248E+02  0.46832576901E+02  0.76436148111E+02  0.00000000000E+00 0.  1.
          3    1    1    2  501    0 -0.32058970909E+02 -0.64919271509E+02  0.36890591789E+02  0.81260108242E+02  0.00000000000E+00 0. -1.
<scales pt_clust_5="13000.00000" pt_clust_6="13000.00000" pt_clust_7="13000.00000" pt_clust_8="13000.00000" pt_clust_9="72.40366"></scales>
<clustering>
<clus scale="   72.404">  2  9  1 -1</clus>
<clus scale="   88.755">  5  6 -1 -1</clus>
<clus scale="   89.272">  7  8 -1 -1</clus>
<clus scale="  106.170">  1  5  2 -1</clus>
<clus scale="   72.404">  2  5  1 -1</clus>
</clustering>
</event>
<event>
 9    1  0.1636528E-005  0.1128158E+03  0.7546771E-02  0.1255558E+00
          2   -1    0    0  502    0 -0.00000000000E+00  0.00000000000E+00  0.64515079380E+03  0.64515079380E+03  0.00000000000E+00 0. -1.
         21   -1    0    0  501  502  0.00000000000E+00 -0.00000000000E+00 -0.85334271616E+02  0.85334271616E+02  0.00000000000E+00 0. -1.
         23    2    1    2    0    0 -0.50684775511E+02 -0.35147739728E+02  0.36369485424E+03  0.38021329304E+03  0.92108040485E+02 0.  0.
         23    2    1    2    0    0  0.36991676897E+02  0.63349973070E+02  0.25644409226E+03  0.28228896726E+03  0.92422320531E+02 0.  0.
        -11    1    3    3    0    0 -0.62080335701E+02  0.10270205653E+02  0.18153395255E+03  0.19213021920E+03  0.00000000000E+00 0.  1.
         11    1    3    3    0    0  0.11395560190E+02 -0.45417945380E+02  0.18216090170E+03  0.18808307383E+03  0.00000000000E+00 0. -1.
        -11    1    4    4    0    0  0.58799485846E+02  0.43547094796E+02  0.23423605469E+03  0.24539816282E+03  0.00000000000E+00 0.  1.
         11    1    4    4    0    0 -0.21807808949E+02  0.19802878274E+02  0.22208037576E+02  0.36890804438E+02  0.00000000000E+00 0. -1.
          2    1    1    2  501    0  0.13693098614E+02 -0.28202233342E+02 -0.60322424325E+02  0.67982805117E+02  0.00000000000E+00 0. -1.
<scales pt_clust_5="13000.00000" pt_clust_6="13000.00000" pt_clust_7="13000.00000" pt_clust_8="13000.00000" pt_clust_9="31.35071"></scales>
<clustering>
<clus scale="   31.351">  2  9  1 -1</clus>
<clus scale="   92.108">  5  6 -1 -1</clus>
<clus scale="   92.422">  7  8 -1 -1</clus>
<clus scale="  112.559">  1  5  2 -1</clus>
<clus scale="   31.351">  2  5  1 -1</clus>
</clustering>
</event>
<event>
 9    1  0.1636528E-005  0.1007070E+03  0.7546771E-02  0.1279468E+00
          2   -1    0    0  502    0 -0.00000000000E+00  0.00000000000E+00  0.26168289474E+03  0.26168289474E+03  0.00000000000E+00 0. -1.
         21   -1    0    0  501  502  0.00000000000E+00 -0.00000000000E+00 -0.80021958138E+02  0.80021958138E+02  0.00000000000E+00 0. -1.
         23    2    1    2    0    0  0.38704069111E+02 -0.23561333169E+02  0.15502777619E+03  0.18688181693E+03  0.94010960661E+02 0.  0.
         23    2    1    2    0    0  0.59093456963E+01  0.19428755950E+02  0.43784672480E+02  0.10684794510E+03  0.95325699077E+02 0.  0.
        -11    1    3    3    0    0  0.28997376008E+02 -0.58912210882E+02  0.80975289861E+02  0.10425206940E+03  0.00000000000E+00 0. -1.
         11    1    3    3    0    0  0.97066931027E+01  0.35350877714E+02  0.74052486326E+02  0.82629747532E+02  0.00000000000E+00 0.  1.
        -13    1    4    4    0    0  0.47057547137E+02  0.20937738848E+01  0.40422867879E+02  0.62070966475E+02  0.00000000000E+00 0. -1.
         13    1    4    4    0    0 -0.41148201441E+02  0.17334982066E+02  0.33618046013E+01  0.44776978630E+02  0.00000000000E+00 0.  1.
          2    1    1    2  501    0 -0.44613414807E+02  0.41325772184E+01 -0.17151512064E+02  0.47975090842E+02  0.00000000000E+00 0. -1.
<scales pt_clust_5="13000.00000" pt_clust_6="13000.00000" pt_clust_7="13000.00000" pt_clust_8="13000.00000" pt_clust_9="44.80441"></scales>
<clustering>
<clus scale="   44.804">  2  9  1 -1</clus>
<clus scale="   94.011">  5  6 -1 -1</clus>
<clus scale="   95.326">  7  8 -1 -1</clus>
<clus scale="   99.463">  1  5  2 -1</clus>
<clus scale="   44.804">  2  5  1 -1</clus>
</clustering>
</event>
<event>
 9    1  0.1636528E-005  0.1208754E+03  0.7546771E-02  0.1248809E+00
         21   -1    0    0  501  502  0.00000000000E+00  0.00000000000E+00  0.42519892328E+03  0.42519892328E+03  0.00000000000E+00 0. -1.
          3   -1    0    0  502    0 -0.00000000000E+00 -0.00000000000E+00 -0.87180303420E+02  0.87180303420E+02  0.00000000000E+00 0. -1.
         23    2    1    2    0    0  0.32838723668E+02  0.33782165330E+01  0.49160444309E+01  0.98309559345E+02  0.92470578275E+02 0.  0.
         23    2    1    2    0    0 -0.10861059084E+03  0.18319820174E+02  0.15796912077E+03  0.22201783166E+03  0.11047985429E+03 0.  0.
        -11    1    3    3    0    0 -0.56464599905E+01 -0.26196592360E+02  0.32782929538E+02  0.42342229875E+02  0.00000000000E+00 0.  1.
         11    1    3    3    0    0  0.38485183659E+02  0.29574808893E+02 -0.27866885107E+02  0.55967329469E+02  0.00000000000E+00 0. -1.
        -13    1    4    4    0    0 -0.10464305148E+03 -0.95602675451E+01  0.16248027219E+03  0.19349781856E+03  0.00000000000E+00 0. -1.
         13    1    4    4    0    0 -0.39675393672E+01  0.27880087719E+02 -0.45111514225E+01  0.28520013096E+02  0.00000000000E+00 0.  1.
          3    1    1    2  501    0  0.75771867175E+02 -0.21698036707E+02  0.17513345467E+03  0.19205183570E+03  0.00000000000E+00 0. -1.
<scales pt_clust_5="13000.00000" pt_clust_6="13000.00000" pt_clust_7="13000.00000" pt_clust_8="13000.00000" pt_clust_9="78.81739"></scales>
<clustering>
<clus scale="   78.817">  1  9  2 -1</clus>
<clus scale="   92.471">  5  6 -1 -1</clus>
<clus scale="  104.670">  2  5  1 -1</clus>
<clus scale="  110.480">  7  8 -1 -1</clus>
<clus scale="   78.817">  1  5  2 -1</clus>
</clustering>
</event>
<event>
 9    1  0.1636528E-005  0.1027979E+03  0.7546771E-02  0.1274596E+00
          4   -1    0    0  502    0 -0.00000000000E+00  0.00000000000E+00  0.12125447072E+03  0.12125447072E+03  0.00000000000E+00 0. -1.
         21   -1    0    0  501  502  0.00000000000E+00 -0.00000000000E+00 -0.20174030628E+03  0.20174030628E+03  0.00000000000E+00 0.  1.
         23    2    1    2    0    0  0.34904662121E+02  0.36022357516E+02  0.53070873418E+02  0.11731542621E+03  0.91817459902E+02 0.  0.
         23    2    1    2    0    0 -0.17621187310E+00 -0.45980365837E+02 -0.48828885640E+02  0.11357054973E+03  0.91650338786E+02 0.  0.
        -11    1    4    4    0    0  0.25338463937E+02 -0.50471625515E+02  0.20105712724E+01  0.56510752372E+02  0.00000000000E+00 0.  1.
         11    1    4    4    0    0 -0.25514675810E+02  0.44912596787E+01 -0.50839456913E+02  0.57059797356E+02  0.00000000000E+00 0. -1.
        -11    1    3    3    0    0  0.60532488567E+02  0.27815497591E+02  0.11214093746E+02  0.67554718391E+02  0.00000000000E+00 0.  1.
         11    1    3    3    0    0 -0.25627826446E+02  0.82068599250E+01  0.41856779672E+02  0.49760707820E+02  0.00000000000E+00 0. -1.
          4    1    1    2  501    0 -0.34728450248E+02  0.99580083207E+01 -0.84727823336E+02  0.92108801064E+02  0.00000000000E+00 0. -1.
<scales pt_clust_5="13000.00000" pt_clust_6="13000.00000" pt_clust_7="13000.00000" pt_clust_8="13000.00000" pt_clust_9="36.12793"></scales>
<clustering>
<clus scale="   36.128">  2  9  1 -1</clus>
<clus scale="   91.650">  5  6 -1 -1</clus>
<clus scale="   91.817">  7  8 -1 -1</clus>
<clus scale="  102.649">  2  5  1 -1</clus>
<clus scale="   36.128">  2  5  1 -1</clus>
</clustering>
</event>
<event>
 9    1  0.1636528E-005  0.1016574E+03  0.7546771E-02  0.1277802E+00
          2   -1    0    0  502    0 -0.00000000000E+00  0.00000000000E+00  0.15391581491E+03  0.15391581491E+03  0.00000000000E+00 0. -1.
         21   -1    0    0  501  502  0.00000000000E+00 -0.00000000000E+00 -0.41777823409E+03  0.41777823409E+03  0.00000000000E+00 0. -1.
         23    2    1    2    0    0 -0.89255932093E+01  0.37040158723E+02  0.68779539209E+02  0.12112593293E+03  0.92137001487E+02 0.  0.
         23    2    1    2    0    0 -0.72710773115E+02 -0.53485345462E+02 -0.22589899301E+02  0.12952727782E+03  0.90108120845E+02 0.  0.
        -13    1    4    4    0    0  0.82738934766E+01 -0.42705927245E+02 -0.19764336844E+02  0.47779520152E+02  0.00000000000E+00 0.  1.
         13    1    4    4    0    0 -0.80984666592E+02 -0.10779418217E+02 -0.28255624564E+01  0.81747757665E+02  0.00000000000E+00 0. -1.
        -13    1    3    3    0    0 -0.22222172286E+02  0.64954162344E+02  0.44475989531E+02  0.81798421695E+02  0.00000000000E+00 0.  1.
         13    1    3    3    0    0  0.13296579077E+02 -0.27914003621E+02  0.24303549679E+02  0.39327511240E+02  0.00000000000E+00 0. -1.
          2    1    1    2  501    0  0.81636366324E+02  0.16445186739E+02 -0.31005205909E+03  0.32104083824E+03  0.00000000000E+00 0. -1.
<scales pt_clust_5="13000.00000" pt_clust_6="13000.00000" pt_clust_7="13000.00000" pt_clust_8="13000.00000" pt_clust_9="83.27629"></scales>
<clustering>
<clus scale="   83.276">  2  9  1 -1</clus>
<clus scale="   90.108">  5  6 -1 -1</clus>
<clus scale="   92.137">  7  8 -1 -1</clus>
<clus scale="   99.822">  2  5  1 -1</clus>
<clus scale="   83.276">  2  5  1 -1</clus>
</clustering>
</event>
<event>
 9    1  0.1636528E-005  0.1193271E+03  0.7546771E-02  0.1246104E+00
          1   -1    0    0  502    0 -0.00000000000E+00  0.00000000000E+00  0.13827179183E+03  0.13827179183E+03  0.00000000000E+00 0. -1.
         21   -1    0    0  501  502  0.00000000000E+00 -0.00000000000E+00 -0.38312242435E+03  0.38312242435E+03  0.00000000000E+00 0. -1.
         23    2    1    2    0    0 -0.34420612457E+02  0.73672041200E+02  0.41131464648E+02  0.12840925071E+03  0.90469829603E+02 0.  0.
         23    2    1    2    0    0  0.10327463938E+03 -0.49790642468E+01 -0.26004719302E+03  0.29232602965E+03  0.84495696911E+02 0.  0.
        -11    1    4    4    0    0  0.35063552610E+02  0.42470708351E+01 -0.16031273777E+02  0.38787782500E+02  0.00000000000E+00 0.  1.
         11    1    4    4    0    0  0.68211086774E+02 -0.92261350820E+01 -0.24401591924E+03  0.25353824716E+03  0.00000000000E+00 0. -1.
        -11    1    3    3    0    0  0.19257485341E+02  0.59189750216E+02  0.57507283298E+01  0.62508784572E+02  0.00000000000E+00 0. -1.
         11    1    3    3    0    0 -0.53678097798E+02  0.14482290984E+02  0.35380736318E+02  0.65900466142E+02  0.00000000000E+00 0.  1.
          1    1    1    2  501    0 -0.68854026927E+02 -0.68692976953E+02 -0.25934904145E+02  0.10065893582E+03  0.00000000000E+00 0. -1.
<scales pt_clust_5="13000.00000" pt_clust_6="13000.00000" pt_clust_7="13000.00000" pt_clust_8="13000.00000" pt_clust_9="97.26053"></scales>
<clustering>
<clus scale="   84.496">  5  6 -1 -1</clus>
<clus scale="   90.470">  7  8 -1 -1</clus>
<clus scale="   97.261">  2  9  1 -1</clus>
<clus scale="  114.864">  2  5  1 -1</clus>
<clus scale="   97.261">  2  5  1 -1</clus>
</clustering>
</event>
<event>
 9    1  0.1636528E-005  0.9314684E+02  0.7546771E-02  0.1296328E+00
         21   -1    0    0  501  502  0.00000000000E+00  0.00000000000E+00  0.22977971653E+03  0.22977971653E+03  0.00000000000E+00 0.  1.
         -1   -1    0    0    0  501 -0.00000000000E+00 -0.00000000000E+00 -0.63414625528E+02  0.63414625528E+02  0.00000000000E+00 0.  1.
         23    2    1    2    0    0  0.76644146125E+01  0.26598706094E+01  0.13049191806E+02  0.93088765510E+02  0.91811865760E+02 0.  0.
         23    2    1    2    0    0 -0.37092952687E+02  0.49690279103E+01  0.12432585462E+03  0.15809770074E+03  0.90207463516E+02 0.  0.
        -13    1    4    4    0    0  0.18400775202E+02  0.22777057012E+02  0.79043669173E+02  0.84292849581E+02  0.00000000000E+00 0. -1.
         13    1    4    4    0    0 -0.55493727888E+02 -0.17808029101E+02  0.45282185450E+02  0.73804851159E+02  0.00000000000E+00 0.  1.
        -13    1    3    3    0    0 -0.23155732229E+02 -0.35776676595E+02  0.97099937261E+01  0.43708609008E+02  0.00000000000E+00 0.  1.
         13    1    3    3    0    0  0.30820146841E+02  0.38436547205E+02  0.33391980803E+01  0.49380156502E+02  0.00000000000E+00 0. -1.
         -1    1    1    2    0  502  0.29428538074E+02 -0.76288985197E+01  0.28990044577E+02  0.42007875813E+02  0.00000000000E+00 0.  1.
<scales pt_clust_5="13000.00000" pt_clust_6="13000.00000" pt_clust_7="13000.00000" pt_clust_8="13000.00000" pt_clust_9="30.40130"></scales>
<clustering>
<clus scale="   30.401">  1  9  2 -1</clus>
<clus scale="   90.207">  5  6 -1 -1</clus>
<clus scale="   91.566">  1  5  2 -1</clus>
<clus scale="   91.812">  7  8 -1 -1</clus>
<clus scale="   30.401">  1  5  2 -1</clus>
</clustering>
</event>
<event>
 9    1  0.1636528E-005  0.1031865E+03  0.7546771E-02  0.1274876E+00
         21   -1    0    0  501  502  0.00000000000E+00  0.00000000000E+00  0.11598423392E+03  0.11598423392E+03  0.00000000000E+00 0.  1.
         -1   -1    0    0    0  501 -0.00000000000E+00 -0.00000000000E+00 -0.24996994122E+03  0.24996994122E+03  0.00000000000E+00 0.  1.
         23    2    1    2    0    0  0.78009919312E+01  0.54611564116E+02 -0.16459124302E+03  0.19587545208E+03  0.90739390770E+02 0.  0.
         23    2    1    2    0    0 -0.21531049660E+02 -0.13922261254E+02 -0.24959007502E+02  0.99853711015E+02  0.93222293954E+02 0.  0.
        -13    1    4    4    0    0 -0.51802733403E+02 -0.94514437522E+01 -0.39643602525E+02  0.65912579969E+02  0.00000000000E+00 0.  1.
         13    1    4    4    0    0  0.30271683743E+02 -0.44708175014E+01  0.14684595022E+02  0.33941131047E+02  0.00000000000E+00 0. -1.
        -13    1    3    3    0    0 -0.62342471886E+01  0.73833973785E+02 -0.84807440481E+02  0.11261715448E+03  0.00000000000E+00 0.  1.
         13    1    3    3    0    0  0.14035239120E+02 -0.19222409669E+02 -0.79783802542E+02  0.83258297597E+02  0.00000000000E+00 0. -1.
         -1    1    1    2    0  502  0.13730057729E+02 -0.40689302862E+02  0.55564543227E+02  0.70225012045E+02  0.00000000000E+00 0.  1.
<scales pt_clust_5="13000.00000" pt_clust_6="13000.00000" pt_clust_7="13000.00000" pt_clust_8="13000.00000" pt_clust_9="42.94338"></scales>
<clustering>
<clus scale="   42.943">  1  9  2 -1</clus>
<clus scale="   90.739">  7  8 -1 -1</clus>
<clus scale="   93.222">  5  6 -1 -1</clus>
<clus scale="  100.949">  2  7  1 -1</clus>
<clus scale="   42.943">  1  5  2 -1</clus>
</clustering>
</event>
<event>
 9    1  0.1636528E-005  0.9849904E+02  0.7546771E-02  0.1290485E+00
          2   -1    0    0  502    0 -0.00000000000E+00  0.00000000000E+00  0.22291437236E+03  0.22291437236E+03  0.00000000000E+00 0. -1.
         21   -1    0    0  501  502  0.00000000000E+00 -0.00000000000E+00 -0.12274678049E+03  0.12274678049E+03  0.00000000000E+00 0.  1.
         23    2    1    2    0    0  0.18609602918E+02  0.67422868865E+00  0.17681603845E+03  0.19666456101E+03  0.84061086117E+02 0.  0.
         23    2    1    2    0    0 -0.27163484517E+02 -0.23552302094E+02 -0.57426644157E+02  0.11791520157E+03  0.96507043661E+02 0.  0.
        -13    1    4    4    0    0 -0.31386858163E+02  0.26575697899E+02  0.58361490149E+00  0.41130805858E+02  0.00000000000E+00 0. -1.
         13    1    4    4    0    0  0.42233736460E+01 -0.50127999993E+02 -0.58010259059E+02  0.76784395708E+02  0.00000000000E+00 0.  1.
        -13    1    3    3    0    0  0.24482336601E+02 -0.36072428956E+02  0.12840264829E+03  0.13560178842E+03  0.00000000000E+00 0. -1.
         13    1    3    3    0    0 -0.58727336827E+01  0.36746657645E+02  0.48413390160E+02  0.61062772585E+02  0.00000000000E+00 0.  1.
          2    1    1    2  501    0  0.85538815987E+01  0.22878073405E+02 -0.19221802424E+02  0.31081390277E+02  0.00000000000E+00 0. -1.
<scales pt_clust_5="13000.00000" pt_clust_6="13000.00000" pt_clust_7="13000.00000" pt_clust_8="13000.00000" pt_clust_9="24.42489"></scales>
<clustering>
<clus scale="   24.425">  2  9  1 -1</clus>
<clus scale="   84.061">  7  8 -1 -1</clus>
<clus scale="   86.341">  1  7  2 -1</clus>
<clus scale="   96.507">  5  6 -1 -1</clus>
<clus scale="   24.425">  2  5  1 -1</clus>
</clustering>
</event>
<event>
 9    1  0.1636528E-005  0.1340454E+03  0.7546771E-02  0.1221662E+00
         21   -1    0    0  501  502  0.00000000000E+00  0.00000000000E+00  0.16131403618E+03  0.16131403618E+03  0.00000000000E+00 0. -1.
          2   -1    0    0  502    0 -0.00000000000E+00 -0.00000000000E+00 -0.41740397309E+03  0.41740397309E+03  0.00000000000E+00 0. -1.
         23    2    1    2    0    0  0.77656029933E+02 -0.66382325263E+02 -0.31940688150E+03  0.34801548228E+03  0.93042720638E+02 0.  0.
         23    2    1    2    0    0 -0.49395790758E+02  0.60594414385E+01  0.10743295367E+03  0.15080438128E+03  0.93399469510E+02 0.  0.
        -11    1    3    3    0    0  0.50445871568E+02  0.72211537062E+01 -0.70206632050E+02  0.86751957920E+02  0.00000000000E+00 0.  1.
         11    1    3    3    0    0  0.27210158366E+02 -0.73603478969E+02 -0.24920024945E+03  0.26126352436E+03  0.00000000000E+00 0. -1.
        -11    1    4    4    0    0 -0.76473109013E+02  0.13475446405E+02  0.81819420456E+02  0.11280133697E+03  0.00000000000E+00 0.  1.
         11    1    4    4    0    0  0.27077318255E+02 -0.74160049660E+01  0.25613533211E+02  0.38003044313E+02  0.00000000000E+00 0. -1.
          2    1    1    2  501    0 -0.28260239175E+02  0.60322883824E+02 -0.44116009074E+02  0.79898145709E+02  0.00000000000E+00 0. -1.
<scales pt_clust_5="13000.00000" pt_clust_6="13000.00000" pt_clust_7="13000.00000" pt_clust_8="13000.00000" pt_clust_9="66.61453"></scales>
<clustering>
<clus scale="   66.615">  1  9  2 -1</clus>
<clus scale="   93.043">  5  6 -1 -1</clus>
<clus scale="   93.399">  7  8 -1 -1</clus>
<clus scale="  133.797">  2  5  1 -1</clus>
<clus scale="   66.615">  1  5  2 -1</clus>
</clustering>
</event>
<event>
 9    1  0.1636528E-005  0.1175315E+03  0.7546771E-02  0.1248647E+00
         21   -1    0    0  501  502  0.00000000000E+00  0.00000000000E+00  0.18051481980E+03  0.18051481980E+03  0.00000000000E+00 0.  1.
          3   -1    0    0  502    0 -0.00000000000E+00 -0.00000000000E+00 -0.19632192097E+03  0.19632192097E+03  0.00000000000E+00 0. -1.
         23    2    1    2    0    0  0.27926393069E+02  0.65828201180E+02 -0.14630264980E+03  0.18699395887E+03  0.91918658689E+02 0.  0.
         23    2    1    2    0    0 -0.29249283884E+02 -0.39128381948E+02  0.85552017443E+02  0.13754984373E+03  0.95990941970E+02 0.  0.
        -11    1    3    3    0    0  0.53039951262E+02  0.33616126424E+02 -0.12729859724E+03  0.14194440195E+03  0.00000000000E+00 0. -1.
         11    1    3    3    0    0 -0.25113558194E+02  0.32212074756E+02 -0.19004052565E+02  0.45049556925E+02  0.00000000000E+00 0.  1.
        -13    1    4    4    0    0 -0.45642782029E+02  0.12632419608E+02  0.17491183303E+02  0.50485473849E+02  0.00000000000E+00 0. -1.
         13    1    4    4    0    0  0.16393498145E+02 -0.51760801556E+02  0.68060834140E+02  0.87064369882E+02  0.00000000000E+00 0.  1.
          3    1    1    2  501    0  0.13228908155E+01 -0.26699819231E+02  0.44943531190E+02  0.52292938174E+02  0.00000000000E+00 0. -1.
<scales pt_clust_5="13000.00000" pt_clust_6="13000.00000" pt_clust_7="13000.00000" pt_clust_8="13000.00000" pt_clust_9="26.73257"></scales>
<clustering>
<clus scale="   26.733">  1  9  2 -1</clus>
<clus scale="   91.919">  5  6 -1 -1</clus>
<clus scale="   95.991">  7  8 -1 -1</clus>
<clus scale="  114.230">  2  5  1 -1</clus>
<clus scale="   26.733">  1  5  2 -1</clus>
</clustering>
</event>
<event>
 9    1  0.1636528E-005  0.1322523E+03  0.7546771E-02  0.1225212E+00
         -3   -1    0    0    0  501 -0.00000000000E+00  0.00000000000E+00  0.38148410784E+03  0.38148410784E+03  0.00000000000E+00 0.  1.
         21   -1    0    0  501  502  0.00000000000E+00 -0.00000000000E+00 -0.11275512429E+03  0.11275512429E+03  0.00000000000E+00 0.  1.
         23    2    1    2    0    0 -0.24643896274E+02  0.81336312771E+02  0.18075244401E+03  0.21941741584E+03  0.90827523155E+02 0.  0.
         23    2    1    2    0    0  0.18006001780E+02 -0.10090338475E+03  0.15265834789E+03  0.20691991440E+03  0.94897685104E+02 0.  0.
        -11    1    4    4    0    0 -0.34084270277E+02 -0.43684045782E+02  0.96623160019E+02  0.11138253179E+03  0.00000000000E+00 0.  1.
         11    1    4    4    0    0  0.52090272057E+02 -0.57219338970E+02  0.56035187874E+02  0.95537382606E+02  0.00000000000E+00 0. -1.
        -13    1    3    3    0    0 -0.46497822623E+02  0.48555536701E+02  0.16277520501E+03  0.17611205245E+03  0.00000000000E+00 0.  1.
         13    1    3    3    0    0  0.21853926349E+02  0.32780776070E+02  0.17977238999E+02  0.43305363393E+02  0.00000000000E+00 0. -1.
         -3    1    1    2    0  502  0.66378944942E+01  0.19567071981E+02 -0.64681808352E+02  0.67901901895E+02  0.00000000000E+00 0.  1.
<scales pt_clust_5="13000.00000" pt_clust_6="13000.00000" pt_clust_7="13000.00000" pt_clust_8="13000.00000" pt_clust_9="20.66233"></scales>
<clustering>
<clus scale="   20.662">  2  9  1 -1</clus>
<clus scale="   90.828">  7  8 -1 -1</clus>
<clus scale="   94.898">  5  6 -1 -1</clus>
<clus scale="  129.363">  1  7  2 -1</clus>
<clus scale="   20.662">  2  5  1 -1</clus>
</clustering>
</event>
<event>
 9    1  0.1636528E-005  0.1701773E+03  0.7546771E-02  0.1177871E+00
         -1   -1    0    0    0  501 -0.00000000000E+00  0.00000000000E+00  0.54236470016E+03  0.54236470016E+03  0.00000000000E+00 0.  1.
         21   -1    0    0  501  502  0.00000000000E+00 -0.00000000000E+00 -0.88056459727E+02  0.88056459727E+02  0.00000000000E+00 0.  1.
         23    2    1    2    0    0  0.13480378981E+03 -0.67224924797E+02  0.37850373135E+03  0.41747062700E+03  0.91243616238E+02 0.  0.
         23    2    1    2    0    0 -0.92858616163E+02  0.80636709858E+02  0.50086550374E+02  0.16195360189E+03  0.92710868095E+02 0.  0.
        -11    1    3    3    0    0  0.86230088655E+02 -0.24273948004E+02  0.31193318598E+03  0.32454146924E+03  0.00000000000E+00 0.  1.
         11    1    3    3    0    0  0.48573701158E+02 -0.42950976793E+02  0.66570545362E+02  0.92929157757E+02  0.00000000000E+00 0. -1.
        -11    1    4    4    0    0 -0.83172181157E+02  0.10091677788E+03  0.36832357466E+02  0.13586180601E+03  0.00000000000E+00 0.  1.
         11    1    4    4    0    0 -0.96864350064E+01 -0.20280068025E+02  0.13254192908E+02  0.26091795873E+02  0.00000000000E+00 0. -1.
         -1    1    1    2    0  502 -0.41945173649E+02 -0.13411785061E+02  0.25717958711E+02  0.50996930998E+02  0.00000000000E+00 0.  1.
<scales pt_clust_5="13000.00000" pt_clust_6="13000.00000" pt_clust_7="13000.00000" pt_clust_8="13000.00000" pt_clust_9="44.03718"></scales>
<clustering>
<clus scale="   44.037">  2  9  1 -1</clus>
<clus scale="   91.244">  5  6 -1 -1</clus>
<clus scale="   92.711">  7  8 -1 -1</clus>
<clus scale="  169.382">  1  5  2 -1</clus>
<clus scale="   44.037">  2  5  1 -1</clus>
</clustering>
</event>
<event>
 9    1  0.1636528E-005  0.1062475E+03  0.7546771E-02  0.1268348E+00
         -1   -1    0    0    0  501 -0.00000000000E+00  0.00000000000E+00  0.59126529116E+03  0.59126529116E+03  0.00000000000E+00 0.  1.
         21   -1    0    0  501  502  0.00000000000E+00 -0.00000000000E+00 -0.32605351694E+02  0.32605351694E+02  0.00000000000E+00 0. -1.
         23    2    1    2    0    0 -0.28514994778E+02 -0.59397543322E+02  0.39143847012E+03  0.40697520811E+03  0.89797388880E+02 0.  0.
         23    2    1    2    0    0  0.19184106233E+02  0.26873729468E+02  0.15052562207E+03  0.17916460829E+03  0.91388000838E+02 0.  0.
        -13    1    3    3    0    0  0.24846223693E+02 -0.98726359756E+01  0.40252335999E+02  0.48322399840E+02  0.00000000000E+00 0. -1.
         13    1    3    3    0    0 -0.53361218471E+02 -0.49524907346E+02  0.35118613412E+03  0.35865280827E+03  0.00000000000E+00 0.  1.
        -13    1    4    4    0    0 -0.16502946876E+02  0.46779711286E+02  0.49008437778E+02  0.69731740384E+02  0.00000000000E+00 0. -1.
         13    1    4    4    0    0  0.35687053109E+02 -0.19905981818E+02  0.10151718429E+03  0.10943286790E+03  0.00000000000E+00 0.  1.
         -1    1    1    2    0  502  0.93308885451E+01  0.32523813854E+02  0.16695847285E+02  0.37730826458E+02  0.00000000000E+00 0.  1.
<scales pt_clust_5="13000.00000" pt_clust_6="13000.00000" pt_clust_7="13000.00000" pt_clust_8="13000.00000" pt_clust_9="33.83584"></scales>
<clustering>
<clus scale="   33.836">  2  9  1 -1</clus>
<clus scale="   89.797">  5  6 -1 -1</clus>
<clus scale="   91.388">  7  8 -1 -1</clus>
<clus scale="  104.882">  1  5  2 -1</clus>
<clus scale="   33.836">  2  5  1 -1</clus>
</clustering>
</event>
<event>
 9    1  0.1636528E-005  0.9385341E+02  0.7546771E-02  0.1293964E+00
          4   -1    0    0  502    0 -0.00000000000E+00  0.00000000000E+00  0.58923567878E+02  0.58923567878E+02  0.00000000000E+00 0. -1.
         21   -1    0    0  501  502  0.00000000000E+00 -0.00000000000E+00 -0.21879443305E+03  0.21879443305E+03  0.00000000000E+00 0.  1.
         23    2    1    2    0    0 -0.14923586183E+02 -0.10717639813E+02 -0.19761885478E+02  0.95318157534E+02  0.91419023241E+02 0.  0.
         23    2    1    2    0    0  0.31284621965E+02 -0.82939840850E+00 -0.10961229930E+03  0.14591607853E+03  0.91089134055E+02 0.  0.
        -11    1    4    4    0    0 -0.22977435430E+02 -0.86259340593E+01 -0.79853799780E+02  0.83540401104E+02  0.00000000000E+00 0.  1.
         11    1    4    4    0    0  0.54262057395E+02  0.77965356508E+01 -0.29758499521E+02  0.62375677428E+02  0.00000000000E+00 0. -1.
        -13    1    3    3    0    0 -0.18566489144E+02 -0.42542153428E+02 -0.36617398944E+02  0.59121766236E+02  0.00000000000E+00 0.  1.
         13    1    3    3    0    0  0.36429029605E+01  0.31824513615E+02  0.16855513465E+02  0.36196391298E+02  0.00000000000E+00 0. -1.
          4    1    1    2  501    0 -0.16361035782E+02  0.11547038222E+02 -0.30496680391E+02  0.36483764860E+02  0.00000000000E+00 0. -1.
<scales pt_clust_5="13000.00000" pt_clust_6="13000.00000" pt_clust_7="13000.00000" pt_clust_8="13000.00000" pt_clust_9="20.02542"></scales>
<clustering>
<clus scale="   20.025">  2  9  1 -1</clus>
<clus scale="   91.089">  5  6 -1 -1</clus>
<clus scale="   91.419">  7  8 -1 -1</clus>
<clus scale="   93.532">  2  5  1 -1</clus>
<clus scale="   20.025">  2  5  1 -1</clus>
</clustering>
</event>
<event>
 9    1  0.1636528E-005  0.1522790E+03  0.7546771E-02  0.1197736E+00
         21   -1    0    0  501  502  0.00000000000E+00  0.00000000000E+00  0.12772556636E+03  0.12772556636E+03  0.00000000000E+00 0.  1.
          2   -1    0    0  502    0 -0.00000000000E+00 -0.00000000000E+00 -0.58085204314E+03  0.58085204314E+03  0.00000000000E+00 0. -1.
         23    2    1    2    0    0 -0.56019362182E+02  0.11276542585E+03 -0.46868361568E+03  0.49350715233E+03  0.89614550080E+02 0.  0.
         23    2    1    2    0    0  0.44308530682E+00 -0.11786679164E+03 -0.19040785172E+02  0.14940644241E+03  0.89816238165E+02 0.  0.
        -11    1    4    4    0    0  0.10068446366E+02 -0.25761079906E+02  0.33095797286E+02  0.43131643235E+02  0.00000000000E+00 0. -1.
         11    1    4    4    0    0 -0.96253610596E+01 -0.92105711733E+02 -0.52136582459E+02  0.10627479918E+03  0.00000000000E+00 0.  1.
        -13    1    3    3    0    0 -0.25788492561E+02  0.94141464823E+02 -0.43024535186E+03  0.44117878977E+03  0.00000000000E+00 0. -1.
         13    1    3    3    0    0 -0.30230869621E+02  0.18623961024E+02 -0.38438263820E+02  0.52328362556E+02  0.00000000000E+00 0.  1.
          2    1    1    2  501    0  0.55576276875E+02  0.51013657924E+01  0.34597924077E+02  0.65664014762E+02  0.00000000000E+00 0. -1.
<scales pt_clust_5="13000.00000" pt_clust_6="13000.00000" pt_clust_7="13000.00000" pt_clust_8="13000.00000" pt_clust_9="55.80991"></scales>
<clustering>
<clus scale="   55.810">  1  9  2 -1</clus>
<clus scale="   89.615">  7  8 -1 -1</clus>
<clus scale="   89.816">  5  6 -1 -1</clus>
<clus scale="  152.160">  2  7  1 -1</clus>
<clus scale="   55.810">  1  5  2 -1</clus>
</clustering>
</event>
<event>
 9    1  0.1636528E-005  0.1002128E+03  0.7546771E-02  0.1280340E+00
         -3   -1    0    0    0  501 -0.00000000000E+00  0.00000000000E+00  0.48863134702E+02  0.48863134702E+02  0.00000000000E+00 0.  1.
         21   -1    0    0  501  502  0.00000000000E+00 -0.00000000000E+00 -0.52721174483E+03  0.52721174483E+03  0.00000000000E+00 0. -1.
         23    2    1    2    0    0  0.58683898299E+01  0.35710867067E+02 -0.32771535581E+02  0.10399742238E+03  0.91824758603E+02 0.  0.
         23    2    1    2    0    0 -0.45366154723E+02 -0.46890679960E+02 -0.28031033079E+03  0.30178900117E+03  0.90806915030E+02 0.  0.
        -13    1    3    3    0    0 -0.31433258997E+02  0.44528366551E+02 -0.14939833586E+01  0.54525747910E+02  0.00000000000E+00 0. -1.
         13    1    3    3    0    0  0.37301648827E+02 -0.88174994836E+01 -0.31277552222E+02  0.49471674475E+02  0.00000000000E+00 0.  1.
        -13    1    4    4    0    0 -0.51878424713E+02  0.32991384963E+00 -0.21352636490E+03  0.21973845431E+03  0.00000000000E+00 0. -1.
         13    1    4    4    0    0  0.65122699906E+01 -0.47220593810E+02 -0.66783965887E+02  0.82050546859E+02  0.00000000000E+00 0.  1.
         -3    1    1    2    0  502  0.39497764893E+02  0.11179812893E+02 -0.16526674376E+03  0.17028845598E+03  0.00000000000E+00 0.  1.
<scales pt_clust_5="13000.00000" pt_clust_6="13000.00000" pt_clust_7="13000.00000" pt_clust_8="13000.00000" pt_clust_9="41.04950"></scales>
<clustering>
<clus scale="   41.050">  2  9  1 -1</clus>
<clus scale="   90.807">  7  8 -1 -1</clus>
<clus scale="   91.825">  5  6 -1 -1</clus>
<clus scale="   99.281">  2  7  1 -1</clus>
<clus scale="   41.050">  2  5  1 -1</clus>
</clustering>
</event>
<event>
 9    1  0.1636528E-005  0.1425220E+03  0.7546771E-02  0.1217210E+00
         21   -1    0    0  501  502  0.00000000000E+00  0.00000000000E+00  0.25780525750E+03  0.25780525750E+03  0.00000000000E+00 0. -1.
          1   -1    0    0  502    0 -0.00000000000E+00 -0.00000000000E+00 -0.29707653420E+03  0.29707653420E+03  0.00000000000E+00 0. -1.
         23    2    1    2    0    0 -0.74420548784E+02  0.29838083096E+02 -0.37824169335E+02  0.12795194542E+03  0.92262144271E+02 0.  0.
         23    2    1    2    0    0 -0.78399119624E+02  0.61472439566E+02  0.14362868452E+03  0.19728131485E+03  0.91462754115E+02 0.  0.
        -13    1    4    4    0    0 -0.90035432910E+01  0.60257355307E+02  0.93762539560E+02  0.11181872153E+03  0.00000000000E+00 0. -1.
         13    1    4    4    0    0 -0.69395576333E+02  0.12150842596E+01  0.49866144956E+02  0.85462593321E+02  0.00000000000E+00 0.  1.
        -13    1    3    3    0    0 -0.89335236720E+02  0.10920653178E+01 -0.32836860582E+02  0.95185274803E+02  0.00000000000E+00 0. -1.
         13    1    3    3    0    0  0.14914687937E+02  0.28746017779E+02 -0.49873087533E+01  0.32766670612E+02  0.00000000000E+00 0.  1.
          1    1    1    2  501    0  0.15281966841E+03 -0.91310522663E+02 -0.14507579188E+03  0.22964853144E+03  0.00000000000E+00 0. -1.
<scales pt_clust_5="13000.00000" pt_clust_6="13000.00000" pt_clust_7="13000.00000" pt_clust_8="13000.00000" pt_clust_9="109.30279"></scales>
<clustering>
<clus scale="   91.463">  5  6 -1 -1</clus>
<clus scale="   92.262">  7  8 -1 -1</clus>
<clus scale="  122.234">  2  7  1 -1</clus>
<clus scale="  109.303">  1  9  2 -1</clus>
<clus scale="  109.303">  1  5  2 -1</clus>
</clustering>
</event>
<event>
 9    1  0.1636528E-005  0.9879687E+02  0.7546771E-02  0.1284106E+00
         21   -1    0    0  501  502  0.00000000000E+00  0.00000000000E+00  0.49108748701E+03  0.49108748701E+03  0.00000000000E+00 0. -1.
         -4   -1    0    0    0  501 -0.00000000000E+00 -0.00000000000E+00 -0.32458235855E+02  0.32458235855E+02  0.00000000000E+00 0.  1.
         23    2    1    2    0    0  0.27995733026E+01 -0.16948982535E+02  0.13594424029E+03  0.16515862687E+03  0.92203199188E+02 0.  0.
         23    2    1    2    0    0 -0.23355558908E+01  0.62423609627E+02  0.20712913088E+03  0.23420449488E+03  0.89705667063E+02 0.  0.
        -11    1    4    4    0    0  0.29187606797E+02 -0.30909912749E+01  0.26700704597E+02  0.39678687523E+02  0.00000000000E+00 0.  1.
         11    1    4    4    0    0 -0.31523162688E+02  0.65514600902E+02  0.18042842628E+03  0.19452580736E+03  0.00000000000E+00 0. -1.
        -13    1    3    3    0    0  0.24768569078E+02 -0.27270200287E+02  0.11828708464E+02  0.38691913649E+02  0.00000000000E+00 0.  1.
         13    1    3    3    0    0 -0.21968995776E+02  0.10321217753E+02  0.12411553183E+03  0.12646671322E+03  0.00000000000E+00 0. -1.
         -4    1    1    2    0  502 -0.46401741185E+00 -0.45474627093E+02  0.11555587998E+03  0.12418260111E+03  0.00000000000E+00 0.  1.
<scales pt_clust_5="13000.00000" pt_clust_6="13000.00000" pt_clust_7="13000.00000" pt_clust_8="13000.00000" pt_clust_9="45.47699"></scales>
<clustering>
<clus scale="   45.477">  1  9  2 -1</clus>
<clus scale="   89.706">  5  6 -1 -1</clus>
<clus scale="   92.203">  7  8 -1 -1</clus>
<clus scale="   96.470">  1  5  2 -1</clus>
<clus scale="   45.477">  1  5  2 -1</clus>
</clustering>
</event>
<event>
 9    1  0.1636528E-005  0.1082310E+03  0.7546771E-02  0.1263889E+00
          1   -1    0    0  502    0 -0.00000000000E+00  0.00000000000E+00  0.59391985715E+03  0.59391985715E+03  0.00000000000E+00 0. -1.
         21   -1    0    0  501  502  0.00000000000E+00 -0.00000000000E+00 -0.87119690176E+02  0.87119690176E+02  0.00000000000E+00 0. -1.
         23    2    1    2    0    0 -0.25257828170E+02  0.46338948379E+02  0.26334313142E+03  0.28391755488E+03  0.92056054047E+02 0.  0.
         23    2    1    2    0    0  0.68799241875E+02 -0.18741018580E+02  0.29927844155E+03  0.32113824547E+03  0.92074022749E+02 0.  0.
        -11    1    4    4    0    0 -0.19346610392E+02 -0.20559648977E+02  0.68207305036E+02  0.73818879427E+02  0.00000000000E+00 0.  1.
         11    1    4    4    0    0  0.88145852267E+02  0.18186303961E+01  0.23107113652E+03  0.24731936604E+03  0.00000000000E+00 0. -1.
        -13    1    3    3    0    0  0.24422053125E+02  0.40027226474E+02  0.18567412669E+03  0.19150325548E+03  0.00000000000E+00 0. -1.
         13    1    3    3    0    0 -0.49679881295E+02  0.63117219044E+01  0.77669004726E+02  0.92414299402E+02  0.00000000000E+00 0.  1.
          1    1    1    2  501    0 -0.43541413705E+02 -0.27597929798E+02 -0.55821405995E+02  0.75983746971E+02  0.00000000000E+00 0. -1.
<scales pt_clust_5="13000.00000" pt_clust_6="13000.00000" pt_clust_7="13000.00000" pt_clust_8="13000.00000" pt_clust_9="51.55095"></scales>
<clustering>
<clus scale="   51.551">  2  9  1 -1</clus>
<clus scale="   92.056">  7  8 -1 -1</clus>
<clus scale="   92.074">  5  6 -1 -1</clus>
<clus scale="  108.216">  1  7  2 -1</clus>
<clus scale="   51.551">  2  5  1 -1</clus>
</clustering>
</event>
<event>
 9    1  0.1636528E-005  0.1201658E+03  0.7546771E-02  0.1251389E+00
         21   -1    0    0  501  502  0.00000000000E+00  0.00000000000E+00  0.49661976306E+03  0.49661976306E+03  0.00000000000E+00 0. -1.
          2   -1    0    0  502    0 -0.00000000000E+00 -0.00000000000E+00 -0.77417203321E+02  0.77417203321E+02  0.00000000000E+00 0. -1.
         23    2    1    2    0    0  0.16078145089E+02 -0.12371706604E+02  0.25575127954E+02  0.98536780929E+02  0.92972276256E+02 0.  0.
         23    2    1    2    0    0 -0.30634864023E+02  0.87177377400E+02  0.11327012767E+03  0.18496962868E+03  0.11333689464E+03 0.  0.
        -13    1    3    3    0    0  0.30201826051E+02  0.28074120656E+02  0.35670585876E+02  0.54522447158E+02  0.00000000000E+00 0. -1.
         13    1    3    3    0    0 -0.14123680961E+02 -0.40445827260E+02 -0.10095457922E+02  0.44014333771E+02  0.00000000000E+00 0.  1.
        -13    1    4    4    0    0  0.17051040360E+02  0.56522709938E+02  0.82674010138E+00  0.59044374967E+02  0.00000000000E+00 0. -1.
         13    1    4    4    0    0 -0.47685904382E+02  0.30654667462E+02  0.11244338757E+03  0.12592525371E+03  0.00000000000E+00 0.  1.
          2    1    1    2  501    0  0.14556718933E+02 -0.74805670795E+02  0.28035730412E+03  0.29053055678E+03  0.00000000000E+00 0. -1.
<scales pt_clust_5="13000.00000" pt_clust_6="13000.00000" pt_clust_7="13000.00000" pt_clust_8="13000.00000" pt_clust_9="76.20883"></scales>
<clustering>
<clus scale="   76.209">  1  9  2 -1</clus>
<clus scale="   92.972">  5  6 -1 -1</clus>
<clus scale="  101.185">  2  5  1 -1</clus>
<clus scale="  113.337">  7  8 -1 -1</clus>
<clus scale="   76.209">  1  5  2 -1</clus>
</clustering>
</event>
<event>
 9    1  0.3437141E-005  0.1688644E+03  0.7546771E-02  0.1206448E+00
         -3   -1    0    0    0  501 -0.00000000000E+00  0.00000000000E+00  0.61948463255E+03  0.61948463255E+03  0.00000000000E+00 0.  1.
         21   -1    0    0  501  502  0.00000000000E+00 -0.00000000000E+00 -0.19951692160E+03  0.19951692160E+03  0.00000000000E+00 0.  1.
         23    2    1    2    0    0  0.24639049460E+01  0.47969162223E+01  0.35570122923E+03  0.36750908005E+03  0.92252253139E+02 0.  0.
         23    2    1    2    0    0 -0.12955529238E+03 -0.60721887096E+02 -0.12939036591E+03  0.21320106058E+03  0.90780527026E+02 0.  0.
        -11    1    4    4    0    0 -0.51212483178E+02 -0.73352363285E+02 -0.77729192997E+02  0.11851208831E+03  0.00000000000E+00 0.  1.
         11    1    4    4    0    0 -0.78342809201E+02  0.12630476189E+02 -0.51661172911E+02  0.94688972267E+02  0.00000000000E+00 0. -1.
        -11    1    3    3    0    0 -0.37214997510E+02  0.26572198963E+02  0.21083130313E+03  0.21573334508E+03  0.00000000000E+00 0. -1.
         11    1    3    3    0    0  0.39678902456E+02 -0.21775282741E+02  0.14486992610E+03  0.15177573497E+03  0.00000000000E+00 0.  1.
         -3    1    1    2    0  502  0.12709138743E+03  0.55924970873E+02  0.19365684763E+03  0.23829141353E+03  0.00000000000E+00 0.  1.
<scales pt_clust_5="13000.00000" pt_clust_6="13000.00000" pt_clust_7="13000.00000" pt_clust_8="13000.00000" pt_clust_9="142.38715"></scales>
<clustering>
<clus scale="   90.781">  5  6 -1 -1</clus>
<clus scale="   92.252">  7  8 -1 -1</clus>
<clus scale="   92.410">  1  7  2 -1</clus>
<clus scale="  142.387">  2  9  1 -1</clus>
<clus scale="  142.387">  2  5  1 -1</clus>
</clustering>
</event>
<event>
 9    1  0.1636528E-005  0.1494556E+03  0.7546771E-02  0.1201372E+00
         -3   -1    0    0    0  501 -0.00000000000E+00  0.00000000000E+00  0.32445553715E+03  0.32445553715E+03  0.00000000000E+00 0.  1.
         21   -1    0    0  501  502  0.00000000000E+00 -0.00000000000E+00 -0.35294469981E+03  0.35294469981E+03  0.00000000000E+00 0. -1.
         23    2    1    2    0    0 -0.57906522237E+02 -0.92970411180E+02  0.93365760234E+02  0.17069769040E+03  0.91781662937E+02 0.  0.
         23    2    1    2    0    0  0.18221891080E+03  0.82816758722E+02 -0.24616230783E+03  0.33060884266E+03  0.92972996455E+02 0.  0.
        -13    1    4    4    0    0  0.19534839000E+02  0.51346501738E+02 -0.58044049734E+02  0.79919865397E+02  0.00000000000E+00 0.  1.
         13    1    4    4    0    0  0.16268407180E+03  0.31470256984E+02 -0.18811825809E+03  0.25068897726E+03  0.00000000000E+00 0. -1.
        -13    1    3    3    0    0 -0.22667222972E+02  0.14182199204E+00  0.62471527189E+02  0.66456864357E+02  0.00000000000E+00 0.  1.
         13    1    3    3    0    0 -0.35239299264E+02 -0.93112233172E+02  0.30894233045E+02  0.10424082604E+03  0.00000000000E+00 0. -1.
         -3    1    1    2    0  502 -0.12431238856E+03  0.10153652457E+02  0.12430738493E+03  0.17609370391E+03  0.00000000000E+00 0.  1.
<scales pt_clust_5="13000.00000" pt_clust_6="13000.00000" pt_clust_7="13000.00000" pt_clust_8="13000.00000" pt_clust_9="124.72643"></scales>
<clustering>
<clus scale="   91.782">  7  8 -1 -1</clus>
<clus scale="   92.973">  5  6 -1 -1</clus>
<clus scale="  124.726">  2  9  1 -1</clus>
<clus scale="  148.717">  1  7  2 -1</clus>
<clus scale="  124.726">  2  5  1 -1</clus>
</clustering>
</event>
<event>
 9    1  0.1636528E-005  0.1130953E+03  0.7546771E-02  0.1255465E+00
          1   -1    0    0  502    0 -0.00000000000E+00  0.00000000000E+00  0.17731382003E+03  0.17731382003E+03  0.00000000000E+00 0. -1.
         21   -1    0    0  501  502  0.00000000000E+00 -0.00000000000E+00 -0.11843327730E+03  0.11843327730E+03  0.00000000000E+00 0. -1.
         23    2    1    2    0    0 -0.51895150446E+02 -0.10805467858E+02  0.38957145459E+02  0.11285074794E+03  0.91693878490E+02 0.  0.
         23    2    1    2    0    0  0.74821494738E+02  0.28463248560E+02  0.58980634985E+02  0.13428686164E+03  0.90254270331E+02 0.  0.
        -11    1    3    3    0    0 -0.72539535437E+02 -0.29257645021E+02  0.28206833671E+02  0.83148177727E+02  0.00000000000E+00 0. -1.
         11    1    3    3    0    0  0.20644384990E+02  0.18452177163E+02  0.10750311788E+02  0.29702570212E+02  0.00000000000E+00 0.  1.
        -11    1    4    4    0    0  0.79030363992E+02  0.18803987093E+01  0.11743237900E+02  0.79920197500E+02  0.00000000000E+00 0.  1.
         11    1    4    4    0    0 -0.42088692537E+01  0.26582849851E+02  0.47237397085E+02  0.54366664142E+02  0.00000000000E+00 0. -1.
          1    1    1    2  501    0 -0.22926344292E+02 -0.17657780702E+02 -0.39057237710E+02  0.48609487751E+02  0.00000000000E+00 0. -1.
<scales pt_clust_5="13000.00000" pt_clust_6="13000.00000" pt_clust_7="13000.00000" pt_clust_8="13000.00000" pt_clust_9="28.93811"></scales>
<clustering>
<clus scale="   28.938">  2  9  1 -1</clus>
<clus scale="   90.254">  7  8 -1 -1</clus>
<clus scale="   91.694">  5  6 -1 -1</clus>
<clus scale="  111.931">  2  7  1 -1</clus>
<clus scale="   28.938">  2  5  1 -1</clus>
</clustering>
</event>
<event>
 9    1  0.1636528E-005  0.1582754E+03  0.7546771E-02  0.1191345E+00
         21   -1    0    0  501  502  0.00000000000E+00  0.00000000000E+00  0.95400117153E+02  0.95400117153E+02  0.00000000000E+00 0. -1.
         -1   -1    0    0    0  501 -0.00000000000E+00 -0.00000000000E+00 -0.34039436600E+03  0.34039436600E+03  0.00000000000E+00 0.  1.
         23    2    1    2    0    0 -0.26945882219E+02  0.13737539604E+03 -0.15549928015E+03  0.22963799614E+03  0.94633520165E+02 0.  0.
         23    2    1    2    0    0  0.32606854680E+02 -0.10876786764E+03 -0.98647261293E+02  0.17559177287E+03  0.90595433315E+02 0.  0.
        -11    1    4    4    0    0 -0.21777991622E+02 -0.42200702504E+01 -0.43861991178E+00  0.22187435621E+02  0.00000000000E+00 0.  1.
         11    1    4    4    0    0  0.54384846302E+02 -0.10454779739E+03 -0.98208641381E+02  0.15340433725E+03  0.00000000000E+00 0. -1.
        -13    1    3    3    0    0  0.26190736826E+02  0.10017318615E+03 -0.10467598590E+03  0.14723343351E+03  0.00000000000E+00 0. -1.
         13    1    3    3    0    0 -0.53136619044E+02  0.37202209893E+02 -0.50823294251E+02  0.82404562634E+02  0.00000000000E+00 0.  1.
         -1    1    1    2    0  502 -0.56609724619E+01 -0.28607528408E+02  0.91522925914E+01  0.30564714141E+02  0.00000000000E+00 0.  1.
<scales pt_clust_5="13000.00000" pt_clust_6="13000.00000" pt_clust_7="13000.00000" pt_clust_8="13000.00000" pt_clust_9="29.16226"></scales>
<clustering>
<clus scale="   29.162">  1  9  2 -1</clus>
<clus scale="   90.595">  5  6 -1 -1</clus>
<clus scale="   94.634">  7  8 -1 -1</clus>
<clus scale="  155.895">  1  5  2 -1</clus>
<clus scale="   29.162">  1  5  2 -1</clus>
</clustering>
</event>
<event>
 9    1  0.1636528E-005  0.1194864E+03  0.7546771E-02  0.1246745E+00
         21   -1    0    0  501  502  0.00000000000E+00  0.00000000000E+00  0.46218824544E+02  0.46218824544E+02  0.00000000000E+00 0. -1.
         -1   -1    0    0    0  501 -0.00000000000E+00 -0.00000000000E+00 -0.44516100235E+03  0.44516100235E+03  0.00000000000E+00 0.  1.
         23    2    1    2    0    0  0.46558910409E+02  0.41973153852E+02 -0.17558457228E+03  0.20351418858E+03  0.81600276627E+02 0.  0.
         23    2    1    2    0    0 -0.67013626085E+02 -0.76399934134E+02 -0.19879291909E+03  0.24088668118E+03  0.90443310828E+02 0.  0.
        -11    1    3    3    0    0  0.44463385437E+02  0.31221344371E+01 -0.32312225495E+02  0.55052886250E+02  0.00000000000E+00 0. -1.
         11    1    3    3    0    0  0.20955249719E+01  0.38851019414E+02 -0.14327234679E+03  0.14846130233E+03  0.00000000000E+00 0.  1.
        -11    1    4    4    0    0 -0.86529338766E+02 -0.42025606171E+02 -0.13319162078E+03  0.16429694424E+03  0.00000000000E+00 0.  1.
         11    1    4    4    0    0  0.19515712682E+02 -0.34374327963E+02 -0.65601298314E+02  0.76589736943E+02  0.00000000000E+00 0. -1.
         -1    1    1    2    0  502  0.20454715675E+02  0.34426780283E+02 -0.24564686433E+02  0.46978957136E+02  0.00000000000E+00 0.  1.
<scales pt_clust_5="13000.00000" pt_clust_6="13000.00000" pt_clust_7="13000.00000" pt_clust_8="13000.00000" pt_clust_9="40.04496"></scales>
<clustering>
<clus scale="   40.045">  1  9  2 -1</clus>
<clus scale="   81.600">  5  6 -1 -1</clus>
<clus scale="   90.443">  7  8 -1 -1</clus>
<clus scale="  112.941">  2  5  1 -1</clus>
<clus scale="   40.045">  1  5  2 -1</clus>
</clustering>
</event>
<event>
 9    1  0.1636528E-005  0.1223063E+03  0.7546771E-02  0.1239531E+00
         21   -1    0    0  501  502  0.00000000000E+00  0.00000000000E+00  0.44014407801E+03  0.44014407801E+03  0.00000000000E+00 0.  1.
          3   -1    0    0  502    0 -0.00000000000E+00 -0.00000000000E+00 -0.68136417898E+02  0.68136417898E+02  0.00000000000E+00 0. -1.
         23    2    1    2    0    0 -0.42471584164E+02 -0.67603344593E+02  0.72509818390E+02  0.14158953977E+03  0.91738085591E+02 0.  0.
         23    2    1    2    0    0  0.66306430961E+02  0.52454665641E+02  0.85550285299E+02  0.15088748236E+03  0.91105138623E+02 0.  0.
        -11    1    3    3    0    0  0.22292217928E+02 -0.28637137203E+02  0.51752060801E+02  0.63208420360E+02  0.00000000000E+00 0.  1.
         11    1    3    3    0    0 -0.64763802093E+02 -0.38966207390E+02  0.20757757589E+02  0.78381119411E+02  0.00000000000E+00 0. -1.
        -11    1    4    4    0    0  0.16201297119E+02 -0.12049835382E+02  0.62995453780E+02  0.66152156110E+02  0.00000000000E+00 0.  1.
         11    1    4    4    0    0  0.50105133842E+02  0.64504501023E+02  0.22554831519E+02  0.84735326249E+02  0.00000000000E+00 0. -1.
          3    1    1    2  501    0 -0.23834846797E+02  0.15148678952E+02  0.21394755642E+03  0.21580347377E+03  0.00000000000E+00 0. -1.
<scales pt_clust_5="13000.00000" pt_clust_6="13000.00000" pt_clust_7="13000.00000" pt_clust_8="13000.00000" pt_clust_9="28.24150"></scales>
<clustering>
<clus scale="   28.242">  1  9  2 -1</clus>
<clus scale="   91.105">  7  8 -1 -1</clus>
<clus scale="   91.738">  5  6 -1 -1</clus>
<clus scale="  121.832">  1  7  2 -1</clus>
<clus scale="   28.242">  1  5  2 -1</clus>
</clustering>
</event>
<event>
 9    1  0.1636528E-005  0.1224831E+03  0.7546771E-02  0.1239495E+00
         -4   -1    0    0    0  501 -0.00000000000E+00  0.00000000000E+00  0.73458651034E+03  0.73458651034E+03  0.00000000000E+00 0.  1.
         21   -1    0    0  501  502  0.00000000000E+00 -0.00000000000E+00 -0.32923563964E+02  0.32923563964E+02  0.00000000000E+00 0. -1.
         23    2    1    2    0    0  0.49021411945E+02 -0.49054690322E+02  0.40992734297E+03  0.42592673090E+03  0.92540218897E+02 0.  0.
         23    2    1    2    0    0 -0.66962910454E+02  0.80498287172E+02  0.25297492615E+03  0.28854574114E+03  0.91095147279E+02 0.  0.
        -13    1    3    3    0    0 -0.46450144217E+01 -0.60322932390E+02  0.19955962743E+03  0.20852931984E+03  0.00000000000E+00 0. -1.
         13    1    3    3    0    0  0.53666426367E+02  0.11268242068E+02  0.21036771553E+03  0.21739741106E+03  0.00000000000E+00 0.  1.
        -13    1    4    4    0    0 -0.61061072270E+02  0.10399034860E+02  0.75625523195E+02  0.97753845097E+02  0.00000000000E+00 0.  1.
         13    1    4    4    0    0 -0.59018381839E+01  0.70099252312E+02  0.17734940295E+03  0.19079189605E+03  0.00000000000E+00 0. -1.
         -4    1    1    2    0  502  0.17941498509E+02 -0.31443596850E+02  0.38760677262E+02  0.53037602260E+02  0.00000000000E+00 0.  1.
<scales pt_clust_5="13000.00000" pt_clust_6="13000.00000" pt_clust_7="13000.00000" pt_clust_8="13000.00000" pt_clust_9="36.20217"></scales>
<clustering>
<clus scale="   36.202">  2  9  1 -1</clus>
<clus scale="   91.095">  7  8 -1 -1</clus>
<clus scale="   92.540">  5  6 -1 -1</clus>
<clus scale="  121.395">  2  7  1 -1</clus>
<clus scale="   36.202">  2  5  1 -1</clus>
</clustering>
</event>
<event>
 9    1  0.1636528E-005  0.1010817E+03  0.7546771E-02  0.1282562E+00
          1   -1    0    0  502    0 -0.00000000000E+00  0.00000000000E+00  0.19632034133E+03  0.19632034133E+03  0.00000000000E+00 0. -1.
         21   -1    0    0  501  502  0.00000000000E+00 -0.00000000000E+00 -0.11644457498E+03  0.11644457498E+03  0.00000000000E+00 0.  1.
         23    2    1    2    0    0  0.22757506624E+02  0.54324181987E+01  0.12845137816E+03  0.16243682755E+03  0.96636179132E+02 0.  0.
         23    2    1    2    0    0 -0.48952998517E+02 -0.81484895780E+01 -0.70698484183E+01  0.10117212031E+03  0.87880721577E+02 0.  0.
        -11    1    3    3    0    0 -0.10271706566E+02  0.45863027761E+02  0.55451548889E+02  0.72689748558E+02  0.00000000000E+00 0.  1.
         11    1    3    3    0    0  0.33029213191E+02 -0.40430609563E+02  0.72999829273E+02  0.89747078991E+02  0.00000000000E+00 0. -1.
        -13    1    4    4    0    0 -0.72634481959E+02 -0.74178457997E+01  0.74383724015E+01  0.73390202273E+02  0.00000000000E+00 0.  1.
         13    1    4    4    0    0  0.23681483442E+02 -0.73064377830E+00 -0.14508220820E+02  0.27781918035E+02  0.00000000000E+00 0. -1.
          1    1    1    2  501    0  0.26195491893E+02  0.27160713793E+01 -0.41505763395E+02  0.49155968450E+02  0.00000000000E+00 0. -1.
<scales pt_clust_5="13000.00000" pt_clust_6="13000.00000" pt_clust_7="13000.00000" pt_clust_8="13000.00000" pt_clust_9="26.33592"></scales>
<clustering>
<clus scale="   26.336">  2  9  1 -1</clus>
<clus scale="   87.881">  7  8 -1 -1</clus>
<clus scale="   92.747">  2  7  1 -1</clus>
<clus scale="   96.636">  5  6 -1 -1</clus>
<clus scale="   26.336">  2  5  1 -1</clus>
</clustering>
</event>
<event>
 9    1  0.1636528E-005  0.9357130E+02  0.7546771E-02  0.1298312E+00
         -1   -1    0    0    0  501 -0.00000000000E+00  0.00000000000E+00  0.16428217884E+03  0.16428217884E+03  0.00000000000E+00 0.  1.
         21   -1    0    0  501  502  0.00000000000E+00 -0.00000000000E+00 -0.69682175558E+02  0.69682175558E+02  0.00000000000E+00 0. -1.
         23    2    1    2    0    0 -0.15963130246E+02 -0.22206430452E+01  0.80354585982E+02  0.12352652289E+03  0.92423966515E+02 0.  0.
         23    2    1    2    0    0  0.99490434819E+01 -0.17348354051E+02  0.58976082338E+01  0.88328991573E+02  0.85832861509E+02 0.  0.
        -11    1    3    3    0    0 -0.52912912101E+02 -0.28483754377E+01  0.29453677703E+02  0.60625148576E+02  0.00000000000E+00 0. -1.
         11    1    3    3    0    0  0.36949781855E+02  0.62773239252E+00  0.50900908280E+02  0.62901374315E+02  0.00000000000E+00 0.  1.
        -13    1    4    4    0    0  0.38650303105E+02 -0.10994650147E+01  0.28767803257E+02  0.48193788580E+02  0.00000000000E+00 0.  1.
         13    1    4    4    0    0 -0.28701259623E+02 -0.16248889036E+02 -0.22870195023E+02  0.40135202993E+02  0.00000000000E+00 0. -1.
         -1    1    1    2    0  502  0.60140867641E+01  0.19568997096E+02  0.83478090641E+01  0.22108839932E+02  0.00000000000E+00 0.  1.
<scales pt_clust_5="13000.00000" pt_clust_6="13000.00000" pt_clust_7="13000.00000" pt_clust_8="13000.00000" pt_clust_9="20.47230"></scales>
<clustering>
<clus scale="   20.472">  2  9  1 -1</clus>
<clus scale="   85.833">  7  8 -1 -1</clus>
<clus scale="   87.067">  2  7  1 -1</clus>
<clus scale="   92.424">  5  6 -1 -1</clus>
<clus scale="   20.472">  2  5  1 -1</clus>
</clustering>
</event>
<event>
 9    1  0.1636528E-005  0.1106013E+03  0.7546771E-02  0.1259830E+00
          1   -1    0    0  502    0 -0.00000000000E+00  0.00000000000E+00  0.17943995337E+03  0.17943995337E+03  0.00000000000E+00 0. -1.
         21   -1    0    0  501  502  0.00000000000E+00 -0.00000000000E+00 -0.20329791254E+03  0.20329791254E+03  0.00000000000E+00 0. -1.
         23    2    1    2    0    0 -0.45863819084E+02  0.46978730811E+02  0.28568875105E+02  0.11491738663E+03  0.89885115982E+02 0.  0.
         23    2    1    2    0    0  0.83842636934E+02  0.48269919024E+02  0.30219098030E+02  0.13611988692E+03  0.90861745965E+02 0.  0.
        -11    1    4    4    0    0  0.92228244487E+01  0.43952619621E+02 -0.16648855683E+02  0.47896530750E+02  0.00000000000E+00 0.  1.
         11    1    4    4    0    0  0.74619812485E+02  0.43172994037E+01  0.46867953713E+02  0.88223356175E+02  0.00000000000E+00 0. -1.
        -11    1    3    3    0    0  0.27406979691E+02  0.14560834636E+02  0.10694855098E+02  0.32825909989E+02  0.00000000000E+00 0.  1.
         11    1    3    3    0    0 -0.73270798775E+02  0.32417896175E+02  0.17874020007E+02  0.82091476639E+02  0.00000000000E+00 0. -1.
          1    1    1    2  501    0 -0.37978817850E+02 -0.95248649835E+02 -0.82645932308E+02  0.13170059236E+03  0.00000000000E+00 0. -1.
<scales pt_clust_5="13000.00000" pt_clust_6="13000.00000" pt_clust_7="13000.00000" pt_clust_8="13000.00000" pt_clust_9="102.54119"></scales>
<clustering>
<clus scale="   89.885">  7  8 -1 -1</clus>
<clus scale="   90.862">  5  6 -1 -1</clus>
<clus scale="  102.541">  2  9  1 -1</clus>
<clus scale="  109.800">  1  7  2 -1</clus>
<clus scale="  102.541">  2  5  1 -1</clus>
</clustering>
</event>
<event>
 9    1  0.1636528E-005  0.1594583E+03  0.7546771E-02  0.1189319E+00
         21   -1    0    0  501  502  0.00000000000E+00  0.00000000000E+00  0.64880462965E+02  0.64880462965E+02  0.00000000000E+00 0. -1.
          1   -1    0    0  502    0 -0.00000000000E+00 -0.00000000000E+00 -0.10505731459E+04  0.10505731459E+04  0.00000000000E+00 0. -1.
         23    2    1    2    0    0 -0.92066248408E+02 -0.10213521996E+03 -0.66494934692E+03  0.68527719911E+03  0.92408919442E+02 0.  0.
         23    2    1    2    0    0  0.63699997574E+02  0.10124692554E+03 -0.35491951995E+03  0.38575293838E+03  0.92351687639E+02 0.  0.
        -11    1    3    3    0    0 -0.43671027480E+02 -0.90437134934E+02 -0.56220668842E+03  0.57110629003E+03  0.00000000000E+00 0. -1.
         11    1    3    3    0    0 -0.48395220928E+02 -0.11698085031E+02 -0.10274265851E+03  0.11417090908E+03  0.00000000000E+00 0.  1.
        -11    1    4    4    0    0  0.23982086925E+02 -0.14611511784E+02 -0.79987227316E+02  0.84773777217E+02  0.00000000000E+00 0. -1.
         11    1    4    4    0    0  0.39717910649E+02  0.11585843732E+03 -0.27493229263E+03  0.30097916117E+03  0.00000000000E+00 0.  1.
          1    1    1    2  501    0  0.28366250834E+02  0.88829442582E+00  0.34176183981E+02  0.44423471328E+02  0.00000000000E+00 0. -1.
<scales pt_clust_5="13000.00000" pt_clust_6="13000.00000" pt_clust_7="13000.00000" pt_clust_8="13000.00000" pt_clust_9="28.38016"></scales>
<clustering>
<clus scale="   28.380">  1  9  2 -1</clus>
<clus scale="   92.352">  7  8 -1 -1</clus>
<clus scale="   92.409">  5  6 -1 -1</clus>
<clus scale="  159.425">  1  7  2 -1</clus>
<clus scale="   28.380">  1  5  2 -1</clus>
</clustering>
</event>
<event>
 9    1  0.1636528E-005  0.2593280E+03  0.7546771E-02  0.1107655E+00
         21   -1    0    0  501  502  0.00000000000E+00  0.00000000000E+00  0.83727457086E+03  0.83727457086E+03  0.00000000000E+00 0.  1.
          1   -1    0    0  502    0 -0.00000000000E+00 -0.00000000000E+00 -0.17062717125E+03  0.17062717125E+03  0.00000000000E+00 0. -1.
         23    2    1    2    0    0 -0.15827533777E+03  0.18607451307E+03 -0.39050778180E+01  0.26038226009E+03  0.90049235282E+02 0.  0.
         23    2    1    2    0    0  0.10288168614E+03 -0.22297266923E+03  0.57110281728E+03  0.62785258822E+03  0.87971541236E+02 0.  0.
        -13    1    3    3    0    0 -0.10854645186E+02  0.60592107766E+02  0.21336228562E+02  0.65149531808E+02  0.00000000000E+00 0.  1.
         13    1    3    3    0    0 -0.14742069259E+03  0.12548240530E+03 -0.25241306380E+02  0.19523272828E+03  0.00000000000E+00 0. -1.
        -13    1    4    4    0    0  0.98064636927E+02 -0.11036256233E+03  0.30453522679E+03  0.33843503444E+03  0.00000000000E+00 0.  1.
         13    1    4    4    0    0  0.48170492131E+01 -0.11261010690E+03  0.26656759049E+03  0.28941755378E+03  0.00000000000E+00 0. -1.
          1    1    1    2  501    0  0.55393651634E+02  0.36898156160E+02  0.99449660153E+02  0.11966689381E+03  0.00000000000E+00 0. -1.
<scales pt_clust_5="13000.00000" pt_clust_6="13000.00000" pt_clust_7="13000.00000" pt_clust_8="13000.00000" pt_clust_9="66.55772"></scales>
<clustering>
<clus scale="   66.558">  1  9  2 -1</clus>
<clus scale="   87.972">  7  8 -1 -1</clus>
<clus scale="   90.049">  5  6 -1 -1</clus>
<clus scale="  258.614">  1  7  2 -1</clus>
<clus scale="   66.558">  1  5  2 -1</clus>
</clustering>
</event>
<event>
 9    1  0.1636528E-005  0.1422790E+03  0.7546771E-02  0.1222798E+00
         21   -1    0    0  501  502  0.00000000000E+00  0.00000000000E+00  0.12750151008E+03  0.12750151008E+03  0.00000000000E+00 0. -1.
          3   -1    0    0  502    0 -0.00000000000E+00 -0.00000000000E+00 -0.39799596301E+03  0.39799596301E+03  0.00000000000E+00 0. -1.
         23    2    1    2    0    0 -0.49938920422E+02  0.20971514383E+02 -0.18655419152E+03  0.21619462365E+03  0.94889139153E+02 0.  0.
         23    2    1    2    0    0 -0.36704222005E+02  0.63588056974E+02 -0.13520408768E+03  0.17782914438E+03  0.89176332971E+02 0.  0.
        -11    1    3    3    0    0  0.13388666563E+02  0.32187519182E+02 -0.11413628186E+03  0.11934145809E+03  0.00000000000E+00 0. -1.
         11    1    3    3    0    0 -0.63327586985E+02 -0.11216004799E+02 -0.72417909667E+02  0.96853165553E+02  0.00000000000E+00 0.  1.
        -13    1    4    4    0    0 -0.29934032549E+02  0.85563500553E+02 -0.93643415304E+02  0.13033130154E+03  0.00000000000E+00 0. -1.
         13    1    4    4    0    0 -0.67701894562E+01 -0.21975443580E+02 -0.41560672378E+02  0.47497842839E+02  0.00000000000E+00 0.  1.
          3    1    1    2  501    0  0.86643142428E+02 -0.84559571356E+02  0.51263826281E+02  0.13147370506E+03  0.00000000000E+00 0. -1.
<scales pt_clust_5="13000.00000" pt_clust_6="13000.00000" pt_clust_7="13000.00000" pt_clust_8="13000.00000" pt_clust_9="110.86427"></scales>
<clustering>
<clus scale="   89.176">  7  8 -1 -1</clus>
<clus scale="   94.889">  5  6 -1 -1</clus>
<clus scale="  109.260">  2  5  1 -1</clus>
<clus scale="  110.864">  1  9  2 -1</clus>
<clus scale="  110.864">  1  5  2 -1</clus>
</clustering>
</event>
<event>
 9    1  0.2362839E-005  0.1085100E+03  0.7546771E-02  0.1264391E+00
         21   -1    0    0  501  502  0.00000000000E+00  0.00000000000E+00  0.11036563517E+03  0.11036563517E+03  0.00000000000E+00 0. -1.
          2   -1    0    0  502    0 -0.00000000000E+00 -0.00000000000E+00 -0.42514514697E+03  0.42514514697E+03  0.00000000000E+00 0. -1.
         23    2    1    2    0    0 -0.38376895100E+02  0.40150654995E+02 -0.37000733019E+03  0.38534594338E+03  0.92202009259E+02 0.  0.
         23    2    1    2    0    0  0.57426155234E+02 -0.50607419870E+02  0.47952279721E+02  0.12724865002E+03  0.89632156897E+02 0.  0.
        -11    1    3    3    0    0 -0.34336374553E+02  0.60283943955E+02 -0.34952037998E+03  0.35633921555E+03  0.00000000000E+00 0. -1.
         11    1    3    3    0    0 -0.40405205463E+01 -0.20133288960E+02 -0.20486950211E+02  0.29006727833E+02  0.00000000000E+00 0.  1.
        -11    1    4    4    0    0  0.41222058227E+02 -0.73501175482E+02  0.17920124476E+02  0.86155741207E+02  0.00000000000E+00 0. -1.
         11    1    4    4    0    0  0.16204097007E+02  0.22893755612E+02  0.30032155246E+02  0.41092908811E+02  0.00000000000E+00 0.  1.
          2    1    1    2  501    0 -0.19049260134E+02  0.10456764876E+02  0.72755386684E+01  0.22916188737E+02  0.00000000000E+00 0. -1.
<scales pt_clust_5="13000.00000" pt_clust_6="13000.00000" pt_clust_7="13000.00000" pt_clust_8="13000.00000" pt_clust_9="21.73058"></scales>
<clustering>
<clus scale="   21.731">  1  9  2 -1</clus>
<clus scale="   89.632">  7  8 -1 -1</clus>
<clus scale="   92.202">  5  6 -1 -1</clus>
<clus scale="  106.335">  1  7  2 -1</clus>
<clus scale="   21.731">  1  5  2 -1</clus>
</clustering>
</event>
<event>
 9    1  0.1636528E-005  0.9916178E+02  0.7546771E-02  0.1283547E+00
          1   -1    0    0  502    0 -0.00000000000E+00  0.00000000000E+00  0.26821136893E+03  0.26821136893E+03  0.00000000000E+00 0. -1.
         21   -1    0    0  501  502  0.00000000000E+00 -0.00000000000E+00 -0.36739111918E+03  0.36739111918E+03  0.00000000000E+00 0. -1.
         23    2    1    2    0    0 -0.22467363992E+02  0.10205314424E+02  0.12694776316E+03  0.16100925050E+03  0.95913050664E+02 0.  0.
         23    2    1    2    0    0  0.25560563951E+02  0.30306727318E+02  0.10217327840E+03  0.14378785174E+03  0.93079145567E+02 0.  0.
        -13    1    4    4    0    0  0.59463357217E+02  0.15604108146E+02  0.47009015875E+02  0.77390093785E+02  0.00000000000E+00 0.  1.
         13    1    4    4    0    0 -0.33902793266E+02  0.14702619172E+02  0.55164262526E+02  0.66397757958E+02  0.00000000000E+00 0. -1.
        -13    1    3    3    0    0  0.84555777104E+01  0.38163762299E+02  0.15553710652E+02  0.42070030452E+02  0.00000000000E+00 0.  1.
         13    1    3    3    0    0 -0.30922941702E+02 -0.27958447874E+02  0.11139405251E+03  0.11893922005E+03  0.00000000000E+00 0. -1.
          1    1    1    2  501    0 -0.30931999588E+01 -0.40512041742E+02 -0.32830079182E+03  0.33080538587E+03  0.00000000000E+00 0. -1.
<scales pt_clust_5="13000.00000" pt_clust_6="13000.00000" pt_clust_7="13000.00000" pt_clust_8="13000.00000" pt_clust_9="40.62996"></scales>
<clustering>
<clus scale="   40.630">  2  9  1 -1</clus>
<clus scale="   93.079">  5  6 -1 -1</clus>
<clus scale="   95.913">  7  8 -1 -1</clus>
<clus scale="   96.423">  2  5  1 -1</clus>
<clus scale="   40.630">  2  5  1 -1</clus>
</clustering>
</event>
<event>
 9    1  0.1636528E-005  0.1623344E+03  0.7546771E-02  0.1186661E+00
         21   -1    0    0  501  502  0.00000000000E+00  0.00000000000E+00  0.14891653414E+03  0.14891653414E+03  0.00000000000E+00 0.  1.
          2   -1    0    0  502    0 -0.00000000000E+00 -0.00000000000E+00 -0.66419485449E+03  0.66419485449E+03  0.00000000000E+00 0. -1.
         23    2    1    2    0    0  0.94460148607E+02 -0.10265773568E+03 -0.47963919833E+03  0.50715647263E+03  0.87707450035E+02 0.  0.
         23    2    1    2    0    0 -0.12230632177E+03  0.44078533207E+02 -0.12028252942E+03  0.19931796773E+03  0.91422163281E+02 0.  0.
        -11    1    4    4    0    0 -0.84684887064E+02 -0.10485626839E+02 -0.37329030557E+02  0.93139331056E+02  0.00000000000E+00 0.  1.
         11    1    4    4    0    0 -0.37621434708E+02  0.54564160046E+02 -0.82953498864E+02  0.10617863667E+03  0.00000000000E+00 0. -1.
        -13    1    3    3    0    0  0.91693696415E+02 -0.38795123417E+02 -0.26025568419E+03  0.27864998962E+03  0.00000000000E+00 0. -1.
         13    1    3    3    0    0  0.27664521919E+01 -0.63862612260E+02 -0.21938351414E+03  0.22850648301E+03  0.00000000000E+00 0.  1.
          2    1    1    2  501    0  0.27846173165E+02  0.58579202470E+02  0.84643407397E+02  0.10663694828E+03  0.00000000000E+00 0. -1.
<scales pt_clust_5="13000.00000" pt_clust_6="13000.00000" pt_clust_7="13000.00000" pt_clust_8="13000.00000" pt_clust_9="64.86087"></scales>
<clustering>
<clus scale="   64.861">  1  9  2 -1</clus>
<clus scale="   87.707">  7  8 -1 -1</clus>
<clus scale="   91.422">  5  6 -1 -1</clus>
<clus scale="  160.272">  2  7  1 -1</clus>
<clus scale="   64.861">  1  5  2 -1</clus>
</clustering>
</event>
<event>
 9    1  0.1636528E-005  0.9585134E+02  0.7546771E-02  0.1290549E+00
          1   -1    0    0  502    0 -0.00000000000E+00  0.00000000000E+00  0.32920383412E+03  0.32920383412E+03  0.00000000000E+00 0. -1.
         21   -1    0    0  501  502  0.00000000000E+00 -0.00000000000E+00 -0.56159439312E+02  0.56159439312E+02  0.00000000000E+00 0.  1.
         23    2    1    2    0    0  0.19058693306E+02 -0.18780762910E+02  0.22265575953E+03  0.24260334041E+03  0.92546435257E+02 0.  0.
         23    2    1    2    0    0  0.13519056253E+02  0.33357455554E+02  0.43511566761E+02  0.10641321644E+03  0.90194409299E+02 0.  0.
        -11    1    3    3    0    0  0.15716290098E+02 -0.54065345905E+02  0.98163706323E+02  0.11316437885E+03  0.00000000000E+00 0. -1.
         11    1    3    3    0    0  0.33424032077E+01  0.35284582995E+02  0.12449205321E+03  0.12943896155E+03  0.00000000000E+00 0.  1.
        -13    1    4    4    0    0  0.30285350837E+02 -0.12780327379E+02 -0.94471983704E+01  0.34202175374E+02  0.00000000000E+00 0.  1.
         13    1    4    4    0    0 -0.16766294584E+02  0.46137782933E+02  0.52958765131E+02  0.72211041070E+02  0.00000000000E+00 0. -1.
          1    1    1    2  501    0 -0.32577749559E+02 -0.14576692645E+02  0.68770685150E+01  0.36346716580E+02  0.00000000000E+00 0. -1.
<scales pt_clust_5="13000.00000" pt_clust_6="13000.00000" pt_clust_7="13000.00000" pt_clust_8="13000.00000" pt_clust_9="35.69019"></scales>
<clustering>
<clus scale="   35.690">  2  9  1 -1</clus>
<clus scale="   90.194">  7  8 -1 -1</clus>
<clus scale="   92.546">  5  6 -1 -1</clus>
<clus scale="   93.582">  2  7  1 -1</clus>
<clus scale="   35.690">  2  5  1 -1</clus>
</clustering>
</event>
<event>
 9    1  0.1636528E-005  0.2885593E+03  0.7546771E-02  0.1115793E+00
         21   -1    0    0  501  502  0.00000000000E+00  0.00000000000E+00  0.10567712286E+03  0.10567712286E+03  0.00000000000E+00 0.  1.
          1   -1    0    0  502    0 -0.00000000000E+00 -0.00000000000E+00 -0.17967677618E+04  0.17967677618E+04  0.00000000000E+00 0. -1.
         23    2    1    2    0    0 -0.10773423457E+03 -0.62539998766E+02 -0.25399378688E+03  0.29634702343E+03  0.88265495999E+02 0.  0.
         23    2    1    2    0    0  0.32156795052E+03 -0.89672471138E+02 -0.12110744896E+04  0.12597171423E+04  0.93481337781E+02 0.  0.
        -11    1    4    4    0    0  0.14466615963E+03 -0.81344421060E+02 -0.49564709184E+03  0.52269613757E+03  0.00000000000E+00 0.  1.
         11    1    4    4    0    0  0.17690179088E+03 -0.83280500778E+01 -0.71542739771E+03  0.73702100474E+03  0.00000000000E+00 0. -1.
        -13    1    3    3    0    0 -0.28692385590E+02  0.93249505763E+00 -0.72765405922E+01  0.29615377439E+02  0.00000000000E+00 0. -1.
         13    1    3    3    0    0 -0.79041848977E+02 -0.63472493824E+02 -0.24671724628E+03  0.26673164600E+03  0.00000000000E+00 0.  1.
          1    1    1    2  501    0 -0.21383371595E+03  0.15221246990E+03 -0.22602236250E+03  0.34638071889E+03  0.00000000000E+00 0. -1.
<scales pt_clust_5="13000.00000" pt_clust_6="13000.00000" pt_clust_7="13000.00000" pt_clust_8="13000.00000" pt_clust_9="272.99766"></scales>
<clustering>
<clus scale="   88.265">  7  8 -1 -1</clus>
<clus scale="   93.481">  5  6 -1 -1</clus>
<clus scale="  152.672">  2  7  1 -1</clus>
<clus scale="  272.998">  1  9  2 -1</clus>
<clus scale="  272.998">  1  5  2 -1</clus>
</clustering>
</event>
<event>
 9    1  0.1636528E-005  0.2153375E+03  0.7546771E-02  0.1137593E+00
         21   -1    0    0  501  502  0.00000000000E+00  0.00000000000E+00  0.30541278992E+03  0.30541278992E+03  0.00000000000E+00 0. -1.
          1   -1    0    0  502    0 -0.00000000000E+00 -0.00000000000E+00 -0.33060915524E+03  0.33060915524E+03  0.00000000000E+00 0. -1.
         23    2    1    2    0    0 -0.77975750204E+02  0.17182562733E+03 -0.16649786361E+03  0.26588514411E+03  0.85843505572E+02 0.  0.
         23    2    1    2    0    0  0.16476367373E+03 -0.17234632096E+03  0.84256670322E+02  0.26627859390E+03  0.83395326895E+02 0.  0.
        -11    1    4    4    0    0  0.10542923100E+03 -0.81150082706E+02  0.77437707265E+01  0.13326899361E+03  0.00000000000E+00 0. -1.
         11    1    4    4    0    0  0.59334442728E+02 -0.91196238252E+02  0.76512899595E+02  0.13300960029E+03  0.00000000000E+00 0.  1.
        -13    1    3    3    0    0 -0.20235769772E+02 -0.96583927712E+00 -0.37611141431E+02  0.42720219844E+02  0.00000000000E+00 0.  1.
         13    1    3    3    0    0 -0.57739980432E+02  0.17279146660E+03 -0.12888672218E+03  0.22316492427E+03  0.00000000000E+00 0. -1.
          1    1    1    2  501    0 -0.86787923528E+02  0.52069363236E+00  0.57044827969E+02  0.10385820714E+03  0.00000000000E+00 0. -1.
<scales pt_clust_5="13000.00000" pt_clust_6="13000.00000" pt_clust_7="13000.00000" pt_clust_8="13000.00000" pt_clust_9="86.78949"></scales>
<clustering>
<clus scale="   83.395">  5  6 -1 -1</clus>
<clus scale="   85.844">  7  8 -1 -1</clus>
<clus scale="   86.789">  1  9  2 -1</clus>
<clus scale="  214.373">  1  5  2 -1</clus>
<clus scale="   86.789">  1  5  2 -1</clus>
</clustering>
</event>
<event>
 9    1  0.1636528E-005  0.2569282E+03  0.7546771E-02  0.1109188E+00
         21   -1    0    0  501  502  0.00000000000E+00  0.00000000000E+00  0.44574890139E+03  0.44574890139E+03  0.00000000000E+00 0.  1.
         -2   -1    0    0    0  501 -0.00000000000E+00 -0.00000000000E+00 -0.36480858263E+03  0.36480858263E+03  0.00000000000E+00 0.  1.
         23    2    1    2    0    0 -0.16888748668E+03 -0.17465388388E+03 -0.26679440244E+03  0.37209670957E+03  0.90828111209E+02 0.  0.
         23    2    1    2    0    0  0.14613953074E+03  0.15768698443E+03  0.28224616950E+03  0.36708784135E+03  0.94173433435E+02 0.  0.
        -13    1    4    4    0    0  0.55950471370E+02  0.80658196933E+02  0.19988793868E+03  0.22269123918E+03  0.00000000000E+00 0.  1.
         13    1    4    4    0    0  0.90189059372E+02  0.77028787494E+02  0.82358230820E+02  0.14439660217E+03  0.00000000000E+00 0. -1.
        -13    1    3    3    0    0 -0.66479771524E+02 -0.13072534726E+02 -0.78112834416E+02  0.10340244720E+03  0.00000000000E+00 0. -1.
         13    1    3    3    0    0 -0.10240771515E+03 -0.16158134916E+03 -0.18868156803E+03  0.26869426237E+03  0.00000000000E+00 0.  1.
         -2    1    1    2    0  502  0.22747955936E+02  0.16966899455E+02  0.65488551708E+02  0.71372933113E+02  0.00000000000E+00 0.  1.
<scales pt_clust_5="13000.00000" pt_clust_6="13000.00000" pt_clust_7="13000.00000" pt_clust_8="13000.00000" pt_clust_9="28.37860"></scales>
<clustering>
<clus scale="   28.379">  1  9  2 -1</clus>
<clus scale="   90.828">  7  8 -1 -1</clus>
<clus scale="   94.173">  5  6 -1 -1</clus>
<clus scale="  255.721">  2  7  1 -1</clus>
<clus scale="   28.379">  1  5  2 -1</clus>
</clustering>
</event>
<event>
 9    1  0.1636528E-005  0.1020323E+03  0.7546771E-02  0.1278514E+00
         21   -1    0    0  501  502  0.00000000000E+00  0.00000000000E+00  0.24894098907E+02  0.24894098907E+02  0.00000000000E+00 0. -1.
         -3   -1    0    0    0  501 -0.00000000000E+00 -0.00000000000E+00 -0.64076983246E+03  0.64076983246E+03  0.00000000000E+00 0.  1.
         23    2    1    2    0    0  0.27467849406E+02 -0.20769894408E+02 -0.41445517092E+03  0.42660908626E+03  0.95059731313E+02 0.  0.
         23    2    1    2    0    0 -0.44294467991E+02  0.90314679329E+01 -0.19120842020E+03  0.21613730592E+03  0.90061688572E+02 0.  0.
        -11    1    3    3    0    0 -0.31907331636E+02 -0.18998961003E+02 -0.10181700148E+03  0.10837776581E+03  0.00000000000E+00 0. -1.
         11    1    3    3    0    0  0.59375181042E+02 -0.17709334052E+01 -0.31263816944E+03  0.31823132046E+03  0.00000000000E+00 0.  1.
        -13    1    4    4    0    0 -0.14817969400E+02  0.48888908175E+02 -0.10213585932E+03  0.11419908633E+03  0.00000000000E+00 0.  1.
         13    1    4    4    0    0 -0.29476498590E+02 -0.39857440243E+02 -0.89072560884E+02  0.10193821960E+03  0.00000000000E+00 0. -1.
         -3    1    1    2    0  502  0.16826618585E+02  0.11738426475E+02 -0.10212142439E+02  0.22917539185E+02  0.00000000000E+00 0.  1.
<scales pt_clust_5="13000.00000" pt_clust_6="13000.00000" pt_clust_7="13000.00000" pt_clust_8="13000.00000" pt_clust_9="20.51648"></scales>
<clustering>
<clus scale="   20.516">  1  9  2 -1</clus>
<clus scale="   90.062">  7  8 -1 -1</clus>
<clus scale="   95.060">  5  6 -1 -1</clus>
<clus scale="   97.393">  1  7  2 -1</clus>
<clus scale="   20.516">  1  5  2 -1</clus>
</clustering>
</event>
<event>
 9    1  0.1636528E-005  0.1047796E+03  0.7546771E-02  0.1270915E+00
          1   -1    0    0  502    0 -0.00000000000E+00  0.00000000000E+00  0.69199803578E+03  0.69199803578E+03  0.00000000000E+00 0. -1.
         21   -1    0    0  501  502  0.00000000000E+00 -0.00000000000E+00 -0.34794911572E+03  0.34794911572E+03  0.00000000000E+00 0. -1.
         23    2    1    2    0    0  0.36293057406E+02 -0.46418117184E+02  0.60061178743E+03  0.61031653668E+03  0.90994110412E+02 0.  0.
         23    2    1    2    0    0 -0.82541350084E+01  0.17951943854E+01  0.59147098936E+02  0.10955223500E+03  0.91825701264E+02 0.  0.
        -11    1    4    4    0    0  0.34224660710E+02  0.18752098325E+02  0.49106464713E+02  0.62724903101E+02  0.00000000000E+00 0. -1.
         11    1    4    4    0    0 -0.42478795719E+02 -0.16956903940E+02  0.10040634223E+02  0.46827331896E+02  0.00000000000E+00 0.  1.
        -13    1    3    3    0    0 -0.30493927507E+02 -0.16072497912E+02  0.16379235441E+03  0.16738022633E+03  0.00000000000E+00 0.  1.
         13    1    3    3    0    0  0.66786984913E+02 -0.30345619272E+02  0.43681943302E+03  0.44293631035E+03  0.00000000000E+00 0. -1.
          1    1    1    2  501    0 -0.28038922397E+02  0.44622922798E+02 -0.31570996630E+03  0.32007837983E+03  0.00000000000E+00 0. -1.
<scales pt_clust_5="13000.00000" pt_clust_6="13000.00000" pt_clust_7="13000.00000" pt_clust_8="13000.00000" pt_clust_9="52.70091"></scales>
<clustering>
<clus scale="   52.701">  2  9  1 -1</clus>
<clus scale="   90.994">  7  8 -1 -1</clus>
<clus scale="   91.826">  5  6 -1 -1</clus>
<clus scale="  104.052">  1  7  2 -1</clus>
<clus scale="   52.701">  2  5  1 -1</clus>
</clustering>
</event>
<event>
 9    1  0.1636528E-005  0.1282799E+03  0.7546771E-02  0.1242335E+00
         21   -1    0    0  501  502  0.00000000000E+00  0.00000000000E+00  0.12961260418E+03  0.12961260418E+03  0.00000000000E+00 0.  1.
         -1   -1    0    0    0  501 -0.00000000000E+00 -0.00000000000E+00 -0.26689963960E+03  0.26689963960E+03  0.00000000000E+00 0.  1.
         23    2    1    2    0    0 -0.21846181668E+02 -0.24628224621E+02 -0.11830549342E+03  0.17691583891E+03  0.12735469832E+03 0.  0.
         23    2    1    2    0    0 -0.23821691980E+01 -0.72141937363E+02  0.12100187399E+02  0.11510931888E+03  0.88845972911E+02 0.  0.
        -11    1    3    3    0    0 -0.21116145732E+02  0.28949590198E+02 -0.11801217301E+03  0.12333224786E+03  0.00000000000E+00 0.  1.
         11    1    3    3    0    0 -0.73003593605E+00 -0.53577814819E+02 -0.29332040840E+00  0.53583591053E+02  0.00000000000E+00 0. -1.
        -13    1    4    4    0    0 -0.27778307729E+02 -0.77576716884E+02  0.25002471939E+02  0.86109842561E+02  0.00000000000E+00 0.  1.
         13    1    4    4    0    0  0.25396138531E+02  0.54347795213E+01 -0.12902284540E+02  0.28999476324E+02  0.00000000000E+00 0. -1.
         -1    1    1    2    0  502  0.24228350866E+02  0.96770161983E+02 -0.31081729397E+02  0.10448708599E+03  0.00000000000E+00 0.  1.
<scales pt_clust_5="13000.00000" pt_clust_6="13000.00000" pt_clust_7="13000.00000" pt_clust_8="13000.00000" pt_clust_9="99.75709"></scales>
<clustering>
<clus scale="   88.846">  7  8 -1 -1</clus>
<clus scale="   99.757">  1  9  2 -1</clus>
<clus scale="   99.757">  1  7  2 -1</clus>
<clus scale="  127.355">  5  6 -1 -1</clus>
<clus scale="   99.757">  1  5  2 -1</clus>
</clustering>
</event>
<event>
 9    1  0.1636528E-005  0.9366229E+02  0.7546771E-02  0.1298069E+00
         -1   -1    0    0    0  501 -0.00000000000E+00  0.00000000000E+00  0.10300443548E+03  0.10300443548E+03  0.00000000000E+00 0.  1.
         21   -1    0    0  501  502  0.00000000000E+00 -0.00000000000E+00 -0.19248810290E+03  0.19248810290E+03  0.00000000000E+00 0.  1.
         23    2    1    2    0    0 -0.13344137374E+00 -0.21061497633E+02  0.41463134012E+02  0.95413283609E+02  0.83312056258E+02 0.  0.
         23    2    1    2    0    0 -0.32550949003E+02  0.35737321939E+02 -0.54901119019E+02  0.11601621290E+03  0.90049477100E+02 0.  0.
        -11    1    3    3    0    0  0.34732619789E+02 -0.33536096217E+02  0.17746046289E+02  0.51438767343E+02  0.00000000000E+00 0. -1.
         11    1    3    3    0    0 -0.34866061162E+02  0.12474598584E+02  0.23717087723E+02  0.43974516266E+02  0.00000000000E+00 0.  1.
        -13    1    4    4    0    0  0.47682952229E+01  0.35158934095E+02 -0.67803069614E+02  0.76525443710E+02  0.00000000000E+00 0. -1.
         13    1    4    4    0    0 -0.37319244226E+02  0.57838784376E+00  0.12901950595E+02  0.39490769191E+02  0.00000000000E+00 0.  1.
         -1    1    1    2    0  502  0.32684390377E+02 -0.14675824306E+02 -0.76045682420E+02  0.84063041868E+02  0.00000000000E+00 0.  1.
<scales pt_clust_5="13000.00000" pt_clust_6="13000.00000" pt_clust_7="13000.00000" pt_clust_8="13000.00000" pt_clust_9="35.82805"></scales>
<clustering>
<clus scale="   35.828">  2  9  1 -1</clus>
<clus scale="   83.312">  5  6 -1 -1</clus>
<clus scale="   87.204">  1  5  2 -1</clus>
<clus scale="   90.049">  7  8 -1 -1</clus>
<clus scale="   35.828">  2  5  1 -1</clus>
</clustering>
</event>
<event>
 9    1  0.1636528E-005  0.1432622E+03  0.7546771E-02  0.1221291E+00
         21   -1    0    0  501  502  0.00000000000E+00  0.00000000000E+00  0.25614143851E+03  0.25614143851E+03  0.00000000000E+00 0. -1.
          1   -1    0    0  502    0 -0.00000000000E+00 -0.00000000000E+00 -0.16375909139E+03  0.16375909139E+03  0.00000000000E+00 0. -1.
         23    2    1    2    0    0 -0.17329274910E+02  0.57519421258E+02  0.11123178480E+03  0.15675762343E+03  0.92691180608E+02 0.  0.
         23    2    1    2    0    0  0.18286018397E+01  0.73913227068E+02 -0.48997542268E+02  0.12740890144E+03  0.91464529179E+02 0.  0.
        -11    1    3    3    0    0 -0.43739992804E+02  0.15611853004E+02  0.93039926309E+02  0.10398723389E+03  0.00000000000E+00 0. -1.
         11    1    3    3    0    0  0.26410717894E+02  0.41907568254E+02  0.18191858490E+02  0.52770389537E+02  0.00000000000E+00 0.  1.
        -13    1    4    4    0    0  0.13413213298E+02  0.47061677624E+02 -0.74145941971E+02  0.88838823172E+02  0.00000000000E+00 0. -1.
         13    1    4    4    0    0 -0.11584611458E+02  0.26851549444E+02  0.25148399702E+02  0.38570078270E+02  0.00000000000E+00 0.  1.
          1    1    1    2  501    0  0.15500673071E+02 -0.13143264833E+03  0.30148104588E+02  0.13573400503E+03  0.00000000000E+00 0. -1.
<scales pt_clust_5="13000.00000" pt_clust_6="13000.00000" pt_clust_7="13000.00000" pt_clust_8="13000.00000" pt_clust_9="110.26466"></scales>
<clustering>
<clus scale="   91.465">  7  8 -1 -1</clus>
<clus scale="   92.691">  5  6 -1 -1</clus>
<clus scale="  110.456">  2  5  1 -1</clus>
<clus scale="  110.265">  1  9  2 -1</clus>
<clus scale="  110.265">  1  5  2 -1</clus>
</clustering>
</event>
<event>
 9    1  0.1636528E-005  0.1123986E+03  0.7546771E-02  0.1258964E+00
         21   -1    0    0  501  502  0.00000000000E+00  0.00000000000E+00  0.34063129503E+03  0.34063129503E+03  0.00000000000E+00 0. -1.
          2   -1    0    0  502    0 -0.00000000000E+00 -0.00000000000E+00 -0.11654067348E+03  0.11654067348E+03  0.00000000000E+00 0. -1.
         23    2    1    2    0    0  0.29734831774E+02 -0.42943276607E+02 -0.49113843827E+02  0.12148873041E+03  0.98076789987E+02 0.  0.
         23    2    1    2    0    0 -0.14903317641E+02  0.64103644918E+02  0.73526973025E+02  0.13434065455E+03  0.91158156708E+02 0.  0.
        -11    1    4    4    0    0 -0.49851170729E+02  0.50539235980E+02  0.30471518735E+02  0.77251971176E+02  0.00000000000E+00 0.  1.
         11    1    4    4    0    0  0.34947853088E+02  0.13564408938E+02  0.43055454290E+02  0.57088683374E+02  0.00000000000E+00 0. -1.
        -11    1    3    3    0    0 -0.64842406666E+01 -0.67182016016E+02 -0.28189582226E+02  0.73144522687E+02  0.00000000000E+00 0.  1.
         11    1    3    3    0    0  0.36219072440E+02  0.24238739409E+02 -0.20924261600E+02  0.48344207720E+02  0.00000000000E+00 0. -1.
          2    1    1    2  501    0 -0.14831514133E+02 -0.21160368312E+02  0.19967749235E+03  0.20134258355E+03  0.00000000000E+00 0. -1.
<scales pt_clust_5="13000.00000" pt_clust_6="13000.00000" pt_clust_7="13000.00000" pt_clust_8="13000.00000" pt_clust_9="25.84057"></scales>
<clustering>
<clus scale="   25.841">  1  9  2 -1</clus>
<clus scale="   91.158">  5  6 -1 -1</clus>
<clus scale="   98.077">  7  8 -1 -1</clus>
<clus scale="  106.415">  1  5  2 -1</clus>
<clus scale="   25.841">  1  5  2 -1</clus>
</clustering>
</event>
<event>
 9    1  0.1636528E-005  0.1312251E+03  0.7546771E-02  0.1226039E+00
         21   -1    0    0  501  502  0.00000000000E+00  0.00000000000E+00  0.29845752688E+03  0.29845752688E+03  0.00000000000E+00 0. -1.
          3   -1    0    0  502    0 -0.00000000000E+00 -0.00000000000E+00 -0.28584029614E+03  0.28584029614E+03  0.00000000000E+00 0. -1.
         23    2    1    2    0    0 -0.52710621192E+02 -0.80220736300E+02 -0.24382627299E+03  0.27804946647E+03  0.92986441407E+02 0.  0.
         23    2    1    2    0    0  0.31765083147E+02  0.34208709900E+02  0.22332713690E+03  0.24581230862E+03  0.91484559635E+02 0.  0.
        -13    1    4    4    0    0  0.34117713638E+02  0.10984805410E+01  0.20514395910E+03  0.20796458592E+03  0.00000000000E+00 0. -1.
         13    1    4    4    0    0 -0.23526304906E+01  0.33110229359E+02  0.18183177808E+02  0.37847722701E+02  0.00000000000E+00 0.  1.
        -13    1    3    3    0    0  0.21671300920E+02 -0.26083499964E+02 -0.11396530079E+03  0.11890367546E+03  0.00000000000E+00 0.  1.
         13    1    3    3    0    0 -0.74381922112E+02 -0.54137236336E+02 -0.12986097219E+03  0.15914579100E+03  0.00000000000E+00 0. -1.
          3    1    1    2  501    0  0.20945538045E+02  0.46012026399E+02  0.33116366825E+02  0.60436047927E+02  0.00000000000E+00 0. -1.
<scales pt_clust_5="13000.00000" pt_clust_6="13000.00000" pt_clust_7="13000.00000" pt_clust_8="13000.00000" pt_clust_9="50.55514"></scales>
<clustering>
<clus scale="   50.555">  1  9  2 -1</clus>
<clus scale="   91.485">  5  6 -1 -1</clus>
<clus scale="   92.986">  7  8 -1 -1</clus>
<clus scale="  130.165">  1  5  2 -1</clus>
<clus scale="   50.555">  1  5  2 -1</clus>
</clustering>
</event>
<event>
 9    1  0.1636528E-005  0.9547956E+02  0.7546771E-02  0.1295143E+00
         21   -1    0    0  501  502  0.00000000000E+00  0.00000000000E+00  0.88907591223E+02  0.88907591223E+02  0.00000000000E+00 0.  1.
          2   -1    0    0  502    0 -0.00000000000E+00 -0.00000000000E+00 -0.46749602898E+03  0.46749602898E+03  0.00000000000E+00 0. -1.
         23    2    1    2    0    0 -0.18601996328E+02 -0.26658829273E+02 -0.42679923860E+03  0.43742818692E+03  0.90161528363E+02 0.  0.
         23    2    1    2    0    0  0.23944694788E+02  0.69476521386E+01  0.25713459065E+02  0.88591139348E+02  0.81028326622E+02 0.  0.
        -11    1    3    3    0    0 -0.31271700036E+02  0.25028635139E+02 -0.13503734795E+03  0.14085253687E+03  0.00000000000E+00 0. -1.
         11    1    3    3    0    0  0.12669703708E+02 -0.51687464412E+02 -0.29176189065E+03  0.29657565005E+03  0.00000000000E+00 0.  1.
        -13    1    4    4    0    0  0.28575277288E+02 -0.26500719398E+02  0.36242946425E+02  0.53220163155E+02  0.00000000000E+00 0.  1.
         13    1    4    4    0    0 -0.46305824991E+01  0.33448371537E+02 -0.10529487360E+02  0.35370976193E+02  0.00000000000E+00 0. -1.
          2    1    1    2  501    0 -0.53426984609E+01  0.19711177134E+02  0.22497341778E+02  0.30384293935E+02  0.00000000000E+00 0. -1.
<scales pt_clust_5="13000.00000" pt_clust_6="13000.00000" pt_clust_7="13000.00000" pt_clust_8="13000.00000" pt_clust_9="20.42241"></scales>
<clustering>
<clus scale="   20.422">  1  9  2 -1</clus>
<clus scale="   81.028">  7  8 -1 -1</clus>
<clus scale="   86.907">  1  7  2 -1</clus>
<clus scale="   90.162">  5  6 -1 -1</clus>
<clus scale="   20.422">  1  5  2 -1</clus>
</clustering>
</event>
<event>
 9    1  0.1636528E-005  0.9185704E+02  0.7546771E-02  0.1298834E+00
         21   -1    0    0  501  502  0.00000000000E+00  0.00000000000E+00  0.17320318005E+03  0.17320318005E+03  0.00000000000E+00 0.  1.
          1   -1    0    0  502    0 -0.00000000000E+00 -0.00000000000E+00 -0.20690924265E+03  0.20690924265E+03  0.00000000000E+00 0. -1.
         23    2    1    2    0    0  0.57669786600E+01 -0.23957073698E+01 -0.14780177876E+03  0.17337492054E+03  0.90412940506E+02 0.  0.
         23    2    1    2    0    0 -0.50791892822E+01  0.52421737448E+02  0.30961867293E+02  0.10971011651E+03  0.91125384592E+02 0.  0.
        -11    1    4    4    0    0  0.22224843229E+02  0.36635106281E+02  0.55238411328E+02  0.69909632776E+02  0.00000000000E+00 0.  1.
         11    1    4    4    0    0 -0.27304032511E+02  0.15786631168E+02 -0.24276544035E+02  0.39800483732E+02  0.00000000000E+00 0. -1.
        -13    1    3    3    0    0  0.23286617263E+02  0.28257534688E+02 -0.12748663210E+03  0.13264085410E+03  0.00000000000E+00 0.  1.
         13    1    3    3    0    0 -0.17519638603E+02 -0.30653242058E+02 -0.20315146657E+02  0.40734066445E+02  0.00000000000E+00 0. -1.
          1    1    1    2  501    0 -0.68778937781E+00 -0.50026030079E+02  0.83133848864E+02  0.97027385652E+02  0.00000000000E+00 0. -1.
<scales pt_clust_5="13000.00000" pt_clust_6="13000.00000" pt_clust_7="13000.00000" pt_clust_8="13000.00000" pt_clust_9="50.03076"></scales>
<clustering>
<clus scale="   50.031">  1  9  2 -1</clus>
<clus scale="   90.413">  7  8 -1 -1</clus>
<clus scale="   91.125">  5  6 -1 -1</clus>
<clus scale="   91.150">  2  7  1 -1</clus>
<clus scale="   50.031">  1  5  2 -1</clus>
</clustering>
</event>
<event>
 9    1  0.1636528E-005  0.1007221E+03  0.7546771E-02  0.1278977E+00
          2   -1    0    0  502    0 -0.00000000000E+00  0.00000000000E+00  0.78972621429E+03  0.78972621429E+03  0.00000000000E+00 0. -1.
         21   -1    0    0  501  502  0.00000000000E+00 -0.00000000000E+00 -0.33937812425E+02  0.33937812425E+02  0.00000000000E+00 0.  1.
         23    2    1    2    0    0 -0.11777601683E+02  0.42347269801E+02  0.54634143539E+03  0.55557767112E+03  0.90805184162E+02 0.  0.
         23    2    1    2    0    0  0.31900752846E+02 -0.33181123364E+02  0.61778838469E+02  0.11877180344E+03  0.90396191460E+02 0.  0.
        -11    1    4    4    0    0  0.17509221570E+02  0.23033933753E+02  0.52585950723E+02  0.60020139600E+02  0.00000000000E+00 0. -1.
         11    1    4    4    0    0  0.14391531277E+02 -0.56215057117E+02  0.91928877455E+01  0.58751663842E+02  0.00000000000E+00 0.  1.
        -13    1    3    3    0    0  0.32831811358E+02 -0.68669385702E+01  0.14958829816E+03  0.15330277763E+03  0.00000000000E+00 0.  1.
         13    1    3    3    0    0 -0.44609413041E+02  0.49214208371E+02  0.39675313723E+03  0.40227489350E+03  0.00000000000E+00 0. -1.
          2    1    1    2  501    0 -0.20123151163E+02 -0.91661464361E+01  0.14766812801E+03  0.14931455215E+03  0.00000000000E+00 0. -1.
<scales pt_clust_5="13000.00000" pt_clust_6="13000.00000" pt_clust_7="13000.00000" pt_clust_8="13000.00000" pt_clust_9="22.11244"></scales>
<clustering>
<clus scale="   22.112">  2  9  1 -1</clus>
<clus scale="   90.396">  5  6 -1 -1</clus>
<clus scale="   90.805">  7  8 -1 -1</clus>
<clus scale="  100.353">  2  5  1 -1</clus>
<clus scale="   22.112">  2  5  1 -1</clus>
</clustering>
</event>
<event>
 9    1  0.1636528E-005  0.9721809E+02  0.7546771E-02  0.1287479E+00
         -1   -1    0    0    0  501 -0.00000000000E+00  0.00000000000E+00  0.20967338138E+03  0.20967338138E+03  0.00000000000E+00 0.  1.
         21   -1    0    0  501  502  0.00000000000E+00 -0.00000000000E+00 -0.97531473409E+02  0.97531473409E+02  0.00000000000E+00 0.  1.
         23    2    1    2    0    0  0.69720349406E+02  0.13523661802E+02  0.90520546226E+02  0.14346697321E+03  0.85702897054E+02 0.  0.
         23    2    1    2    0    0 -0.86085150192E+01  0.97946963441E+01  0.37099830535E+02  0.96521922724E+02  0.88147839074E+02 0.  0.
        -11    1    4    4    0    0 -0.29242772869E+01  0.38674749602E+02  0.50916650803E+02  0.64006194883E+02  0.00000000000E+00 0.  1.
         11    1    4    4    0    0 -0.56842377323E+01 -0.28880053258E+02 -0.13816820268E+02  0.32515727842E+02  0.00000000000E+00 0. -1.
        -11    1    3    3    0    0  0.89832763992E+02  0.15073342784E+02  0.75646968678E+02  0.11840437078E+03  0.00000000000E+00 0.  1.
         11    1    3    3    0    0 -0.20112414586E+02 -0.15496809815E+01  0.14873577548E+02  0.25062602433E+02  0.00000000000E+00 0. -1.
         -1    1    1    2    0  502 -0.61111834387E+02 -0.23318358147E+02 -0.15478468788E+02  0.67215958855E+02  0.00000000000E+00 0.  1.
<scales pt_clust_5="13000.00000" pt_clust_6="13000.00000" pt_clust_7="13000.00000" pt_clust_8="13000.00000" pt_clust_9="65.40950"></scales>
<clustering>
<clus scale="   65.409">  2  9  1 -1</clus>
<clus scale="   85.703">  7  8 -1 -1</clus>
<clus scale="   88.148">  5  6 -1 -1</clus>
<clus scale="   95.007">  1  7  2 -1</clus>
<clus scale="   65.409">  2  5  1 -1</clus>
</clustering>
</event>
<event>
 9    1  0.1636528E-005  0.1136386E+03  0.7546771E-02  0.1254926E+00
         21   -1    0    0  501  502  0.00000000000E+00  0.00000000000E+00  0.15970328159E+03  0.15970328159E+03  0.00000000000E+00 0.  1.
         -2   -1    0    0    0  501 -0.00000000000E+00 -0.00000000000E+00 -0.19497654497E+03  0.19497654497E+03  0.00000000000E+00 0.  1.
         23    2    1    2    0    0  0.51999582452E+02 -0.47168850103E+02 -0.10751823573E+03  0.15750461633E+03  0.91206776920E+02 0.  0.
         23    2    1    2    0    0 -0.25275177703E+02  0.48652829040E+02 -0.11512721482E+02  0.10924485551E+03  0.93786797141E+02 0.  0.
        -11    1    4    4    0    0 -0.23029641465E+02 -0.21290230931E+01 -0.43443649243E+02  0.49216336565E+02  0.00000000000E+00 0.  1.
         11    1    4    4    0    0 -0.22455362382E+01  0.50781852133E+02  0.31930927761E+02  0.60028518945E+02  0.00000000000E+00 0. -1.
        -11    1    3    3    0    0  0.24728660000E+02 -0.71568178230E+02 -0.55397770186E+02  0.93821232683E+02  0.00000000000E+00 0.  1.
         11    1    3    3    0    0  0.27270922452E+02  0.24399328127E+02 -0.52120465547E+02  0.63683383651E+02  0.00000000000E+00 0. -1.
         -2    1    1    2    0  502 -0.26724404749E+02 -0.14839789371E+01  0.83757693841E+02  0.87930354715E+02  0.00000000000E+00 0.  1.
<scales pt_clust_5="13000.00000" pt_clust_6="13000.00000" pt_clust_7="13000.00000" pt_clust_8="13000.00000" pt_clust_9="26.76557"></scales>
<clustering>
<clus scale="   26.766">  1  9  2 -1</clus>
<clus scale="   91.207">  7  8 -1 -1</clus>
<clus scale="   93.787">  5  6 -1 -1</clus>
<clus scale="  111.519">  2  7  1 -1</clus>
<clus scale="   26.766">  1  5  2 -1</clus>
</clustering>
</event>
<event>
 9    1  0.1636528E-005  0.9756553E+02  0.7546771E-02  0.1286602E+00
          3   -1    0    0  502    0 -0.00000000000E+00  0.00000000000E+00  0.11026149336E+03  0.11026149336E+03  0.00000000000E+00 0. -1.
         21   -1    0    0  501  502  0.00000000000E+00 -0.00000000000E+00 -0.39436508141E+03  0.39436508141E+03  0.00000000000E+00 0. -1.
         23    2    1    2    0    0  0.62379823574E+01 -0.27538740867E+02  0.60798970702E+02  0.11281750857E+03  0.90741284590E+02 0.  0.
         23    2    1    2    0    0  0.46663856921E+02  0.45046658290E+02 -0.14334151491E+03  0.18268712531E+03  0.92849765154E+02 0.  0.
        -11    1    4    4    0    0 -0.20745036533E+02  0.23451711059E+02 -0.86223424472E+02  0.91732318296E+02  0.00000000000E+00 0.  1.
         11    1    4    4    0    0  0.67408893453E+02  0.21594947231E+02 -0.57118090440E+02  0.90954807009E+02  0.00000000000E+00 0. -1.
        -13    1    3    3    0    0 -0.35129885541E+02 -0.38367802219E+02  0.29283082635E+02  0.59696700360E+02  0.00000000000E+00 0. -1.
         13    1    3    3    0    0  0.41367867898E+02  0.10829061353E+02  0.31515888067E+02  0.53120808210E+02  0.00000000000E+00 0.  1.
          3    1    1    2  501    0 -0.52901839278E+02 -0.17507917424E+02 -0.20156104384E+03  0.20912194090E+03  0.00000000000E+00 0. -1.
<scales pt_clust_5="13000.00000" pt_clust_6="13000.00000" pt_clust_7="13000.00000" pt_clust_8="13000.00000" pt_clust_9="55.72371"></scales>
<clustering>
<clus scale="   55.724">  2  9  1 -1</clus>
<clus scale="   90.741">  7  8 -1 -1</clus>
<clus scale="   92.850">  5  6 -1 -1</clus>
<clus scale="   95.561">  1  7  2 -1</clus>
<clus scale="   55.724">  2  5  1 -1</clus>
</clustering>
</event>
<event>
 9    1  0.1636528E-005  0.1005178E+03  0.7546771E-02  0.1280820E+00
          2   -1    0    0  502    0 -0.00000000000E+00  0.00000000000E+00  0.20086546707E+03  0.20086546707E+03  0.00000000000E+00 0. -1.
         21   -1    0    0  501  502  0.00000000000E+00 -0.00000000000E+00 -0.20785029768E+03  0.20785029768E+03  0.00000000000E+00 0. -1.
         23    2    1    2    0    0  0.42407950503E+02  0.11442770855E+02  0.86414299120E+02  0.13119040720E+03  0.88397514552E+02 0.  0.
         23    2    1    2    0    0 -0.20429526302E+02  0.71675723201E+01 -0.17072356458E+03  0.19501193908E+03  0.91729936452E+02 0.  0.
        -13    1    3    3    0    0  0.52876425480E+02 -0.72322253227E+01  0.94317056095E+02  0.10836940770E+03  0.00000000000E+00 0. -1.
         13    1    3    3    0    0 -0.10468474976E+02  0.18674996177E+02 -0.79027569747E+01  0.22820999504E+02  0.00000000000E+00 0.  1.
        -13    1    4    4    0    0 -0.51484163758E+02 -0.13396107967E+02 -0.12625965450E+03  0.13700939815E+03  0.00000000000E+00 0.  1.
         13    1    4    4    0    0  0.31054637455E+02  0.20563680287E+02 -0.44463910077E+02  0.58002540925E+02  0.00000000000E+00 0. -1.
          2    1    1    2  501    0 -0.21978424201E+02 -0.18610343175E+02  0.77324434848E+02  0.82513418472E+02  0.00000000000E+00 0. -1.
<scales pt_clust_5="13000.00000" pt_clust_6="13000.00000" pt_clust_7="13000.00000" pt_clust_8="13000.00000" pt_clust_9="28.79925"></scales>
<clustering>
<clus scale="   28.799">  2  9  1 -1</clus>
<clus scale="   88.398">  5  6 -1 -1</clus>
<clus scale="   91.730">  7  8 -1 -1</clus>
<clus scale="   97.486">  1  5  2 -1</clus>
<clus scale="   28.799">  2  5  1 -1</clus>
</clustering>
</event>
<event>
 9    1  0.1636528E-005  0.1813838E+03  0.7546771E-02  0.1166484E+00
          1   -1    0    0  502    0 -0.00000000000E+00  0.00000000000E+00  0.52484160542E+02  0.52484160542E+02  0.00000000000E+00 0. -1.
         21   -1    0    0  501  502  0.00000000000E+00 -0.00000000000E+00 -0.86666362205E+03  0.86666362205E+03  0.00000000000E+00 0. -1.
         23    2    1    2    0    0 -0.74328082090E+02 -0.13826654985E+03 -0.24587817372E+03  0.30591301988E+03  0.92110785616E+02 0.  0.
         23    2    1    2    0    0  0.32449970675E+02  0.15582104390E+03 -0.47862237770E+03  0.51271489705E+03  0.91999928850E+02 0.  0.
        -13    1    3    3    0    0 -0.66439910688E+01 -0.96398881222E+02 -0.95967719663E+02  0.13618623328E+03  0.00000000000E+00 0. -1.
         13    1    3    3    0    0 -0.67684091021E+02 -0.41867668623E+02 -0.14991045406E+03  0.16972678660E+03  0.00000000000E+00 0.  1.
        -13    1    4    4    0    0 -0.19625685817E+02  0.38610784887E+02 -0.54449221623E+02  0.69574981054E+02  0.00000000000E+00 0.  1.
         13    1    4    4    0    0  0.52075656492E+02  0.11721025901E+03 -0.42417315607E+03  0.44313991600E+03  0.00000000000E+00 0. -1.
          1    1    1    2  501    0  0.41878111415E+02 -0.17554494054E+02 -0.89678910091E+02  0.10051986566E+03  0.00000000000E+00 0. -1.
<scales pt_clust_5="13000.00000" pt_clust_6="13000.00000" pt_clust_7="13000.00000" pt_clust_8="13000.00000" pt_clust_9="45.40855"></scales>
<clustering>
<clus scale="   45.409">  2  9  1 -1</clus>
<clus scale="   92.000">  7  8 -1 -1</clus>
<clus scale="   92.111">  5  6 -1 -1</clus>
<clus scale="  181.328">  2  7  1 -1</clus>
<clus scale="   45.409">  2  5  1 -1</clus>
</clustering>
</event>
<event>
 9    1  0.1636528E-005  0.1071974E+03  0.7546771E-02  0.1267533E+00
         21   -1    0    0  501  502  0.00000000000E+00  0.00000000000E+00  0.89686409059E+02  0.89686409059E+02  0.00000000000E+00 0.  1.
         -3   -1    0    0    0  501 -0.00000000000E+00 -0.00000000000E+00 -0.27127152139E+03  0.27127152139E+03  0.00000000000E+00 0.  1.
         23    2    1    2    0    0  0.47637962285E+02  0.67943168272E+02 -0.14087127031E+03  0.18721476566E+03  0.91208574792E+02 0.  0.
         23    2    1    2    0    0  0.11496809235E+02 -0.32223087430E+02 -0.46307461411E+02  0.10443130465E+03  0.87126416330E+02 0.  0.
        -11    1    4    4    0    0 -0.19710347436E+02  0.19775031787E+02  0.33918552012E+00  0.27922477058E+02  0.00000000000E+00 0.  1.
         11    1    4    4    0    0  0.31207156671E+02 -0.51998119218E+02 -0.46646646931E+02  0.76508827592E+02  0.00000000000E+00 0. -1.
        -13    1    3    3    0    0 -0.23708749077E+02 -0.11222562066E+01 -0.32281087089E+02  0.40067852768E+02  0.00000000000E+00 0. -1.
         13    1    3    3    0    0  0.71346711362E+02  0.69065424479E+02 -0.10859018322E+03  0.14714691289E+03  0.00000000000E+00 0.  1.
         -3    1    1    2    0  502 -0.59134771520E+02 -0.35720080842E+02  0.55936193931E+01  0.69311860139E+02  0.00000000000E+00 0.  1.
<scales pt_clust_5="13000.00000" pt_clust_6="13000.00000" pt_clust_7="13000.00000" pt_clust_8="13000.00000" pt_clust_9="69.08578"></scales>
<clustering>
<clus scale="   69.086">  1  9  2 -1</clus>
<clus scale="   87.126">  5  6 -1 -1</clus>
<clus scale="   91.209">  7  8 -1 -1</clus>
<clus scale="  103.746">  1  5  2 -1</clus>
<clus scale="   69.086">  1  5  2 -1</clus>
</clustering>
</event>
<event>
 9    1  0.1636528E-005  0.1061414E+03  0.7546771E-02  0.1268077E+00
         21   -1    0    0  501  502  0.00000000000E+00  0.00000000000E+00  0.31024124822E+03  0.31024124822E+03  0.00000000000E+00 0. -1.
          1   -1    0    0  502    0 -0.00000000000E+00 -0.00000000000E+00 -0.73809765412E+02  0.73809765412E+02  0.00000000000E+00 0. -1.
         23    2    1    2    0    0 -0.66798450421E+02 -0.18620227417E+02  0.31255723806E+02  0.11947965046E+03  0.92139680683E+02 0.  0.
         23    2    1    2    0    0  0.26916796741E+01  0.33858846332E+02  0.14483787807E+03  0.17522622655E+03  0.92588082024E+02 0.  0.
        -11    1    3    3    0    0 -0.48670585592E+02  0.17430425523E+01  0.61704770951E+02  0.78608796310E+02  0.00000000000E+00 0. -1.
         11    1    3    3    0    0 -0.18127864829E+02 -0.20363269969E+02 -0.30449047145E+02  0.40870854152E+02  0.00000000000E+00 0.  1.
        -11    1    4    4    0    0 -0.29120092781E+02  0.59882750258E+01  0.12504450417E+03  0.12853002475E+03  0.00000000000E+00 0. -1.
         11    1    4    4    0    0  0.31811772455E+02  0.27870571307E+02  0.19793373906E+02  0.46696201797E+02  0.00000000000E+00 0.  1.
          1    1    1    2  501    0  0.64106770747E+02 -0.15238618916E+02  0.60337880932E+02  0.89345136619E+02  0.00000000000E+00 0. -1.
<scales pt_clust_5="13000.00000" pt_clust_6="13000.00000" pt_clust_7="13000.00000" pt_clust_8="13000.00000" pt_clust_9="65.89305"></scales>
<clustering>
<clus scale="   65.893">  1  9  2 -1</clus>
<clus scale="   92.140">  5  6 -1 -1</clus>
<clus scale="   92.588">  7  8 -1 -1</clus>
<clus scale="  105.750">  2  5  1 -1</clus>
<clus scale="   65.893">  1  5  2 -1</clus>
</clustering>
</event>
<event>
 9    1  0.1636528E-005  0.9673416E+02  0.7546771E-02  0.1288649E+00
         21   -1    0    0  501  502  0.00000000000E+00  0.00000000000E+00  0.15047724582E+03  0.15047724582E+03  0.00000000000E+00 0. -1.
          1   -1    0    0  502    0 -0.00000000000E+00 -0.00000000000E+00 -0.16446375540E+03  0.16446375540E+03  0.00000000000E+00 0. -1.
         23    2    1    2    0    0 -0.32568615073E+02 -0.26536877523E+02 -0.99158231663E+02  0.13954837719E+03  0.88749502049E+02 0.  0.
         23    2    1    2    0    0  0.12860853988E+01  0.86315462553E+01  0.10277608618E+02  0.92276285184E+02  0.91285957091E+02 0.  0.
        -13    1    3    3    0    0  0.27292480307E+02 -0.23842172148E+02 -0.24174036228E+02  0.43562744193E+02  0.00000000000E+00 0.  1.
         13    1    3    3    0    0 -0.59861095380E+02 -0.26947053749E+01 -0.74984195435E+02  0.95985632999E+02  0.00000000000E+00 0. -1.
        -13    1    4    4    0    0  0.17737546152E+02  0.46537340613E+02  0.46481334044E+00  0.49805227298E+02  0.00000000000E+00 0.  1.
         13    1    4    4    0    0 -0.16451460753E+02 -0.37905794357E+02  0.98127952779E+01  0.42471057886E+02  0.00000000000E+00 0. -1.
          1    1    1    2  501    0  0.31282529674E+02  0.17905331267E+02  0.74894113471E+02  0.83116338846E+02  0.00000000000E+00 0. -1.
<scales pt_clust_5="13000.00000" pt_clust_6="13000.00000" pt_clust_7="13000.00000" pt_clust_8="13000.00000" pt_clust_9="36.04438"></scales>
<clustering>
<clus scale="   36.044">  1  9  2 -1</clus>
<clus scale="   88.750">  5  6 -1 -1</clus>
<clus scale="   91.286">  7  8 -1 -1</clus>
<clus scale="   94.344">  2  5  1 -1</clus>
<clus scale="   36.044">  1  5  2 -1</clus>
</clustering>
</event>
<event>
 9    1  0.1636528E-005  0.1411230E+03  0.7546771E-02  0.1214204E+00
         -3   -1    0    0    0  501 -0.00000000000E+00  0.00000000000E+00  0.14110229206E+03  0.14110229206E+03  0.00000000000E+00 0.  1.
         21   -1    0    0  501  502  0.00000000000E+00 -0.00000000000E+00 -0.26341079445E+03  0.26341079445E+03  0.00000000000E+00 0. -1.
         23    2    1    2    0    0  0.11650022347E+03 -0.47200294887E+01  0.19916056288E+02  0.15554281002E+03  0.10100661219E+03 0.  0.
         23    2    1    2    0    0 -0.53147550163E+02  0.18826524541E+02 -0.14924404761E+03  0.18368760158E+03  0.91039821581E+02 0.  0.
        -11    1    3    3    0    0  0.12182951577E+03  0.19500897087E+02  0.32701881629E+02  0.12764062426E+03  0.00000000000E+00 0.  1.
         11    1    3    3    0    0 -0.53292923006E+01 -0.24220926576E+02 -0.12785825342E+02  0.27902185762E+02  0.00000000000E+00 0. -1.
        -11    1    4    4    0    0 -0.27935770823E+02  0.49802268740E+01 -0.15215363315E+03  0.15477705913E+03  0.00000000000E+00 0. -1.
         11    1    4    4    0    0 -0.25211779340E+02  0.13846297667E+02  0.29095855487E+01  0.28910542448E+02  0.00000000000E+00 0.  1.
         -3    1    1    2    0  502 -0.63352673308E+02 -0.14106495052E+02  0.70194889247E+01  0.65282674904E+02  0.00000000000E+00 0.  1.
<scales pt_clust_5="13000.00000" pt_clust_6="13000.00000" pt_clust_7="13000.00000" pt_clust_8="13000.00000" pt_clust_9="64.90423"></scales>
<clustering>
<clus scale="   64.904">  2  9  1 -1</clus>
<clus scale="   91.040">  7  8 -1 -1</clus>
<clus scale="  101.007">  5  6 -1 -1</clus>
<clus scale="  134.170">  2  7  1 -1</clus>
<clus scale="   64.904">  2  5  1 -1</clus>
</clustering>
</event>
<event>
 9    1  0.1636528E-005  0.1204206E+03  0.7546771E-02  0.1254201E+00
         -1   -1    0    0    0  501 -0.00000000000E+00  0.00000000000E+00  0.30531203459E+03  0.30531203459E+03  0.00000000000E+00 0.  1.
         21   -1    0    0  501  502  0.00000000000E+00 -0.00000000000E+00 -0.55649735851E+02  0.55649735851E+02  0.00000000000E+00 0. -1.
         23    2    1    2    0    0 -0.36606161715E+02  0.38905341828E+01  0.17055773022E+03  0.20906948312E+03  0.11517361721E+03 0.  0.
         23    2    1    2    0    0  0.32156157585E+02  0.16051651766E+02  0.32075658316E+02  0.10061644787E+03  0.88335427379E+02 0.  0.
        -11    1    4    4    0    0 -0.25463217636E+02  0.24322994754E+02  0.22055431173E+02  0.41550277621E+02  0.00000000000E+00 0.  1.
         11    1    4    4    0    0  0.57619375221E+02 -0.82713429874E+01  0.10020227143E+02  0.59066170247E+02  0.00000000000E+00 0. -1.
        -13    1    3    3    0    0 -0.55002029404E+02 -0.42724411385E+02  0.84705357199E+02  0.10966127897E+03  0.00000000000E+00 0.  1.
         13    1    3    3    0    0  0.18395867689E+02  0.46614945568E+02  0.85852373026E+02  0.99408204151E+02  0.00000000000E+00 0. -1.
         -1    1    1    2    0  502  0.44500041298E+01 -0.19942185949E+02  0.47028910195E+02  0.51275839450E+02  0.00000000000E+00 0.  1.
<scales pt_clust_5="13000.00000" pt_clust_6="13000.00000" pt_clust_7="13000.00000" pt_clust_8="13000.00000" pt_clust_9="20.43266"></scales>
<clustering>
<clus scale="   20.433">  2  9  1 -1</clus>
<clus scale="   88.335">  5  6 -1 -1</clus>
<clus scale="   95.075">  2  5  1 -1</clus>
<clus scale="  115.174">  7  8 -1 -1</clus>
<clus scale="   20.433">  2  5  1 -1</clus>
</clustering>
</event>
<event>
 9    1  0.1931613E-005  0.2010939E+03  0.7546771E-02  0.1148862E+00
          2   -1    0    0  502    0 -0.00000000000E+00  0.00000000000E+00  0.72044865963E+03  0.72044865963E+03  0.00000000000E+00 0. -1.
         21   -1    0    0  501  502  0.00000000000E+00 -0.00000000000E+00 -0.36846825282E+03  0.36846825282E+03  0.00000000000E+00 0. -1.
         23    2    1    2    0    0  0.18470548990E+03 -0.84671926847E+02  0.59787580008E+03  0.63807841428E+03  0.91668627468E+02 0.  0.
         23    2    1    2    0    0 -0.11592086020E+03 -0.49175673512E+02  0.80027263180E+01  0.15569317713E+03  0.91216386031E+02 0.  0.
        -11    1    4    4    0    0 -0.43101774970E+02 -0.67634141488E+02  0.55263331323E+00  0.80202528040E+02  0.00000000000E+00 0. -1.
         11    1    4    4    0    0 -0.72819085234E+02  0.18458467976E+02  0.74500930048E+01  0.75490649090E+02  0.00000000000E+00 0.  1.
        -13    1    3    3    0    0  0.35901572705E+02  0.13625276315E+02  0.58440433159E+02  0.69927500349E+02  0.00000000000E+00 0.  1.
         13    1    3    3    0    0  0.14880391720E+03 -0.98297203162E+02  0.53943536692E+03  0.56815091393E+03  0.00000000000E+00 0. -1.
          2    1    1    2  501    0 -0.68784629699E+02  0.13384760036E+03 -0.25389811958E+03  0.29514532104E+03  0.00000000000E+00 0. -1.
<scales pt_clust_5="13000.00000" pt_clust_6="13000.00000" pt_clust_7="13000.00000" pt_clust_8="13000.00000" pt_clust_9="150.48756"></scales>
<clustering>
<clus scale="   91.216">  5  6 -1 -1</clus>
<clus scale="   91.669">  7  8 -1 -1</clus>
<clus scale="  150.488">  2  9  1 -1</clus>
<clus scale="  200.888">  2  5  1 -1</clus>
<clus scale="  150.488">  2  5  1 -1</clus>
</clustering>
</event>
<event>
 9    1  0.1636528E-005  0.9805807E+02  0.7546771E-02  0.1286593E+00
         21   -1    0    0  501  502  0.00000000000E+00  0.00000000000E+00  0.18023857692E+03  0.18023857692E+03  0.00000000000E+00 0.  1.
          2   -1    0    0  502    0 -0.00000000000E+00 -0.00000000000E+00 -0.18492047638E+03  0.18492047638E+03  0.00000000000E+00 0. -1.
         23    2    1    2    0    0 -0.35948321112E+02 -0.15815400762E+02 -0.14868252449E+03  0.17858488259E+03  0.90794595164E+02 0.  0.
         23    2    1    2    0    0  0.23622553125E+02 -0.10714183435E+00  0.82583303968E+02  0.12194028450E+03  0.86552841632E+02 0.  0.
        -11    1    3    3    0    0 -0.25952346742E+02  0.34592606665E+02 -0.94406996139E+02  0.10384052031E+03  0.00000000000E+00 0. -1.
         11    1    3    3    0    0 -0.99959743702E+01 -0.50408007427E+02 -0.54275528347E+02  0.74744362287E+02  0.00000000000E+00 0.  1.
        -11    1    4    4    0    0  0.30563943703E+02 -0.24384929583E+02  0.87839299768E+02  0.96148437476E+02  0.00000000000E+00 0.  1.
         11    1    4    4    0    0 -0.69413905784E+01  0.24277787749E+02 -0.52559957999E+01  0.25791847025E+02  0.00000000000E+00 0. -1.
          2    1    1    2  501    0  0.12325767987E+02  0.15922542596E+02  0.61417321060E+02  0.64633886200E+02  0.00000000000E+00 0. -1.
<scales pt_clust_5="13000.00000" pt_clust_6="13000.00000" pt_clust_7="13000.00000" pt_clust_8="13000.00000" pt_clust_9="20.13584"></scales>
<clustering>
<clus scale="   20.136">  1  9  2 -1</clus>
<clus scale="   86.553">  7  8 -1 -1</clus>
<clus scale="   90.795">  5  6 -1 -1</clus>
<clus scale="   94.144">  1  7  2 -1</clus>
<clus scale="   20.136">  1  5  2 -1</clus>
</clustering>
</event>
<event>
 9    1  0.1636528E-005  0.9670956E+02  0.7546771E-02  0.1289145E+00
          2   -1    0    0  502    0 -0.00000000000E+00  0.00000000000E+00  0.24067685143E+03  0.24067685143E+03  0.00000000000E+00 0. -1.
         21   -1    0    0  501  502  0.00000000000E+00 -0.00000000000E+00 -0.19240058871E+03  0.19240058871E+03  0.00000000000E+00 0.  1.
         23    2    1    2    0    0 -0.25714249246E+02  0.16121067317E+02  0.20707874679E+03  0.22893308992E+03  0.92777372592E+02 0.  0.
         23    2    1    2    0    0 -0.92529977015E+01 -0.59153102536E+00 -0.10821350854E+03  0.14071628623E+03  0.89470340918E+02 0.  0.
        -11    1    3    3    0    0  0.19424796462E+02  0.38218393441E+02  0.13026931653E+03  0.13714249211E+03  0.00000000000E+00 0.  1.
         11    1    3    3    0    0 -0.45139045708E+02 -0.22097326124E+02  0.76809430258E+02  0.91790597808E+02  0.00000000000E+00 0. -1.
        -11    1    4    4    0    0  0.69290578225E+01  0.42941234590E+02 -0.53367901522E+02  0.68848343359E+02  0.00000000000E+00 0.  1.
         11    1    4    4    0    0 -0.16182055524E+02 -0.43532765616E+02 -0.54845607014E+02  0.71867942867E+02  0.00000000000E+00 0. -1.
          2    1    1    2  501    0  0.34967246947E+02 -0.15529536292E+02 -0.50588975535E+02  0.63428063995E+02  0.00000000000E+00 0. -1.
<scales pt_clust_5="13000.00000" pt_clust_6="13000.00000" pt_clust_7="13000.00000" pt_clust_8="13000.00000" pt_clust_9="38.26062"></scales>
<clustering>
<clus scale="   38.261">  2  9  1 -1</clus>
<clus scale="   89.470">  7  8 -1 -1</clus>
<clus scale="   92.777">  5  6 -1 -1</clus>
<clus scale="   93.542">  2  7  1 -1</clus>
<clus scale="   38.261">  2  5  1 -1</clus>
</clustering>
</event>
<event>
 9    1  0.1636528E-005  0.1791950E+03  0.7546771E-02  0.1171683E+00
          4   -1    0    0  502    0 -0.00000000000E+00  0.00000000000E+00  0.37900850914E+03  0.37900850914E+03  0.00000000000E+00 0. -1.
         21   -1    0    0  501  502  0.00000000000E+00 -0.00000000000E+00 -0.18799562710E+03  0.18799562710E+03  0.00000000000E+00 0.  1.
         23    2    1    2    0    0  0.55856814797E+02  0.81330876239E+02  0.80042121520E+02  0.17023487663E+03  0.11330700250E+03 0.  0.
         23    2    1    2    0    0 -0.14182572464E+03 -0.18008879638E+03  0.49725172395E+02  0.25221891434E+03  0.92710717998E+02 0.  0.
        -11    1    4    4    0    0 -0.67363290256E+02 -0.20187433269E+02  0.21859981646E+02  0.73642407169E+02  0.00000000000E+00 0. -1.
         11    1    4    4    0    0 -0.74462434386E+02 -0.15990136311E+03  0.27865190749E+02  0.17857650718E+03  0.00000000000E+00 0.  1.
        -11    1    3    3    0    0 -0.28486966374E+02  0.77383105726E+01 -0.46315572559E+01  0.29880428817E+02  0.00000000000E+00 0.  1.
         11    1    3    3    0    0  0.84343781170E+02  0.73592565667E+02  0.84673678775E+02  0.14035444781E+03  0.00000000000E+00 0. -1.
          4    1    1    2  501    0  0.85968909845E+02  0.98757920140E+02  0.61245588126E+02  0.14455034526E+03  0.00000000000E+00 0. -1.
<scales pt_clust_5="13000.00000" pt_clust_6="13000.00000" pt_clust_7="13000.00000" pt_clust_8="13000.00000" pt_clust_9="130.93432"></scales>
<clustering>
<clus scale="   92.711">  5  6 -1 -1</clus>
<clus scale="  113.307">  7  8 -1 -1</clus>
<clus scale="  130.934">  2  9  1 -1</clus>
<clus scale="  166.936">  2  5  1 -1</clus>
<clus scale="  130.934">  2  5  1 -1</clus>
</clustering>
</event>
<event>
 9    1  0.1636528E-005  0.1053485E+03  0.7546771E-02  0.1272242E+00
          1   -1    0    0  502    0 -0.00000000000E+00  0.00000000000E+00  0.27237640723E+03  0.27237640723E+03  0.00000000000E+00 0. -1.
         21   -1    0    0  501  502  0.00000000000E+00 -0.00000000000E+00 -0.24674263498E+03  0.24674263498E+03  0.00000000000E+00 0. -1.
         23    2    1    2    0    0  0.10406556273E+00 -0.19423094645E+02  0.14464492257E+03  0.17561889494E+03  0.97686105460E+02 0.  0.
         23    2    1    2    0    0 -0.36171054624E+02  0.91039076142E+02  0.60292198912E+02  0.14708383544E+03  0.91662679535E+02 0.  0.
        -13    1    4    4    0    0 -0.23518371888E+01  0.38673356321E+02  0.73752411852E+02  0.83310130724E+02  0.00000000000E+00 0. -1.
         13    1    4    4    0    0 -0.33819217435E+02  0.52365719821E+02 -0.13460212940E+02  0.63773704712E+02  0.00000000000E+00 0.  1.
        -13    1    3    3    0    0 -0.30771864211E+02  0.10190979268E+02  0.12390417870E+03  0.12807423310E+03  0.00000000000E+00 0.  1.
         13    1    3    3    0    0  0.30875929774E+02 -0.29614073912E+02  0.20740743871E+02  0.47544661839E+02  0.00000000000E+00 0. -1.
          1    1    1    2  501    0  0.36066989061E+02 -0.71615981498E+02 -0.17930334924E+03  0.19641631183E+03  0.00000000000E+00 0. -1.
<scales pt_clust_5="13000.00000" pt_clust_6="13000.00000" pt_clust_7="13000.00000" pt_clust_8="13000.00000" pt_clust_9="80.18526"></scales>
<clustering>
<clus scale="   80.185">  2  9  1 -1</clus>
<clus scale="   91.663">  5  6 -1 -1</clus>
<clus scale="   97.686">  7  8 -1 -1</clus>
<clus scale="   99.789">  2  5  1 -1</clus>
<clus scale="   80.185">  2  5  1 -1</clus>
</clustering>
</event>
<event>
 9    1  0.1636528E-005  0.1500355E+03  0.7546771E-02  0.1200906E+00
          1   -1    0    0  502    0 -0.00000000000E+00  0.00000000000E+00  0.63525426919E+03  0.63525426919E+03  0.00000000000E+00 0. -1.
         21   -1    0    0  501  502  0.00000000000E+00 -0.00000000000E+00 -0.97100904632E+02  0.97100904632E+02  0.00000000000E+00 0. -1.
         23    2    1    2    0    0 -0.37812015283E+02 -0.13370932668E+03  0.44708361393E+03  0.47699100939E+03  0.91261890460E+02 0.  0.
         23    2    1    2    0    0  0.50788868706E+02  0.73158447643E+02  0.13110358440E+03  0.18162465316E+03  0.88700040289E+02 0.  0.
        -11    1    4    4    0    0  0.22883112017E+02 -0.18446770729E+02  0.23937203142E+02  0.37906593888E+02  0.00000000000E+00 0. -1.
         11    1    4    4    0    0  0.27905756689E+02  0.91605218372E+02  0.10716638126E+03  0.14371805927E+03  0.00000000000E+00 0.  1.
        -13    1    3    3    0    0 -0.54815918702E+02 -0.42946888870E+02  0.14062147167E+03  0.15691914638E+03  0.00000000000E+00 0.  1.
         13    1    3    3    0    0  0.17003903419E+02 -0.90762437805E+02  0.30646214226E+03  0.32007186301E+03  0.00000000000E+00 0. -1.
          1    1    1    2  501    0 -0.12976853423E+02  0.60550879032E+02 -0.40033833773E+02  0.73739511274E+02  0.00000000000E+00 0. -1.
<scales pt_clust_5="13000.00000" pt_clust_6="13000.00000" pt_clust_7="13000.00000" pt_clust_8="13000.00000" pt_clust_9="61.92582"></scales>
<clustering>
<clus scale="   61.926">  2  9  1 -1</clus>
<clus scale="   88.700">  5  6 -1 -1</clus>
<clus scale="   91.262">  7  8 -1 -1</clus>
<clus scale="  148.491">  2  5  1 -1</clus>
<clus scale="   61.926">  2  5  1 -1</clus>
</clustering>
</event>
<event>
 9    1  0.1636528E-005  0.1138233E+03  0.7546771E-02  0.1257271E+00
         21   -1    0    0  501  502  0.00000000000E+00  0.00000000000E+00  0.10307049917E+03  0.10307049917E+03  0.00000000000E+00 0.  1.
          4   -1    0    0  502    0 -0.00000000000E+00 -0.00000000000E+00 -0.21941935947E+03  0.21941935947E+03  0.00000000000E+00 0. -1.
         23    2    1    2    0    0  0.56896381422E+02  0.25668497352E+02 -0.13173850960E+03  0.17211914519E+03  0.91508990011E+02 0.  0.
         23    2    1    2    0    0 -0.29606780235E+02 -0.14897616122E+02 -0.16403133195E+02  0.10710970058E+03  0.10052325491E+03 0.  0.
        -13    1    3    3    0    0 -0.64164403411E+01 -0.23468728118E+02 -0.59271594144E+02  0.64070849679E+02  0.00000000000E+00 0.  1.
         13    1    3    3    0    0  0.63312821763E+02  0.49137225470E+02 -0.72466915457E+02  0.10804829551E+03  0.00000000000E+00 0. -1.
        -13    1    4    4    0    0 -0.40488163498E+02  0.34220440947E+02  0.32175009841E+01  0.53110095788E+02  0.00000000000E+00 0.  1.
         13    1    4    4    0    0  0.10881383263E+02 -0.49118057070E+02 -0.19620634179E+02  0.53999604791E+02  0.00000000000E+00 0. -1.
          4    1    1    2  501    0 -0.27289601187E+02 -0.10770881229E+02  0.31792782498E+02  0.43261012868E+02  0.00000000000E+00 0. -1.
<scales pt_clust_5="13000.00000" pt_clust_6="13000.00000" pt_clust_7="13000.00000" pt_clust_8="13000.00000" pt_clust_9="29.33827"></scales>
<clustering>
<clus scale="   29.338">  1  9  2 -1</clus>
<clus scale="   91.509">  5  6 -1 -1</clus>
<clus scale="  100.523">  7  8 -1 -1</clus>
<clus scale="  105.947">  2  5  1 -1</clus>
<clus scale="   29.338">  1  5  2 -1</clus>
</clustering>
</event>
<event>
 9    1  0.1636528E-005  0.1295823E+03  0.7546771E-02  0.1228725E+00
         21   -1    0    0  501  502  0.00000000000E+00  0.00000000000E+00  0.16769768813E+03  0.16769768813E+03  0.00000000000E+00 0.  1.
          2   -1    0    0  502    0 -0.00000000000E+00 -0.00000000000E+00 -0.38256596089E+03  0.38256596089E+03  0.00000000000E+00 0. -1.
         23    2    1    2    0    0 -0.88106020290E+02 -0.18590330939E+02 -0.29123792709E+03  0.31792171474E+03  0.90257494473E+02 0.  0.
         23    2    1    2    0    0  0.10030338716E+03  0.80903735314E+02  0.52653221734E+02  0.16456136702E+03  0.87760457462E+02 0.  0.
        -11    1    3    3    0    0 -0.70951128662E+02  0.37873856635E+01 -0.27769605384E+03  0.28664177167E+03  0.00000000000E+00 0. -1.
         11    1    3    3    0    0 -0.17154891627E+02 -0.22377716603E+02 -0.13541873255E+02  0.31279943068E+02  0.00000000000E+00 0.  1.
        -13    1    4    4    0    0  0.20067279470E+02 -0.18430557120E+02  0.16488448120E+02  0.31847292859E+02  0.00000000000E+00 0.  1.
         13    1    4    4    0    0  0.80236107688E+02  0.99334292434E+02  0.36164773614E+02  0.13271407416E+03  0.00000000000E+00 0. -1.
          2    1    1    2  501    0 -0.12197366869E+02 -0.62313404375E+02  0.23716432597E+02  0.67780567263E+02  0.00000000000E+00 0. -1.
<scales pt_clust_5="13000.00000" pt_clust_6="13000.00000" pt_clust_7="13000.00000" pt_clust_8="13000.00000" pt_clust_9="63.49595"></scales>
<clustering>
<clus scale="   63.496">  1  9  2 -1</clus>
<clus scale="   87.760">  7  8 -1 -1</clus>
<clus scale="   90.257">  5  6 -1 -1</clus>
<clus scale="  127.856">  1  7  2 -1</clus>
<clus scale="   63.496">  1  5  2 -1</clus>
</clustering>
</event>
<event>
 9    1  0.1636528E-005  0.1717217E+03  0.7546771E-02  0.1177123E+00
          1   -1    0    0  502    0 -0.00000000000E+00  0.00000000000E+00  0.10349170707E+04  0.10349170707E+04  0.00000000000E+00 0. -1.
         21   -1    0    0  501  502  0.00000000000E+00 -0.00000000000E+00 -0.82045161308E+02  0.82045161308E+02  0.00000000000E+00 0.  1.
         23    2    1    2    0    0  0.89826918560E+02 -0.92832439081E+02  0.59698287195E+03  0.61759997112E+03  0.91402614238E+02 0.  0.
         23    2    1    2    0    0 -0.89918297228E+02  0.19965297727E+03  0.29375714075E+03  0.37578633960E+03  0.83519481459E+02 0.  0.
        -11    1    3    3    0    0  0.14283911870E+02  0.18613104103E+02  0.79550553110E+02  0.82938340246E+02  0.00000000000E+00 0.  1.
         11    1    3    3    0    0  0.75543006689E+02 -0.11144554318E+03  0.51743231884E+03  0.53466163088E+03  0.00000000000E+00 0. -1.
        -13    1    4    4    0    0 -0.65351696526E+02  0.19463119928E+03  0.23591289507E+03  0.31274117419E+03  0.00000000000E+00 0.  1.
         13    1    4    4    0    0 -0.24566600701E+02  0.50217779888E+01  0.57844245676E+02  0.63045165414E+02  0.00000000000E+00 0. -1.
          1    1    1    2  501    0  0.91378667958E-01 -0.10682053819E+03  0.62131896668E+02  0.12357592125E+03  0.00000000000E+00 0. -1.
<scales pt_clust_5="13000.00000" pt_clust_6="13000.00000" pt_clust_7="13000.00000" pt_clust_8="13000.00000" pt_clust_9="106.82058"></scales>
<clustering>
<clus scale="   83.519">  7  8 -1 -1</clus>
<clus scale="   91.403">  5  6 -1 -1</clus>
<clus scale="  106.821">  2  9  1 -1</clus>
<clus scale="  167.659">  2  7  1 -1</clus>
<clus scale="  106.821">  2  5  1 -1</clus>
</clustering>
</event>
<event>
 9    1  0.1636528E-005  0.1573916E+03  0.7546771E-02  0.1195337E+00
         21   -1    0    0  501  502  0.00000000000E+00  0.00000000000E+00  0.42459685585E+02  0.42459685585E+02  0.00000000000E+00 0. -1.
         -3   -1    0    0    0  501 -0.00000000000E+00 -0.00000000000E+00 -0.77353771320E+03  0.77353771320E+03  0.00000000000E+00 0.  1.
         23    2    1    2    0    0 -0.42571924571E+02 -0.10434481231E+03 -0.48848844803E+03  0.51200193212E+03  0.10404232803E+03 0.  0.
         23    2    1    2    0    0  0.65276864114E+02  0.11221770481E+03 -0.22874131110E+03  0.27625972698E+03  0.84516075887E+02 0.  0.
        -11    1    3    3    0    0  0.13561124914E+02 -0.95413432792E+02 -0.31867497139E+03  0.33292846778E+03  0.00000000000E+00 0. -1.
         11    1    3    3    0    0 -0.56133049485E+02 -0.89313795160E+01 -0.16981347664E+03  0.17907346435E+03  0.00000000000E+00 0.  1.
        -13    1    4    4    0    0  0.30302311790E+02  0.11175493007E+03 -0.19950657316E+03  0.23067350786E+03  0.00000000000E+00 0.  1.
         13    1    4    4    0    0  0.34974552324E+02  0.46277473986E+00 -0.29234737939E+02  0.45586219114E+02  0.00000000000E+00 0. -1.
         -3    1    1    2    0  502 -0.22704939543E+02 -0.78728924970E+01 -0.13848268481E+02  0.27735739684E+02  0.00000000000E+00 0.  1.
<scales pt_clust_5="13000.00000" pt_clust_6="13000.00000" pt_clust_7="13000.00000" pt_clust_8="13000.00000" pt_clust_9="24.03116"></scales>
<clustering>
<clus scale="   24.031">  1  9  2 -1</clus>
<clus scale="   84.516">  7  8 -1 -1</clus>
<clus scale="  104.042">  5  6 -1 -1</clus>
<clus scale="  145.225">  1  7  2 -1</clus>
<clus scale="   24.031">  1  5  2 -1</clus>
</clustering>
</event>
<event>
 9    1  0.1636528E-005  0.1516015E+03  0.7546771E-02  0.1220298E+00
          2   -1    0    0  502    0 -0.00000000000E+00  0.00000000000E+00  0.10827214118E+04  0.10827214118E+04  0.00000000000E+00 0. -1.
         21   -1    0    0  501  502  0.00000000000E+00 -0.00000000000E+00 -0.35521443126E+02  0.35521443126E+02  0.00000000000E+00 0.  1.
         23    2    1    2    0    0 -0.18611995442E+02  0.19186265189E+02  0.34102660759E+03  0.35405805696E+03  0.91342440668E+02 0.  0.
         23    2    1    2    0    0  0.12836931250E+03 -0.46790414222E+02  0.52572586099E+03  0.55118254920E+03  0.93522715765E+02 0.  0.
        -11    1    4    4    0    0  0.84375148195E+02 -0.65877509874E+02  0.44119628060E+03  0.45399688320E+03  0.00000000000E+00 0.  1.
         11    1    4    4    0    0  0.43994164306E+02  0.19087095652E+02  0.84529580399E+02  0.97185666000E+02  0.00000000000E+00 0. -1.
        -11    1    3    3    0    0  0.30485026590E+02  0.29879163180E+02  0.11922905382E+03  0.12663991675E+03  0.00000000000E+00 0.  1.
         11    1    3    3    0    0 -0.49097022032E+02 -0.10692897992E+02  0.22179755377E+03  0.22741814021E+03  0.00000000000E+00 0. -1.
          2    1    1    2  501    0 -0.10975731706E+03  0.27604149033E+02  0.18044750007E+03  0.21300224875E+03  0.00000000000E+00 0. -1.
<scales pt_clust_5="13000.00000" pt_clust_6="13000.00000" pt_clust_7="13000.00000" pt_clust_8="13000.00000" pt_clust_9="119.31688"></scales>
<clustering>
<clus scale="   91.342">  7  8 -1 -1</clus>
<clus scale="   93.523">  5  6 -1 -1</clus>
<clus scale="   95.173">  1  7  2 -1</clus>
<clus scale="  119.317">  2  9  1 -1</clus>
<clus scale="  119.317">  2  5  1 -1</clus>
</clustering>
</event>
<event>
 9    1  0.1636528E-005  0.1163828E+03  0.7546771E-02  0.1251120E+00
         21   -1    0    0  501  502  0.00000000000E+00  0.00000000000E+00  0.73116486597E+02  0.73116486597E+02  0.00000000000E+00 0. -1.
          2   -1    0    0  502    0 -0.00000000000E+00 -0.00000000000E+00 -0.75264238367E+03  0.75264238367E+03  0.00000000000E+00 0. -1.
         23    2    1    2    0    0  0.86311638124E+02  0.14922267406E+01 -0.56015359582E+03  0.57491303481E+03  0.96441801507E+02 0.  0.
         23    2    1    2    0    0 -0.26072860729E+02  0.99299233290E+01 -0.15351810581E+03  0.18066669480E+03  0.91072764071E+02 0.  0.
        -11    1    3    3    0    0  0.45774886516E+02  0.47873265285E+02 -0.33499357122E+03  0.34147896352E+03  0.00000000000E+00 0. -1.
         11    1    3    3    0    0  0.40536751608E+02 -0.46381038544E+02 -0.22516002459E+03  0.23343407130E+03  0.00000000000E+00 0.  1.
        -11    1    4    4    0    0  0.25150635829E+02  0.29315309645E+02 -0.81491237716E+02  0.90181836789E+02  0.00000000000E+00 0. -1.
         11    1    4    4    0    0 -0.51223496559E+02 -0.19385386316E+02 -0.72026868094E+02  0.90484858014E+02  0.00000000000E+00 0.  1.
          2    1    1    2  501    0 -0.60238777395E+02 -0.11422150070E+02  0.34145804551E+02  0.70179140652E+02  0.00000000000E+00 0. -1.
<scales pt_clust_5="13000.00000" pt_clust_6="13000.00000" pt_clust_7="13000.00000" pt_clust_8="13000.00000" pt_clust_9="61.31212"></scales>
<clustering>
<clus scale="   61.312">  1  9  2 -1</clus>
<clus scale="   91.073">  7  8 -1 -1</clus>
<clus scale="   96.442">  5  6 -1 -1</clus>
<clus scale="  111.974">  1  7  2 -1</clus>
<clus scale="   61.312">  1  5  2 -1</clus>
</clustering>
</event>
<event>
 9    1  0.1636528E-005  0.9245216E+02  0.7546771E-02  0.1297836E+00
         -1   -1    0    0    0  501 -0.00000000000E+00  0.00000000000E+00  0.44092417474E+02  0.44092417474E+02  0.00000000000E+00 0.  1.
         21   -1    0    0  501  502  0.00000000000E+00 -0.00000000000E+00 -0.47396705075E+03  0.47396705075E+03  0.00000000000E+00 0. -1.
         23    2    1    2    0    0 -0.18106947870E+01 -0.34468996200E+01 -0.27096846265E+02  0.96200695865E+02  0.92223506086E+02 0.  0.
         23    2    1    2    0    0 -0.13418767716E+02  0.18139819700E+02 -0.23823569028E+03  0.25596145465E+03  0.90834496503E+02 0.  0.
        -13    1    3    3    0    0 -0.12055243477E+02  0.37790696922E+02 -0.35095009988E+02  0.52963434511E+02  0.00000000000E+00 0. -1.
         13    1    3    3    0    0  0.10244548690E+02 -0.41237596542E+02  0.79981637231E+01  0.43237261354E+02  0.00000000000E+00 0.  1.
        -13    1    4    4    0    0 -0.43911381765E+02  0.25665417295E+02 -0.81188334934E+02  0.95804325700E+02  0.00000000000E+00 0.  1.
         13    1    4    4    0    0  0.30492614049E+02 -0.75255975946E+01 -0.15704735535E+03  0.16015712895E+03  0.00000000000E+00 0. -1.
         -1    1    1    2    0  502  0.15229462503E+02 -0.14692920080E+02 -0.16454209673E+03  0.16589731772E+03  0.00000000000E+00 0.  1.
<scales pt_clust_5="13000.00000" pt_clust_6="13000.00000" pt_clust_7="13000.00000" pt_clust_8="13000.00000" pt_clust_9="21.16172"></scales>
<clustering>
<clus scale="   21.162">  2  9  1 -1</clus>
<clus scale="   90.834">  7  8 -1 -1</clus>
<clus scale="   91.067">  2  7  1 -1</clus>
<clus scale="   92.224">  5  6 -1 -1</clus>
<clus scale="   21.162">  2  5  1 -1</clus>
</clustering>
</event>
<event>
 9    1  0.1636528E-005  0.1116359E+03  0.7546771E-02  0.1260927E+00
         21   -1    0    0  501  502  0.00000000000E+00  0.00000000000E+00  0.38144749041E+02  0.38144749041E+02  0.00000000000E+00 0.  1.
          2   -1    0    0  502    0 -0.00000000000E+00 -0.00000000000E+00 -0.57664237042E+03  0.57664237042E+03  0.00000000000E+00 0. -1.
         23    2    1    2    0    0  0.15558394920E+02 -0.59100735229E+02 -0.32274144090E+03  0.34250598087E+03  0.97022413411E+02 0.  0.
         23    2    1    2    0    0  0.39656347350E+02  0.47062097253E+02 -0.12302343055E+03  0.16368574514E+03  0.88717483139E+02 0.  0.
        -11    1    4    4    0    0  0.59740345237E+02  0.25549530668E+02 -0.41710110308E+02  0.77210236810E+02  0.00000000000E+00 0.  1.
         11    1    4    4    0    0 -0.20083997886E+02  0.21512566584E+02 -0.81313320238E+02  0.86475508326E+02  0.00000000000E+00 0. -1.
        -13    1    3    3    0    0  0.17912574734E+02  0.24862802826E+02 -0.89538809189E+02  0.94637295232E+02  0.00000000000E+00 0.  1.
         13    1    3    3    0    0 -0.23541798143E+01 -0.83963538055E+02 -0.23320263171E+03  0.24786868564E+03  0.00000000000E+00 0. -1.
          2    1    1    2  501    0 -0.55214742270E+02  0.12038637977E+02 -0.92732749934E+02  0.10859539345E+03  0.00000000000E+00 0. -1.
<scales pt_clust_5="13000.00000" pt_clust_6="13000.00000" pt_clust_7="13000.00000" pt_clust_8="13000.00000" pt_clust_9="56.51192"></scales>
<clustering>
<clus scale="   56.512">  1  9  2 -1</clus>
<clus scale="   88.717">  5  6 -1 -1</clus>
<clus scale="   97.022">  7  8 -1 -1</clus>
<clus scale="  104.499">  1  5  2 -1</clus>
<clus scale="   56.512">  1  5  2 -1</clus>
</clustering>
</event>
<event>
 9    1  0.1636528E-005  0.9937156E+02  0.7546771E-02  0.1285044E+00
         -1   -1    0    0    0  501 -0.00000000000E+00  0.00000000000E+00  0.42266450274E+03  0.42266450274E+03  0.00000000000E+00 0.  1.
         21   -1    0    0  501  502  0.00000000000E+00 -0.00000000000E+00 -0.50088767069E+02  0.50088767069E+02  0.00000000000E+00 0.  1.
         23    2    1    2    0    0  0.20608595709E+02  0.15262645382E+02  0.21929567302E+03  0.24081230032E+03  0.96136929543E+02 0.  0.
         23    2    1    2    0    0 -0.30622173064E+02  0.19716201716E+02  0.16702671210E+03  0.19304673024E+03  0.89680942273E+02 0.  0.
        -11    1    3    3    0    0  0.52600369592E+02  0.27334259087E+02  0.95683128143E+02  0.11255763685E+03  0.00000000000E+00 0.  1.
         11    1    3    3    0    0 -0.31991773882E+02 -0.12071613706E+02  0.12361254487E+03  0.12825466348E+03  0.00000000000E+00 0. -1.
        -13    1    4    4    0    0 -0.36577713191E+02  0.49784208365E+02  0.13629388318E+03  0.14964096730E+03  0.00000000000E+00 0.  1.
         13    1    4    4    0    0  0.59555401276E+01 -0.30068006649E+02  0.30732828927E+02  0.43405762934E+02  0.00000000000E+00 0. -1.
         -1    1    1    2    0  502  0.10013577354E+02 -0.34978847097E+02 -0.13746649447E+02  0.38894239248E+02  0.00000000000E+00 0.  1.
<scales pt_clust_5="13000.00000" pt_clust_6="13000.00000" pt_clust_7="13000.00000" pt_clust_8="13000.00000" pt_clust_9="36.38395"></scales>
<clustering>
<clus scale="   36.384">  2  9  1 -1</clus>
<clus scale="   89.681">  7  8 -1 -1</clus>
<clus scale="   93.140">  2  7  1 -1</clus>
<clus scale="   96.137">  5  6 -1 -1</clus>
<clus scale="   36.384">  2  5  1 -1</clus>
</clustering>
</event>
<event>
 9    1  0.1636528E-005  0.1535189E+03  0.7546771E-02  0.1196791E+00
         21   -1    0    0  501  502  0.00000000000E+00  0.00000000000E+00  0.72648885436E+02  0.72648885436E+02  0.00000000000E+00 0.  1.
         -1   -1    0    0    0  501 -0.00000000000E+00 -0.00000000000E+00 -0.81272106938E+03  0.81272106938E+03  0.00000000000E+00 0.  1.
         23    2    1    2    0    0 -0.84709987233E+02  0.60838938368E+02 -0.34052835150E+03  0.36739731783E+03  0.90244515732E+02 0.  0.
         23    2    1    2    0    0  0.86468262065E+02 -0.17197677687E+03 -0.22063816930E+03  0.30734987709E+03  0.93434324900E+02 0.  0.
        -11    1    3    3    0    0 -0.98242470980E+02  0.30080601034E+02 -0.23073948467E+03  0.25258094831E+03  0.00000000000E+00 0.  1.
         11    1    3    3    0    0  0.13532483746E+02  0.30758337334E+02 -0.10978886682E+03  0.11481636952E+03  0.00000000000E+00 0. -1.
        -11    1    4    4    0    0  0.35989108929E+02 -0.34327652698E+02 -0.11893468540E+03  0.12891494519E+03  0.00000000000E+00 0.  1.
         11    1    4    4    0    0  0.50479153136E+02 -0.13764912417E+03 -0.10170348390E+03  0.17843493190E+03  0.00000000000E+00 0. -1.
         -1    1    1    2    0  502 -0.17582748314E+01  0.11113783850E+03 -0.17890566315E+03  0.21062275989E+03  0.00000000000E+00 0.  1.
<scales pt_clust_5="13000.00000" pt_clust_6="13000.00000" pt_clust_7="13000.00000" pt_clust_8="13000.00000" pt_clust_9="111.15180"></scales>
<clustering>
<clus scale="   90.245">  5  6 -1 -1</clus>
<clus scale="   93.434">  7  8 -1 -1</clus>
<clus scale="  111.152">  1  9  2 -1</clus>
<clus scale="  151.599">  2  5  1 -1</clus>
<clus scale="  111.152">  1  5  2 -1</clus>
</clustering>
</event>
<event>
 9    1  0.1636528E-005  0.1124437E+03  0.7546771E-02  0.1256555E+00
         21   -1    0    0  501  502  0.00000000000E+00  0.00000000000E+00  0.53801780808E+02  0.53801780808E+02  0.00000000000E+00 0. -1.
          1   -1    0    0  502    0 -0.00000000000E+00 -0.00000000000E+00 -0.57987621361E+03  0.57987621361E+03  0.00000000000E+00 0. -1.
         23    2    1    2    0    0  0.31028506410E+02 -0.57343006049E+02 -0.41573622391E+03  0.43070284511E+03  0.91746086379E+02 0.  0.
         23    2    1    2    0    0  0.15115588015E+02  0.76944584222E+02 -0.84426661672E+02  0.14654016373E+03  0.90538435728E+02 0.  0.
        -11    1    3    3    0    0  0.48155117437E+01  0.24974247889E+02 -0.11659767751E+03  0.11933951823E+03  0.00000000000E+00 0.  1.
         11    1    3    3    0    0  0.26212994666E+02 -0.82317253938E+02 -0.29913854640E+03  0.31136332688E+03  0.00000000000E+00 0. -1.
        -13    1    4    4    0    0 -0.13712410484E+02  0.87773143841E+02 -0.59514694838E+02  0.10693060312E+03  0.00000000000E+00 0.  1.
         13    1    4    4    0    0  0.28827998498E+02 -0.10828559619E+02 -0.24911966835E+02  0.39609560619E+02  0.00000000000E+00 0. -1.
          1    1    1    2  501    0 -0.46144094424E+02 -0.19601578173E+02 -0.25911547223E+02  0.56434985573E+02  0.00000000000E+00 0. -1.
<scales pt_clust_5="13000.00000" pt_clust_6="13000.00000" pt_clust_7="13000.00000" pt_clust_8="13000.00000" pt_clust_9="50.13481"></scales>
<clustering>
<clus scale="   50.135">  1  9  2 -1</clus>
<clus scale="   90.538">  7  8 -1 -1</clus>
<clus scale="   91.746">  5  6 -1 -1</clus>
<clus scale="  111.460">  1  7  2 -1</clus>
<clus scale="   50.135">  1  5  2 -1</clus>
</clustering>
</event>
<event>
 9    1  0.1636528E-005  0.1083697E+03  0.7546771E-02  0.1263989E+00
         21   -1    0    0  501  502  0.00000000000E+00  0.00000000000E+00  0.35309040695E+03  0.35309040695E+03  0.00000000000E+00 0. -1.
         -1   -1    0    0    0  501 -0.00000000000E+00 -0.00000000000E+00 -0.61493540530E+02  0.61493540530E+02  0.00000000000E+00 0.  1.
         23    2    1    2    0    0 -0.55012231618E+02  0.35599322041E+02  0.48193840771E+02  0.12323328437E+03  0.92575043774E+02 0.  0.
         23    2    1    2    0    0  0.30115911419E+02 -0.33711486615E+02  0.90775425701E+02  0.13669435077E+03  0.91660979543E+02 0.  0.
        -11    1    3    3    0    0  0.50955281030E+01  0.24404484905E+02  0.56284606391E+02  0.61558916549E+02  0.00000000000E+00 0. -1.
         11    1    3    3    0    0 -0.60107759721E+02  0.11194837137E+02 -0.80907656199E+01  0.61674367816E+02  0.00000000000E+00 0.  1.
        -13    1    4    4    0    0  0.58789855527E+02 -0.38359496033E+02  0.48196171495E+02  0.85150273020E+02  0.00000000000E+00 0.  1.
         13    1    4    4    0    0 -0.28673944108E+02  0.46480094176E+01  0.42579254206E+02  0.51544077749E+02  0.00000000000E+00 0. -1.
         -1    1    1    2    0  502  0.24896320199E+02 -0.18878354261E+01  0.15262759995E+03  0.15465631234E+03  0.00000000000E+00 0.  1.
<scales pt_clust_5="13000.00000" pt_clust_6="13000.00000" pt_clust_7="13000.00000" pt_clust_8="13000.00000" pt_clust_9="24.96779"></scales>
<clustering>
<clus scale="   24.968">  1  9  2 -1</clus>
<clus scale="   91.661">  7  8 -1 -1</clus>
<clus scale="   92.575">  5  6 -1 -1</clus>
<clus scale="  107.590">  1  7  2 -1</clus>
<clus scale="   24.968">  1  5  2 -1</clus>
</clustering>
</event>
<event>
 9    1  0.1636528E-005  0.1104731E+03  0.7546771E-02  0.1262107E+00
         -1   -1    0    0    0  501 -0.00000000000E+00  0.00000000000E+00  0.21713408938E+03  0.21713408938E+03  0.00000000000E+00 0.  1.
         21   -1    0    0  501  502  0.00000000000E+00 -0.00000000000E+00 -0.23670552006E+03  0.23670552006E+03  0.00000000000E+00 0.  1.
         23    2    1    2    0    0 -0.45915215546E+02  0.23639826837E+02  0.14172074763E+03  0.17659368384E+03  0.91834146325E+02 0.  0.
         23    2    1    2    0    0  0.61879099926E+02  0.90302298799E+01 -0.19551296265E+03  0.22731356845E+03  0.97650252327E+02 0.  0.
        -11    1    3    3    0    0 -0.11870313770E+00  0.51004489601E+02  0.57133208097E+02  0.76587698212E+02  0.00000000000E+00 0.  1.
         11    1    3    3    0    0 -0.45796512409E+02 -0.27364662764E+02  0.84587539534E+02  0.10000598563E+03  0.00000000000E+00 0. -1.
        -13    1    4    4    0    0  0.71906687074E+02 -0.27460739665E+02 -0.14539666129E+03  0.16451399024E+03  0.00000000000E+00 0.  1.
         13    1    4    4    0    0 -0.10027587148E+02  0.36490969545E+02 -0.50116301358E+02  0.62799578216E+02  0.00000000000E+00 0. -1.
         -1    1    1    2    0  502 -0.15963884380E+02 -0.32670056717E+02  0.34220784338E+02  0.49932357155E+02  0.00000000000E+00 0.  1.
<scales pt_clust_5="13000.00000" pt_clust_6="13000.00000" pt_clust_7="13000.00000" pt_clust_8="13000.00000" pt_clust_9="36.36179"></scales>
<clustering>
<clus scale="   36.362">  2  9  1 -1</clus>
<clus scale="   91.834">  5  6 -1 -1</clus>
<clus scale="   97.650">  7  8 -1 -1</clus>
<clus scale="  105.367">  1  5  2 -1</clus>
<clus scale="   36.362">  2  5  1 -1</clus>
</clustering>
</event>
<event>
 9    1  0.1636528E-005  0.9413271E+02  0.7546771E-02  0.1293876E+00
         21   -1    0    0  501  502  0.00000000000E+00  0.00000000000E+00  0.46937021037E+02  0.46937021037E+02  0.00000000000E+00 0. -1.
          1   -1    0    0  502    0 -0.00000000000E+00 -0.00000000000E+00 -0.50604570139E+03  0.50604570139E+03  0.00000000000E+00 0. -1.
         23    2    1    2    0    0  0.48990189686E+01  0.19904219637E+02 -0.36660636946E+03  0.37844478062E+03  0.91651751245E+02 0.  0.
         23    2    1    2    0    0  0.38072787865E+02 -0.29223097398E+02 -0.51986670894E+02  0.11474718374E+03  0.90337011396E+02 0.  0.
        -11    1    3    3    0    0 -0.43883748764E+01 -0.35950299344E+02 -0.11603741809E+03  0.12155806947E+03  0.00000000000E+00 0.  1.
         11    1    3    3    0    0  0.92873938450E+01  0.55854518981E+02 -0.25056895137E+03  0.25688671115E+03  0.00000000000E+00 0. -1.
        -11    1    4    4    0    0  0.64130507901E+02 -0.29787332939E+02 -0.19997136560E+02  0.73483962317E+02  0.00000000000E+00 0. -1.
         11    1    4    4    0    0 -0.26057720035E+02  0.56423554128E+00 -0.31989534334E+02  0.41263221421E+02  0.00000000000E+00 0.  1.
          1    1    1    2  501    0 -0.42971806834E+02  0.93188777610E+01 -0.40515639998E+02  0.59790758063E+02  0.00000000000E+00 0. -1.
<scales pt_clust_5="13000.00000" pt_clust_6="13000.00000" pt_clust_7="13000.00000" pt_clust_8="13000.00000" pt_clust_9="43.97065"></scales>
<clustering>
<clus scale="   43.971">  1  9  2 -1</clus>
<clus scale="   90.337">  7  8 -1 -1</clus>
<clus scale="   91.652">  5  6 -1 -1</clus>
<clus scale="   92.853">  1  7  2 -1</clus>
<clus scale="   43.971">  1  5  2 -1</clus>
</clustering>
</event>
<event>
 9    1  0.1636528E-005  0.2160619E+03  0.7546771E-02  0.1136924E+00
         21   -1    0    0  501  502  0.00000000000E+00  0.00000000000E+00  0.49470908704E+03  0.49470908704E+03  0.00000000000E+00 0.  1.
          1   -1    0    0  502    0 -0.00000000000E+00 -0.00000000000E+00 -0.88348896364E+03  0.88348896364E+03  0.00000000000E+00 0. -1.
         23    2    1    2    0    0  0.67937570722E+02  0.18507862381E+03 -0.77849227716E+03  0.80822157867E+03  0.91116870709E+02 0.  0.
         23    2    1    2    0    0 -0.23080255612E+02 -0.18855878695E+03  0.35946061421E+02  0.21336055402E+03  0.90241300657E+02 0.  0.
        -11    1    4    4    0    0  0.33815847479E+02 -0.56214715790E+02  0.34959731477E+01  0.65694959017E+02  0.00000000000E+00 0. -1.
         11    1    4    4    0    0 -0.56896103091E+02 -0.13234407116E+03  0.32450088274E+02  0.14766559500E+03  0.00000000000E+00 0.  1.
        -13    1    3    3    0    0  0.84705120437E+02  0.12667852100E+03 -0.62076598460E+03  0.63919700621E+03  0.00000000000E+00 0. -1.
         13    1    3    3    0    0 -0.16767549716E+02  0.58400102808E+02 -0.15772629256E+03  0.16902457246E+03  0.00000000000E+00 0.  1.
          1    1    1    2  501    0 -0.44857315110E+02  0.34801631414E+01  0.35376633914E+03  0.35661591799E+03  0.00000000000E+00 0. -1.
<scales pt_clust_5="13000.00000" pt_clust_6="13000.00000" pt_clust_7="13000.00000" pt_clust_8="13000.00000" pt_clust_9="44.99211"></scales>
<clustering>
<clus scale="   44.992">  1  9  2 -1</clus>
<clus scale="   90.241">  5  6 -1 -1</clus>
<clus scale="   91.117">  7  8 -1 -1</clus>
<clus scale="  215.694">  1  5  2 -1</clus>
<clus scale="   44.992">  1  5  2 -1</clus>
</clustering>
</event>
<event>
 9    1  0.1636528E-005  0.1005179E+03  0.7546771E-02  0.1279583E+00
          2   -1    0    0  502    0 -0.00000000000E+00  0.00000000000E+00  0.37641043696E+03  0.37641043696E+03  0.00000000000E+00 0. -1.
         21   -1    0    0  501  502  0.00000000000E+00 -0.00000000000E+00 -0.69419962715E+02  0.69419962715E+02  0.00000000000E+00 0.  1.
         23    2    1    2    0    0 -0.32616615594E+02 -0.18237061385E+02  0.28330117854E+03  0.29980264021E+03  0.90695266105E+02 0.  0.
         23    2    1    2    0    0  0.62867862703E+02  0.20613571198E+02  0.25095956279E+02  0.11565072135E+03  0.91476744853E+02 0.  0.
        -11    1    4    4    0    0  0.50513700637E+01  0.38997465854E+02  0.36807280895E+02  0.53861810306E+02  0.00000000000E+00 0. -1.
         11    1    4    4    0    0  0.57816492639E+02 -0.18383894656E+02 -0.11711324616E+02  0.61788911045E+02  0.00000000000E+00 0.  1.
        -11    1    3    3    0    0  0.16356002689E+02  0.21728960276E+02  0.14781836705E+03  0.15029948827E+03  0.00000000000E+00 0.  1.
         11    1    3    3    0    0 -0.48972618283E+02 -0.39966021662E+02  0.13548281149E+03  0.14950315193E+03  0.00000000000E+00 0. -1.
          2    1    1    2  501    0 -0.30251247109E+02 -0.23765098130E+01 -0.14066605753E+01  0.30377038113E+02  0.00000000000E+00 0. -1.
<scales pt_clust_5="13000.00000" pt_clust_6="13000.00000" pt_clust_7="13000.00000" pt_clust_8="13000.00000" pt_clust_9="30.34445"></scales>
<clustering>
<clus scale="   30.344">  2  9  1 -1</clus>
<clus scale="   90.695">  7  8 -1 -1</clus>
<clus scale="   91.477">  5  6 -1 -1</clus>
<clus scale="   99.807">  1  7  2 -1</clus>
<clus scale="   30.344">  2  5  1 -1</clus>
</clustering>
</event>
<event>
 9    1  0.1636528E-005  0.1032530E+03  0.7546771E-02  0.1278759E+00
         21   -1    0    0  501  502  0.00000000000E+00  0.00000000000E+00  0.40645212991E+03  0.40645212991E+03  0.00000000000E+00 0. -1.
         -2   -1    0    0    0  501 -0.00000000000E+00 -0.00000000000E+00 -0.71787696705E+02  0.71787696705E+02  0.00000000000E+00 0.  1.
         23    2    1    2    0    0 -0.45226487377E+02 -0.26772664406E+02  0.38721587312E+02  0.11035870300E+03  0.88980173547E+02 0.  0.
         23    2    1    2    0    0 -0.56153532832E+02  0.71958150695E+01  0.20027454310E+03  0.22712038446E+03  0.90932818166E+02 0.  0.
        -11    1    4    4    0    0  0.25248610995E+02 -0.63067719435E+00  0.43571758726E+02  0.50362568137E+02  0.00000000000E+00 0.  1.
         11    1    4    4    0    0 -0.81402143827E+02  0.78264922638E+01  0.15670278438E+03  0.17675781633E+03  0.00000000000E+00 0. -1.
        -13    1    3    3    0    0 -0.24407412334E+02 -0.59317249814E+02  0.18524329089E+02  0.66763827560E+02  0.00000000000E+00 0.  1.
         13    1    3    3    0    0 -0.20819075044E+02  0.32544585408E+02  0.20197258223E+02  0.43594875441E+02  0.00000000000E+00 0. -1.
         -2    1    1    2    0  502  0.10138002021E+03  0.19576849337E+02  0.95668302791E+02  0.14076073915E+03  0.00000000000E+00 0.  1.
<scales pt_clust_5="13000.00000" pt_clust_6="13000.00000" pt_clust_7="13000.00000" pt_clust_8="13000.00000" pt_clust_9="103.25295"></scales>
<clustering>
<clus scale="   88.980">  7  8 -1 -1</clus>
<clus scale="   90.933">  5  6 -1 -1</clus>
<clus scale="  103.253">  1  9  2 -1</clus>
<clus scale="   93.542">  2  7  1 -1</clus>
<clus scale="  103.253">  1  5  2 -1</clus>
</clustering>
</event>
<event>
 9    1  0.1636528E-005  0.1722304E+03  0.7546771E-02  0.1199511E+00
          1   -1    0    0  502    0 -0.00000000000E+00  0.00000000000E+00  0.80630300814E+03  0.80630300814E+03  0.00000000000E+00 0. -1.
         21   -1    0    0  501  502  0.00000000000E+00 -0.00000000000E+00 -0.65391225406E+02  0.65391225406E+02  0.00000000000E+00 0.  1.
         23    2    1    2    0    0 -0.23022032148E+02  0.37253610246E+02  0.30272202915E+03  0.31918414419E+03  0.91214283569E+02 0.  0.
         23    2    1    2    0    0 -0.73510245581E+02 -0.13563233843E+03  0.15145132930E+03  0.23436581586E+03  0.90498304196E+02 0.  0.
        -11    1    4    4    0    0 -0.18571546206E+01 -0.89619394591E+02  0.52751961329E+02  0.10400891469E+03  0.00000000000E+00 0.  1.
         11    1    4    4    0    0 -0.71653090960E+02 -0.46012943836E+02  0.98699367972E+02  0.13035690117E+03  0.00000000000E+00 0. -1.
        -11    1    3    3    0    0  0.28002350779E+02  0.29189326983E+02  0.20175218169E+03  0.20576708015E+03  0.00000000000E+00 0.  1.
         11    1    3    3    0    0 -0.51024382927E+02  0.80642832630E+01  0.10096984747E+03  0.11341706404E+03  0.00000000000E+00 0. -1.
          1    1    1    2  501    0  0.96532277729E+02  0.98378728181E+02  0.28673842428E+03  0.31814427350E+03  0.00000000000E+00 0. -1.
<scales pt_clust_5="13000.00000" pt_clust_6="13000.00000" pt_clust_7="13000.00000" pt_clust_8="13000.00000" pt_clust_9="146.53806"></scales>
<clustering>
<clus scale="   90.498">  5  6 -1 -1</clus>
<clus scale="   91.214">  7  8 -1 -1</clus>
<clus scale="  101.182">  1  7  2 -1</clus>
<clus scale="  146.538">  2  9  1 -1</clus>
<clus scale="  146.538">  2  5  1 -1</clus>
</clustering>
</event>
<event>
 9    1  0.1636528E-005  0.1397466E+03  0.7546771E-02  0.1214119E+00
         21   -1    0    0  501  502  0.00000000000E+00  0.00000000000E+00  0.13333036903E+03  0.13333036903E+03  0.00000000000E+00 0. -1.
         -4   -1    0    0    0  501 -0.00000000000E+00 -0.00000000000E+00 -0.19210438227E+03  0.19210438227E+03  0.00000000000E+00 0.  1.
         23    2    1    2    0    0 -0.91789702895E+02 -0.83041505217E+02 -0.45721574303E+02  0.16017709266E+03  0.90801968639E+02 0.  0.
         23    2    1    2    0    0  0.62065367716E+02  0.57741975443E+02 -0.91396918383E+01  0.12602869105E+03  0.92808681719E+02 0.  0.
        -11    1    4    4    0    0  0.15250472539E+02  0.72723559101E+02 -0.17066071006E+02  0.76240040271E+02  0.00000000000E+00 0. -1.
         11    1    4    4    0    0  0.46814895177E+02 -0.14981583658E+02  0.79263791679E+01  0.49788650776E+02  0.00000000000E+00 0.  1.
        -11    1    3    3    0    0 -0.91867510893E+02 -0.52919691456E+02 -0.71653666614E+00  0.10602191625E+03  0.00000000000E+00 0. -1.
         11    1    3    3    0    0  0.77807998580E-01 -0.30121813761E+02 -0.45005037637E+02  0.54155176401E+02  0.00000000000E+00 0.  1.
         -4    1    1    2    0  502  0.29724335179E+02  0.25299529774E+02 -0.39127470954E+01  0.39228967593E+02  0.00000000000E+00 0.  1.
<scales pt_clust_5="13000.00000" pt_clust_6="13000.00000" pt_clust_7="13000.00000" pt_clust_8="13000.00000" pt_clust_9="39.03335"></scales>
<clustering>
<clus scale="   39.033">  1  9  2 -1</clus>
<clus scale="   90.802">  7  8 -1 -1</clus>
<clus scale="   92.809">  5  6 -1 -1</clus>
<clus scale="  138.422">  2  7  1 -1</clus>
<clus scale="   39.033">  1  5  2 -1</clus>
</clustering>
</event>
<event>
 9    1  0.1636528E-005  0.1111113E+03  0.7546771E-02  0.1262492E+00
         21   -1    0    0  501  502  0.00000000000E+00  0.00000000000E+00  0.17063454473E+03  0.17063454473E+03  0.00000000000E+00 0.  1.
          3   -1    0    0  502    0 -0.00000000000E+00 -0.00000000000E+00 -0.18899382726E+03  0.18899382726E+03  0.00000000000E+00 0. -1.
         23    2    1    2    0    0  0.14048816041E+02  0.54475042292E+02 -0.10133426571E+03  0.14692284821E+03  0.90292804000E+02 0.  0.
         23    2    1    2    0    0 -0.71635054827E+01 -0.85950567068E+02 -0.64081168459E+01  0.11769260502E+03  0.79822738149E+02 0.  0.
        -11    1    4    4    0    0 -0.30323726493E+02 -0.15478796036E+02 -0.23751570163E+02  0.41512150033E+02  0.00000000000E+00 0. -1.
         11    1    4    4    0    0  0.23160221010E+02 -0.70471771033E+02  0.17343453317E+02  0.76180454991E+02  0.00000000000E+00 0.  1.
        -13    1    3    3    0    0 -0.35381040781E+02  0.34795168562E+02 -0.30191804756E+02  0.58086718589E+02  0.00000000000E+00 0.  1.
         13    1    3    3    0    0  0.49429856822E+02  0.19679873731E+02 -0.71142460952E+02  0.88836129620E+02  0.00000000000E+00 0. -1.
          3    1    1    2  501    0 -0.68853105580E+01  0.31475524776E+02  0.89383100024E+02  0.95012918760E+02  0.00000000000E+00 0. -1.
<scales pt_clust_5="13000.00000" pt_clust_6="13000.00000" pt_clust_7="13000.00000" pt_clust_8="13000.00000" pt_clust_9="32.21981"></scales>
<clustering>
<clus scale="   32.220">  1  9  2 -1</clus>
<clus scale="   79.823">  5  6 -1 -1</clus>
<clus scale="   90.293">  7  8 -1 -1</clus>
<clus scale="  102.784">  1  5  2 -1</clus>
<clus scale="   32.220">  1  5  2 -1</clus>
</clustering>
</event>
<event>
 9    1  0.1636528E-005  0.1081589E+03  0.7546771E-02  0.1264142E+00
         21   -1    0    0  501  502  0.00000000000E+00  0.00000000000E+00  0.26432948186E+02  0.26432948186E+02  0.00000000000E+00 0.  1.
          1   -1    0    0  502    0 -0.00000000000E+00 -0.00000000000E+00 -0.99211021993E+03  0.99211021993E+03  0.00000000000E+00 0. -1.
         23    2    1    2    0    0  0.74522708321E+01  0.67915896290E+02 -0.44773102368E+03  0.46193985738E+03  0.90869450085E+02 0.  0.
         23    2    1    2    0    0  0.32295782324E+02 -0.33634993561E+02 -0.13182729115E+03  0.16693301817E+03  0.91180411910E+02 0.  0.
        -11    1    3    3    0    0  0.20251650617E+02 -0.16538895209E+02 -0.14725011679E+03  0.14955353992E+03  0.00000000000E+00 0. -1.
         11    1    3    3    0    0 -0.12799379785E+02  0.84454791498E+02 -0.30048090689E+03  0.31238631745E+03  0.00000000000E+00 0.  1.
        -13    1    4    4    0    0  0.39468477052E+02 -0.12970837583E+02 -0.94370801155E+01  0.42603541983E+02  0.00000000000E+00 0.  1.
         13    1    4    4    0    0 -0.71726947280E+01 -0.20664155978E+02 -0.12239021104E+03  0.12432947619E+03  0.00000000000E+00 0. -1.
          1    1    1    2  501    0 -0.39748053156E+02 -0.34280902729E+02 -0.38611895691E+03  0.38967029257E+03  0.00000000000E+00 0. -1.
<scales pt_clust_5="13000.00000" pt_clust_6="13000.00000" pt_clust_7="13000.00000" pt_clust_8="13000.00000" pt_clust_9="52.48896"></scales>
<clustering>
<clus scale="   52.489">  1  9  2 -1</clus>
<clus scale="   90.869">  5  6 -1 -1</clus>
<clus scale="   91.180">  7  8 -1 -1</clus>
<clus scale="  107.897">  2  5  1 -1</clus>
<clus scale="   52.489">  1  5  2 -1</clus>
</clustering>
</event>
<event>
 9    1  0.1636528E-005  0.1285412E+03  0.7546771E-02  0.1229836E+00
          1   -1    0    0  502    0 -0.00000000000E+00  0.00000000000E+00  0.63983136937E+03  0.63983136937E+03  0.00000000000E+00 0. -1.
         21   -1    0    0  501  502  0.00000000000E+00 -0.00000000000E+00 -0.73618401686E+02  0.73618401686E+02  0.00000000000E+00 0. -1.
         23    2    1    2    0    0  0.34114193735E+02  0.74105430133E+02  0.40585578615E+03  0.42382729146E+03  0.90858466002E+02 0.  0.
         23    2    1    2    0    0 -0.62366175837E+02 -0.13164969322E+03  0.86728145898E+02  0.19199691125E+03  0.90110271465E+02 0.  0.
        -11    1    3    3    0    0  0.57782548995E+02  0.63100590091E+02  0.36819610693E+03  0.37800645576E+03  0.00000000000E+00 0.  1.
         11    1    3    3    0    0 -0.23668355261E+02  0.11004840042E+02  0.37659679219E+02  0.45820835697E+02  0.00000000000E+00 0. -1.
        -11    1    4    4    0    0 -0.75867670108E+02 -0.11571905593E+03  0.45291568032E+02  0.14559577401E+03  0.00000000000E+00 0. -1.
         11    1    4    4    0    0  0.13501494271E+02 -0.15930637290E+02  0.41436577866E+02  0.46401137241E+02  0.00000000000E+00 0.  1.
          1    1    1    2  501    0  0.28251982102E+02  0.57544263089E+02  0.73629035639E+02  0.97625568353E+02  0.00000000000E+00 0. -1.
<scales pt_clust_5="13000.00000" pt_clust_6="13000.00000" pt_clust_7="13000.00000" pt_clust_8="13000.00000" pt_clust_9="64.10551"></scales>
<clustering>
<clus scale="   64.106">  2  9  1 -1</clus>
<clus scale="   90.110">  7  8 -1 -1</clus>
<clus scale="   90.858">  5  6 -1 -1</clus>
<clus scale="  128.013">  2  7  1 -1</clus>
<clus scale="   64.106">  2  5  1 -1</clus>
</clustering>
</event>
<event>
 9    1  0.1636528E-005  0.1796447E+03  0.7546771E-02  0.1197988E+00
         21   -1    0    0  501  502  0.00000000000E+00  0.00000000000E+00  0.16599404081E+03  0.16599404081E+03  0.00000000000E+00 0. -1.
          1   -1    0    0  502    0 -0.00000000000E+00 -0.00000000000E+00 -0.51995533783E+03  0.51995533783E+03  0.00000000000E+00 0. -1.
         23    2    1    2    0    0  0.24899445693E+01 -0.13063029569E+02 -0.24729563154E+03  0.26391398665E+03  0.91206471278E+02 0.  0.
         23    2    1    2    0    0 -0.15403040995E+03  0.12801089156E+02  0.66235265178E+02  0.19212385883E+03  0.92925947432E+02 0.  0.
        -11    1    3    3    0    0 -0.37584004063E+02  0.13599049301E+02 -0.15180182711E+03  0.15697543189E+03  0.00000000000E+00 0. -1.
         11    1    3    3    0    0  0.40073948632E+02 -0.26662078870E+02 -0.95493804433E+02  0.10693855476E+03  0.00000000000E+00 0.  1.
        -13    1    4    4    0    0 -0.97735205561E+02 -0.22701796777E+02  0.74619669703E+02  0.12504254112E+03  0.00000000000E+00 0. -1.
         13    1    4    4    0    0 -0.56295204386E+02  0.35502885933E+02 -0.83844045249E+01  0.67081317710E+02  0.00000000000E+00 0.  1.
          1    1    1    2  501    0  0.15154046538E+03  0.26194041337E+00 -0.17290093065E+03  0.22991153316E+03  0.00000000000E+00 0. -1.
<scales pt_clust_5="13000.00000" pt_clust_6="13000.00000" pt_clust_7="13000.00000" pt_clust_8="13000.00000" pt_clust_9="153.74332"></scales>
<clustering>
<clus scale="   91.206">  5  6 -1 -1</clus>
<clus scale="   92.171">  2  5  1 -1</clus>
<clus scale="   92.926">  7  8 -1 -1</clus>
<clus scale="  153.743">  1  9  2 -1</clus>
<clus scale="  153.743">  1  5  2 -1</clus>
</clustering>
</event>
<event>
 9    1  0.1636528E-005  0.1286101E+03  0.7546771E-02  0.1229942E+00
          1   -1    0    0  502    0 -0.00000000000E+00  0.00000000000E+00  0.33109409445E+03  0.33109409445E+03  0.00000000000E+00 0. -1.
         21   -1    0    0  501  502  0.00000000000E+00 -0.00000000000E+00 -0.13976471362E+03  0.13976471362E+03  0.00000000000E+00 0.  1.
         23    2    1    2    0    0 -0.55893185411E+02  0.73800475286E+02  0.23370602960E+03  0.26650409499E+03  0.88517603038E+02 0.  0.
         23    2    1    2    0    0  0.13210273829E+02 -0.10950069009E+03 -0.48024719346E+02  0.14842406871E+03  0.86939162857E+02 0.  0.
        -13    1    4    4    0    0 -0.30407334637E+02 -0.56618321201E+02 -0.47426592880E+02  0.79871910003E+02  0.00000000000E+00 0.  1.
         13    1    4    4    0    0  0.43617608466E+02 -0.52882368894E+02 -0.59812646597E+00  0.68552158707E+02  0.00000000000E+00 0. -1.
        -13    1    3    3    0    0 -0.86568308374E+01  0.78143369376E+02  0.12194243642E+03  0.14509060858E+03  0.00000000000E+00 0. -1.
         13    1    3    3    0    0 -0.47236354573E+02 -0.43428940893E+01  0.11176359318E+03  0.12141348641E+03  0.00000000000E+00 0.  1.
          1    1    1    2  501    0  0.42682911582E+02  0.35700214808E+02  0.56480705865E+01  0.55930644371E+02  0.00000000000E+00 0. -1.
<scales pt_clust_5="13000.00000" pt_clust_6="13000.00000" pt_clust_7="13000.00000" pt_clust_8="13000.00000" pt_clust_9="55.64473"></scales>
<clustering>
<clus scale="   55.645">  2  9  1 -1</clus>
<clus scale="   86.939">  5  6 -1 -1</clus>
<clus scale="   88.518">  7  8 -1 -1</clus>
<clus scale="  127.529">  2  5  1 -1</clus>
<clus scale="   55.645">  2  5  1 -1</clus>
</clustering>
</event>
<event>
 9    1  0.1636528E-005  0.9146435E+02  0.7546771E-02  0.1300778E+00
         21   -1    0    0  501  502  0.00000000000E+00  0.00000000000E+00  0.25674685347E+03  0.25674685347E+03  0.00000000000E+00 0.  1.
          2   -1    0    0  502    0 -0.00000000000E+00 -0.00000000000E+00 -0.10719598540E+03  0.10719598540E+03  0.00000000000E+00 0. -1.
         23    2    1    2    0    0 -0.30066013661E+01  0.14955919132E+02 -0.24494140234E+02  0.94562622607E+02  0.90052248831E+02 0.  0.
         23    2    1    2    0    0 -0.37206653789E+02  0.46884828238E+00  0.54344930644E+01  0.95355691587E+02  0.87627731332E+02 0.  0.
        -11    1    4    4    0    0 -0.61609836096E+02 -0.70234931840E+01  0.20986463456E+02  0.65463982530E+02  0.00000000000E+00 0.  1.
         11    1    4    4    0    0  0.24403182307E+02  0.74923414663E+01 -0.15551970391E+02  0.29891709058E+02  0.00000000000E+00 0. -1.
        -13    1    3    3    0    0 -0.31747294952E+02 -0.20357580109E+02  0.80922042569E+01  0.38572082837E+02  0.00000000000E+00 0.  1.
         13    1    3    3    0    0  0.28740693586E+02  0.35313499241E+02 -0.32586344491E+02  0.55990539770E+02  0.00000000000E+00 0. -1.
          2    1    1    2  501    0  0.40213255155E+02 -0.15424767415E+02  0.16861051523E+03  0.17402452467E+03  0.00000000000E+00 0. -1.
<scales pt_clust_5="13000.00000" pt_clust_6="13000.00000" pt_clust_7="13000.00000" pt_clust_8="13000.00000" pt_clust_9="43.07005"></scales>
<clustering>
<clus scale="   43.070">  1  9  2 -1</clus>
<clus scale="   87.628">  5  6 -1 -1</clus>
<clus scale="   89.078">  1  5  2 -1</clus>
<clus scale="   90.052">  7  8 -1 -1</clus>
<clus scale="   43.070">  1  5  2 -1</clus>
</clustering>
</event>
<event>
 9    1  0.1636528E-005  0.1378836E+03  0.7546771E-02  0.1216226E+00
         21   -1    0    0  501  502  0.00000000000E+00  0.00000000000E+00  0.33288066254E+03  0.33288066254E+03  0.00000000000E+00 0.  1.
          4   -1    0    0  502    0 -0.00000000000E+00 -0.00000000000E+00 -0.20494288042E+03  0.20494288042E+03  0.00000000000E+00 0. -1.
         23    2    1    2    0    0 -0.54537072006E+02  0.10316584265E+03 -0.13412245274E+03  0.19989139959E+03  0.91379735112E+02 0.  0.
         23    2    1    2    0    0 -0.68548557200E+01 -0.70024120169E+02  0.73048364570E+02  0.13645552023E+03  0.91288986100E+02 0.  0.
        -11    1    4    4    0    0 -0.16843480084E+02 -0.42756839395E+02  0.91260440873E+02  0.10217787532E+03  0.00000000000E+00 0.  1.
         11    1    4    4    0    0  0.99886243642E+01 -0.27267280774E+02 -0.18212076303E+02  0.34277644913E+02  0.00000000000E+00 0. -1.
        -11    1    3    3    0    0 -0.20835985809E+02  0.99096511700E+01  0.98405908220E+01  0.25083395278E+02  0.00000000000E+00 0. -1.
         11    1    3    3    0    0 -0.33701086196E+02  0.93256191479E+02 -0.14396304357E+03  0.17480800432E+03  0.00000000000E+00 0.  1.
          4    1    1    2  501    0  0.61391927726E+02 -0.33141722480E+02  0.18901187030E+03  0.20147662314E+03  0.00000000000E+00 0. -1.
<scales pt_clust_5="13000.00000" pt_clust_6="13000.00000" pt_clust_7="13000.00000" pt_clust_8="13000.00000" pt_clust_9="69.76634"></scales>
<clustering>
<clus scale="   69.766">  1  9  2 -1</clus>
<clus scale="   91.289">  5  6 -1 -1</clus>
<clus scale="   91.380">  7  8 -1 -1</clus>
<clus scale="  137.824">  1  5  2 -1</clus>
<clus scale="   69.766">  1  5  2 -1</clus>
</clustering>
</event>
<event>
 9    1  0.1636528E-005  0.1306158E+03  0.7546771E-02  0.1226901E+00
         21   -1    0    0  501  502  0.00000000000E+00  0.00000000000E+00  0.71188870918E+02  0.71188870918E+02  0.00000000000E+00 0.  1.
         -1   -1    0    0    0  501 -0.00000000000E+00 -0.00000000000E+00 -0.70117778668E+03  0.70117778668E+03  0.00000000000E+00 0.  1.
         23    2    1    2    0    0  0.18607918479E+02 -0.10071871414E+03 -0.41664543571E+03  0.43844006099E+03  0.90253830797E+02 0.  0.
         23    2    1    2    0    0  0.88550142070E+02  0.67016375150E+02 -0.10864138992E+03  0.18036480034E+03  0.91630712107E+02 0.  0.
        -11    1    3    3    0    0 -0.21129982118E+02 -0.43052285129E+02 -0.70398479064E+02  0.85181695531E+02  0.00000000000E+00 0. -1.
         11    1    3    3    0    0  0.39737900597E+02 -0.57666429012E+02 -0.34624695664E+03  0.35325836546E+03  0.00000000000E+00 0.  1.
        -11    1    4    4    0    0  0.49334264983E+02  0.85622144882E+02 -0.87912060944E+02  0.13226319161E+03  0.00000000000E+00 0.  1.
         11    1    4    4    0    0  0.39215877087E+02 -0.18605769733E+02 -0.20729328973E+02  0.48101608733E+02  0.00000000000E+00 0. -1.
         -1    1    1    2    0  502 -0.10715806055E+03  0.33702338991E+02 -0.10470209014E+03  0.15356179627E+03  0.00000000000E+00 0.  1.
<scales pt_clust_5="13000.00000" pt_clust_6="13000.00000" pt_clust_7="13000.00000" pt_clust_8="13000.00000" pt_clust_9="112.33298"></scales>
<clustering>
<clus scale="   90.254">  5  6 -1 -1</clus>
<clus scale="   91.631">  7  8 -1 -1</clus>
<clus scale="  112.333">  1  9  2 -1</clus>
<clus scale="  129.654">  2  5  1 -1</clus>
<clus scale="  112.333">  1  5  2 -1</clus>
</clustering>
</event>
<event>
 9    1  0.1636528E-005  0.1649699E+03  0.7546771E-02  0.1183278E+00
         21   -1    0    0  501  502  0.00000000000E+00  0.00000000000E+00  0.15322582315E+03  0.15322582315E+03  0.00000000000E+00 0.  1.
          1   -1    0    0  502    0 -0.00000000000E+00 -0.00000000000E+00 -0.59183205498E+03  0.59183205498E+03  0.00000000000E+00 0. -1.
         23    2    1    2    0    0 -0.11458258474E+03  0.72712623497E+02 -0.49423504898E+03  0.52046324314E+03  0.90539546486E+02 0.  0.
         23    2    1    2    0    0  0.11955984696E+03 -0.10090111330E+03  0.24227951290E+02  0.18210488949E+03  0.89997808205E+02 0.  0.
        -13    1    3    3    0    0 -0.62995542438E+02  0.25070333458E+02 -0.10530041594E+03  0.12524031932E+03  0.00000000000E+00 0.  1.
         13    1    3    3    0    0 -0.51587042305E+02  0.47642290040E+02 -0.38893463304E+03  0.39522292382E+03  0.00000000000E+00 0. -1.
        -13    1    4    4    0    0  0.12395436317E+03 -0.80358124273E+02  0.43082095404E+02  0.15387715630E+03  0.00000000000E+00 0.  1.
         13    1    4    4    0    0 -0.43945162101E+01 -0.20542989027E+02 -0.18854144114E+02  0.28227733192E+02  0.00000000000E+00 0. -1.
          1    1    1    2  501    0 -0.49772622161E+01  0.28188489803E+02  0.31400865855E+02  0.42489745504E+02  0.00000000000E+00 0. -1.
<scales pt_clust_5="13000.00000" pt_clust_6="13000.00000" pt_clust_7="13000.00000" pt_clust_8="13000.00000" pt_clust_9="28.62454"></scales>
<clustering>
<clus scale="   28.625">  1  9  2 -1</clus>
<clus scale="   89.998">  7  8 -1 -1</clus>
<clus scale="   90.540">  5  6 -1 -1</clus>
<clus scale="  164.673">  1  7  2 -1</clus>
<clus scale="   28.625">  1  5  2 -1</clus>
</clustering>
</event>
<event>
 9    1  0.1636528E-005  0.1033477E+03  0.7546771E-02  0.1274154E+00
         21   -1    0    0  501  502  0.00000000000E+00  0.00000000000E+00  0.46490615533E+02  0.46490615533E+02  0.00000000000E+00 0. -1.
          2   -1    0    0  502    0 -0.00000000000E+00 -0.00000000000E+00 -0.63154608514E+03  0.63154608514E+03  0.00000000000E+00 0. -1.
         23    2    1    2    0    0 -0.10748414760E+02  0.32932483746E+02 -0.38561580433E+03  0.39838147913E+03  0.93851891079E+02 0.  0.
         23    2    1    2    0    0 -0.44010105619E+01 -0.51669561497E+02 -0.22168219488E+03  0.24686325158E+03  0.95442951408E+02 0.  0.
        -11    1    4    4    0    0  0.17928612641E+02 -0.50597883805E+02 -0.21761866082E+03  0.22414161267E+03  0.00000000000E+00 0. -1.
         11    1    4    4    0    0 -0.22329623203E+02 -0.10716776921E+01 -0.40635340670E+01  0.22721638906E+02  0.00000000000E+00 0.  1.
        -13    1    3    3    0    0  0.37045824820E+02  0.46090074151E+01 -0.87464096477E+02  0.95097866740E+02  0.00000000000E+00 0. -1.
         13    1    3    3    0    0 -0.47794239580E+02  0.28323476331E+02 -0.29815170785E+03  0.30328361239E+03  0.00000000000E+00 0.  1.
          2    1    1    2  501    0  0.15149425322E+02  0.18737077751E+02  0.22242529611E+02  0.32791969958E+02  0.00000000000E+00 0. -1.
<scales pt_clust_5="13000.00000" pt_clust_6="13000.00000" pt_clust_7="13000.00000" pt_clust_8="13000.00000" pt_clust_9="24.09529"></scales>
<clustering>
<clus scale="   24.095">  1  9  2 -1</clus>
<clus scale="   93.852">  7  8 -1 -1</clus>
<clus scale="   95.443">  5  6 -1 -1</clus>
<clus scale="  101.880">  2  7  1 -1</clus>
<clus scale="   24.095">  1  5  2 -1</clus>
</clustering>
</event>
<event>
 9    1  0.1636528E-005  0.1868975E+03  0.7546771E-02  0.1161351E+00
          3   -1    0    0  502    0 -0.00000000000E+00  0.00000000000E+00  0.50843006994E+03  0.50843006994E+03  0.00000000000E+00 0. -1.
         21   -1    0    0  501  502  0.00000000000E+00 -0.00000000000E+00 -0.31248985434E+03  0.31248985434E+03  0.00000000000E+00 0. -1.
         23    2    1    2    0    0 -0.18119556114E+03  0.86534855784E+02  0.34488281943E+03  0.40936912980E+03  0.91207525198E+02 0.  0.
         23    2    1    2    0    0  0.84393015366E+02 -0.78313943158E+02  0.77045974909E+02  0.16556470951E+03  0.90666068900E+02 0.  0.
        -13    1    4    4    0    0  0.96019953464E+02 -0.54797541622E+02  0.83503894113E+02  0.13854783421E+03  0.00000000000E+00 0. -1.
         13    1    4    4    0    0 -0.11626938098E+02 -0.23516401536E+02 -0.64579192032E+01  0.27016875304E+02  0.00000000000E+00 0.  1.
        -13    1    3    3    0    0 -0.12560038869E+03  0.21775032292E+02  0.25691277417E+03  0.28679920363E+03  0.00000000000E+00 0. -1.
         13    1    3    3    0    0 -0.55595172455E+02  0.64759823492E+02  0.87970045259E+02  0.12256992617E+03  0.00000000000E+00 0.  1.
          3    1    1    2  501    0  0.96802545778E+02 -0.82209126259E+01 -0.22598857874E+03  0.24598608496E+03  0.00000000000E+00 0. -1.
<scales pt_clust_5="13000.00000" pt_clust_6="13000.00000" pt_clust_7="13000.00000" pt_clust_8="13000.00000" pt_clust_9="97.15100"></scales>
<clustering>
<clus scale="   90.666">  5  6 -1 -1</clus>
<clus scale="   91.208">  7  8 -1 -1</clus>
<clus scale="   97.151">  2  9  1 -1</clus>
<clus scale="  186.634">  2  5  1 -1</clus>
<clus scale="   97.151">  2  5  1 -1</clus>
</clustering>
</event>
<event>
 9    1  0.1636528E-005  0.1063936E+03  0.7546771E-02  0.1271026E+00
         21   -1    0    0  501  502  0.00000000000E+00  0.00000000000E+00  0.19072925060E+03  0.19072925060E+03  0.00000000000E+00 0.  1.
          1   -1    0    0  502    0 -0.00000000000E+00 -0.00000000000E+00 -0.14059402532E+03  0.14059402532E+03  0.00000000000E+00 0. -1.
         23    2    1    2    0    0  0.20673330737E+01 -0.29600316690E+02 -0.78447026522E+02  0.12578879565E+03  0.93746640082E+02 0.  0.
         23    2    1    2    0    0  0.38492723612E+02  0.44044550363E+02  0.88593861773E+02  0.14677373298E+03  0.10135109354E+03 0.  0.
        -11    1    3    3    0    0  0.36359731428E+02  0.16279862570E+02 -0.22660174331E+02  0.45831730226E+02  0.00000000000E+00 0.  1.
         11    1    3    3    0    0 -0.34292398354E+02 -0.45880179260E+02 -0.55786852191E+02  0.79957065424E+02  0.00000000000E+00 0. -1.
        -11    1    4    4    0    0  0.70165513696E+01  0.54521038160E+02  0.30871473447E+01  0.55057298099E+02  0.00000000000E+00 0. -1.
         11    1    4    4    0    0  0.31476172242E+02 -0.10476487797E+02  0.85506714428E+02  0.91716434884E+02  0.00000000000E+00 0.  1.
          1    1    1    2  501    0 -0.40560056686E+02 -0.14444233673E+02  0.39988390032E+02  0.58760747290E+02  0.00000000000E+00 0. -1.
<scales pt_clust_5="13000.00000" pt_clust_6="13000.00000" pt_clust_7="13000.00000" pt_clust_8="13000.00000" pt_clust_9="43.05524"></scales>
<clustering>
<clus scale="   43.055">  1  9  2 -1</clus>
<clus scale="   93.747">  5  6 -1 -1</clus>
<clus scale="   99.177">  2  5  1 -1</clus>
<clus scale="  101.351">  7  8 -1 -1</clus>
<clus scale="   43.055">  1  5  2 -1</clus>
</clustering>
</event>
<event>
 9    1  0.1636528E-005  0.2384788E+03  0.7546771E-02  0.1121024E+00
         21   -1    0    0  501  502  0.00000000000E+00  0.00000000000E+00  0.24297626436E+03  0.24297626436E+03  0.00000000000E+00 0. -1.
          1   -1    0    0  502    0 -0.00000000000E+00 -0.00000000000E+00 -0.58306088618E+03  0.58306088618E+03  0.00000000000E+00 0. -1.
         23    2    1    2    0    0  0.77324031298E+02  0.23370427487E+03 -0.44313732631E+03  0.51402759788E+03  0.85187953961E+02 0.  0.
         23    2    1    2    0    0 -0.41317133687E+02 -0.11133262829E+03  0.10953758248E+03  0.18428574828E+03  0.88660562735E+02 0.  0.
        -13    1    4    4    0    0 -0.16606956455E+02 -0.68006164202E+02  0.11445510588E+03  0.13416631706E+03  0.00000000000E+00 0. -1.
         13    1    4    4    0    0 -0.24710177232E+02 -0.43326464086E+02 -0.49175233965E+01  0.50119431215E+02  0.00000000000E+00 0.  1.
        -13    1    3    3    0    0  0.27257312989E+02  0.17433495168E+03 -0.35582394256E+03  0.39717290263E+03  0.00000000000E+00 0. -1.
         13    1    3    3    0    0  0.50066718309E+02  0.59369323188E+02 -0.87313383759E+02  0.11685469525E+03  0.00000000000E+00 0.  1.
          1    1    1    2  501    0 -0.36006897611E+02 -0.12237164658E+03 -0.64848779968E+01  0.12772380438E+03  0.00000000000E+00 0. -1.
<scales pt_clust_5="13000.00000" pt_clust_6="13000.00000" pt_clust_7="13000.00000" pt_clust_8="13000.00000" pt_clust_9="127.55907"></scales>
<clustering>
<clus scale="   85.188">  7  8 -1 -1</clus>
<clus scale="   88.661">  5  6 -1 -1</clus>
<clus scale="  127.559">  1  9  2 -1</clus>
<clus scale="  237.210">  2  7  1 -1</clus>
<clus scale="  127.559">  1  5  2 -1</clus>
</clustering>
</event>
<event>
 9    1  0.1636528E-005  0.1984986E+03  0.7546771E-02  0.1151118E+00
          2   -1    0    0  502    0 -0.00000000000E+00  0.00000000000E+00  0.63311811995E+03  0.63311811995E+03  0.00000000000E+00 0. -1.
         21   -1    0    0  501  502  0.00000000000E+00 -0.00000000000E+00 -0.14305116147E+03  0.14305116147E+03  0.00000000000E+00 0. -1.
         23    2    1    2    0    0  0.19210524579E+03  0.10997877570E+03  0.40835980483E+03  0.47342404828E+03  0.91503238878E+02 0.  0.
         23    2    1    2    0    0 -0.11402993548E+03 -0.46812961639E+02  0.11990632097E+03  0.19529826702E+03  0.92572175782E+02 0.  0.
        -11    1    3    3    0    0  0.14971943957E+03  0.80969697401E+02  0.21983458566E+03  0.27802742227E+03  0.00000000000E+00 0.  1.
         11    1    3    3    0    0  0.42385806220E+02  0.29009078295E+02  0.18852521917E+03  0.19539662601E+03  0.00000000000E+00 0. -1.
        -11    1    4    4    0    0 -0.27250008491E+02 -0.59717462609E+02  0.41693216456E+02  0.77762861327E+02  0.00000000000E+00 0. -1.
         11    1    4    4    0    0 -0.86779926991E+02  0.12904500970E+02  0.78213104514E+02  0.11753540569E+03  0.00000000000E+00 0.  1.
          2    1    1    2  501    0 -0.78075310307E+02 -0.63165814057E+02 -0.38199167321E+02  0.10744696612E+03  0.00000000000E+00 0. -1.
<scales pt_clust_5="13000.00000" pt_clust_6="13000.00000" pt_clust_7="13000.00000" pt_clust_8="13000.00000" pt_clust_9="100.42746"></scales>
<clustering>
<clus scale="   91.503">  5  6 -1 -1</clus>
<clus scale="   92.572">  7  8 -1 -1</clus>
<clus scale="  100.427">  2  9  1 -1</clus>
<clus scale="  198.002">  1  5  2 -1</clus>
<clus scale="  100.427">  2  5  1 -1</clus>
</clustering>
</event>
<event>
 9    1  0.1636528E-005  0.9618167E+02  0.7546771E-02  0.1289549E+00
         21   -1    0    0  501  502  0.00000000000E+00  0.00000000000E+00  0.72606940169E+02  0.72606940169E+02  0.00000000000E+00 0. -1.
         -3   -1    0    0    0  501 -0.00000000000E+00 -0.00000000000E+00 -0.21713935922E+03  0.21713935922E+03  0.00000000000E+00 0.  1.
         23    2    1    2    0    0 -0.44748202703E+01 -0.42223654439E+02 -0.91721421812E+02  0.13515414695E+03  0.89727159815E+02 0.  0.
         23    2    1    2    0    0 -0.24724606233E+02  0.23533700343E+02 -0.68575943569E+02  0.11650732049E+03  0.87784705304E+02 0.  0.
        -11    1    4    4    0    0  0.54821064454E+00  0.31645319108E+02 -0.81174445270E+02  0.87126444443E+02  0.00000000000E+00 0.  1.
         11    1    4    4    0    0 -0.25272816877E+02 -0.81116187652E+01  0.12598501701E+02  0.29380876043E+02  0.00000000000E+00 0. -1.
        -13    1    3    3    0    0  0.19738903508E+02  0.20559652496E+02 -0.12254218843E+02  0.31024014922E+02  0.00000000000E+00 0.  1.
         13    1    3    3    0    0 -0.24213723778E+02 -0.62783306935E+02 -0.79467202969E+02  0.10413013203E+03  0.00000000000E+00 0. -1.
         -3    1    1    2    0  502  0.29199426503E+02  0.18689954096E+02  0.15764946327E+02  0.38084831954E+02  0.00000000000E+00 0.  1.
<scales pt_clust_5="13000.00000" pt_clust_6="13000.00000" pt_clust_7="13000.00000" pt_clust_8="13000.00000" pt_clust_9="34.66873"></scales>
<clustering>
<clus scale="   34.669">  1  9  2 -1</clus>
<clus scale="   87.785">  5  6 -1 -1</clus>
<clus scale="   89.727">  7  8 -1 -1</clus>
<clus scale="   94.372">  1  5  2 -1</clus>
<clus scale="   34.669">  1  5  2 -1</clus>
</clustering>
</event>
<event>
 9    1  0.1636528E-005  0.1149789E+03  0.7546771E-02  0.1255814E+00
         21   -1    0    0  501  502  0.00000000000E+00  0.00000000000E+00  0.25111296427E+02  0.25111296427E+02  0.00000000000E+00 0.  1.
          1   -1    0    0  502    0 -0.00000000000E+00 -0.00000000000E+00 -0.59487217455E+03  0.59487217455E+03  0.00000000000E+00 0. -1.
         23    2    1    2    0    0  0.47700582953E+02  0.78967271768E+01 -0.27451894709E+03  0.29681889212E+03  0.10199558075E+03 0.  0.
         23    2    1    2    0    0 -0.58426297242E+02  0.11163996097E+02 -0.25469076023E+03  0.27709127235E+03  0.91509140799E+02 0.  0.
        -11    1    4    4    0    0 -0.48951974664E+02  0.44914477376E+02 -0.11257806677E+03  0.13071888624E+03  0.00000000000E+00 0.  1.
         11    1    4    4    0    0 -0.94743225777E+01 -0.33750481280E+02 -0.14211269346E+03  0.14637238611E+03  0.00000000000E+00 0. -1.
        -13    1    3    3    0    0 -0.31031280007E+02 -0.77828586708E+01 -0.64989641067E+02  0.72437329285E+02  0.00000000000E+00 0.  1.
         13    1    3    3    0    0  0.78731862960E+02  0.15679585848E+02 -0.20952930602E+03  0.22438156283E+03  0.00000000000E+00 0. -1.
          1    1    1    2  501    0  0.10725714288E+02 -0.19060723274E+02 -0.40551170806E+02  0.46073306506E+02  0.00000000000E+00 0. -1.
<scales pt_clust_5="13000.00000" pt_clust_6="13000.00000" pt_clust_7="13000.00000" pt_clust_8="13000.00000" pt_clust_9="21.87126"></scales>
<clustering>
<clus scale="   21.871">  1  9  2 -1</clus>
<clus scale="   91.509">  5  6 -1 -1</clus>
<clus scale="  101.996">  7  8 -1 -1</clus>
<clus scale="  105.787">  1  5  2 -1</clus>
<clus scale="   21.871">  1  5  2 -1</clus>
</clustering>
</event>
<event>
 9    1  0.1636528E-005  0.1059080E+03  0.7546771E-02  0.1268395E+00
          2   -1    0    0  502    0 -0.00000000000E+00  0.00000000000E+00  0.41407962652E+03  0.41407962652E+03  0.00000000000E+00 0. -1.
         21   -1    0    0  501  502  0.00000000000E+00 -0.00000000000E+00 -0.62238435412E+02  0.62238435412E+02  0.00000000000E+00 0. -1.
         23    2    1    2    0    0 -0.18834058029E+02 -0.54892660682E+02  0.27152595620E+03  0.29241349539E+03  0.91713583812E+02 0.  0.
         23    2    1    2    0    0  0.47396906157E+02  0.23084963996E+02  0.91425211257E+02  0.13973446992E+03  0.91584772497E+02 0.  0.
        -11    1    4    4    0    0  0.60613778446E+02  0.43212832465E+02  0.88239639738E+02  0.11544528162E+03  0.00000000000E+00 0.  1.
         11    1    4    4    0    0 -0.13216872289E+02 -0.20127868469E+02  0.31855715191E+01  0.24289188296E+02  0.00000000000E+00 0. -1.
        -13    1    3    3    0    0  0.36379999454E+02 -0.23083018850E+02  0.84863976989E+02  0.95174706251E+02  0.00000000000E+00 0.  1.
         13    1    3    3    0    0 -0.55214057483E+02 -0.31809641833E+02  0.18666197921E+03  0.19723878914E+03  0.00000000000E+00 0. -1.
          2    1    1    2  501    0 -0.28562848128E+02  0.31807696686E+02 -0.11109976349E+02  0.44170096628E+02  0.00000000000E+00 0. -1.
<scales pt_clust_5="13000.00000" pt_clust_6="13000.00000" pt_clust_7="13000.00000" pt_clust_8="13000.00000" pt_clust_9="42.75004"></scales>
<clustering>
<clus scale="   42.750">  2  9  1 -1</clus>
<clus scale="   91.585">  5  6 -1 -1</clus>
<clus scale="   91.714">  7  8 -1 -1</clus>
<clus scale="  105.797">  2  5  1 -1</clus>
<clus scale="   42.750">  2  5  1 -1</clus>
</clustering>
</event>
<event>
 9    1  0.1636528E-005  0.4399206E+03  0.7546771E-02  0.1070294E+00
         21   -1    0    0  501  502  0.00000000000E+00  0.00000000000E+00  0.72363821769E+03  0.72363821769E+03  0.00000000000E+00 0.  1.
         -1   -1    0    0    0  501 -0.00000000000E+00 -0.00000000000E+00 -0.44025873866E+03  0.44025873866E+03  0.00000000000E+00 0.  1.
         23    2    1    2    0    0 -0.55264836337E+02  0.52800666054E+02  0.84372008185E+01  0.14279919863E+03  0.12032585882E+03 0.  0.
         23    2    1    2    0    0 -0.39269036894E+03 -0.75363185211E+02 -0.12040773342E+03  0.42320599085E+03  0.68701913259E+02 0.  0.
        -11    1    4    4    0    0 -0.32266728520E+03 -0.81033455146E+02 -0.80032779597E+02  0.34217808755E+03  0.00000000000E+00 0.  1.
         11    1    4    4    0    0 -0.70023083738E+02  0.56702699348E+01 -0.40374953819E+02  0.81027903300E+02  0.00000000000E+00 0. -1.
        -11    1    3    3    0    0  0.53374150554E+01 -0.28542460946E+02 -0.22517260869E+02  0.36744892344E+02  0.00000000000E+00 0. -1.
         11    1    3    3    0    0 -0.60602251392E+02  0.81343127000E+02  0.30954461688E+02  0.10605430629E+03  0.00000000000E+00 0.  1.
         -1    1    1    2    0  502  0.44795520527E+03  0.22562519157E+02  0.39535001163E+03  0.59789176687E+03  0.00000000000E+00 0.  1.
<scales pt_clust_5="13000.00000" pt_clust_6="13000.00000" pt_clust_7="13000.00000" pt_clust_8="13000.00000" pt_clust_9="434.52293"></scales>
<clustering>
<clus scale="   68.702">  5  6 -1 -1</clus>
<clus scale="  120.326">  7  8 -1 -1</clus>
<clus scale="  142.550">  2  7  1 -1</clus>
<clus scale="  434.523">  1  9  2 -1</clus>
<clus scale="  434.523">  1  5  2 -1</clus>
</clustering>
</event>
<event>
 9    1  0.1636528E-005  0.9134650E+02  0.7546771E-02  0.1301500E+00
         21   -1    0    0  501  502  0.00000000000E+00  0.00000000000E+00  0.17575912443E+03  0.17575912443E+03  0.00000000000E+00 0. -1.
         -1   -1    0    0    0  501 -0.00000000000E+00 -0.00000000000E+00 -0.15077852480E+03  0.15077852480E+03  0.00000000000E+00 0.  1.
         23    2    1    2    0    0  0.16398518795E+01  0.12459261685E+01 -0.10968612929E+03  0.14267626549E+03  0.91220766989E+02 0.  0.
         23    2    1    2    0    0  0.44809924118E+00 -0.31086428689E+02  0.11449743478E+03  0.14778347420E+03  0.88112007314E+02 0.  0.
        -13    1    4    4    0    0 -0.32013322996E+02 -0.47308853581E+02  0.71651455972E+02  0.91634663852E+02  0.00000000000E+00 0. -1.
         13    1    4    4    0    0  0.32461422237E+02  0.16222424892E+02  0.42845978808E+02  0.56148810344E+02  0.00000000000E+00 0.  1.
        -13    1    3    3    0    0 -0.12935148600E+02 -0.39458205378E+02 -0.27479105819E+02  0.49793265585E+02  0.00000000000E+00 0. -1.
         13    1    3    3    0    0  0.14575000480E+02  0.40704131547E+02 -0.82207023470E+02  0.92882999907E+02  0.00000000000E+00 0.  1.
         -1    1    1    2    0  502 -0.20879511207E+01  0.29840502521E+02  0.20169294138E+02  0.36077909538E+02  0.00000000000E+00 0.  1.
<scales pt_clust_5="13000.00000" pt_clust_6="13000.00000" pt_clust_7="13000.00000" pt_clust_8="13000.00000" pt_clust_9="29.91346"></scales>
<clustering>
<clus scale="   29.913">  1  9  2 -1</clus>
<clus scale="   88.112">  5  6 -1 -1</clus>
<clus scale="   88.242">  1  5  2 -1</clus>
<clus scale="   91.221">  7  8 -1 -1</clus>
<clus scale="   29.913">  1  5  2 -1</clus>
</clustering>
</event>
<event>
 9    1  0.1636528E-005  0.1348498E+03  0.7546771E-02  0.1220866E+00
          2   -1    0    0  502    0 -0.00000000000E+00  0.00000000000E+00  0.78908181325E+03  0.78908181325E+03  0.00000000000E+00 0. -1.
         21   -1    0    0  501  502  0.00000000000E+00 -0.00000000000E+00 -0.38618227053E+02  0.38618227053E+02  0.00000000000E+00 0. -1.
         23    2    1    2    0    0  0.62127401621E+02  0.62052518665E+02  0.39765760488E+03  0.41678623810E+03  0.88706642585E+02 0.  0.
         23    2    1    2    0    0 -0.11356420060E+03 -0.64976868657E+02  0.26339612858E+03  0.30772263070E+03  0.90536599080E+02 0.  0.
        -11    1    4    4    0    0 -0.47885244655E+02 -0.24733698791E+01  0.17365618060E+03  0.18015433183E+03  0.00000000000E+00 0.  1.
         11    1    4    4    0    0 -0.65678955946E+02 -0.62503498778E+02  0.89739947978E+02  0.12756829887E+03  0.00000000000E+00 0. -1.
        -13    1    3    3    0    0  0.70753477236E+02  0.33199638811E+02  0.36090991203E+03  0.36927528371E+03  0.00000000000E+00 0. -1.
         13    1    3    3    0    0 -0.86260756151E+01  0.28852879854E+02  0.36747692853E+02  0.47510954383E+02  0.00000000000E+00 0.  1.
          2    1    1    2  501    0  0.51436798980E+02  0.29243499914E+01  0.89409852727E+02  0.10319117151E+03  0.00000000000E+00 0. -1.
<scales pt_clust_5="13000.00000" pt_clust_6="13000.00000" pt_clust_7="13000.00000" pt_clust_8="13000.00000" pt_clust_9="51.51986"></scales>
<clustering>
<clus scale="   51.520">  2  9  1 -1</clus>
<clus scale="   88.707">  7  8 -1 -1</clus>
<clus scale="   90.537">  5  6 -1 -1</clus>
<clus scale="  133.628">  1  7  2 -1</clus>
<clus scale="   51.520">  2  5  1 -1</clus>
</clustering>
</event>
<event>
 9    1  0.1636528E-005  0.1156682E+03  0.7546771E-02  0.1250777E+00
          3   -1    0    0  502    0 -0.00000000000E+00  0.00000000000E+00  0.36604966215E+02  0.36604966215E+02  0.00000000000E+00 0. -1.
         21   -1    0    0  501  502  0.00000000000E+00 -0.00000000000E+00 -0.46711542199E+03  0.46711542199E+03  0.00000000000E+00 0. -1.
         23    2    1    2    0    0 -0.57744938251E+02 -0.14756957922E+02 -0.17056417471E+03  0.20264627191E+03  0.91766704879E+02 0.  0.
         23    2    1    2    0    0  0.76069451324E+02  0.32325122648E+02 -0.18555682243E+03  0.22247246397E+03  0.90725894305E+02 0.  0.
        -11    1    3    3    0    0 -0.64120156442E+02 -0.40380386153E+02 -0.15356443811E+03  0.17124253764E+03  0.00000000000E+00 0. -1.
         11    1    3    3    0    0  0.63752181913E+01  0.25623428231E+02 -0.16999736603E+02  0.31403734266E+02  0.00000000000E+00 0.  1.
        -13    1    4    4    0    0  0.14806599166E+02 -0.28142979271E+02 -0.25596247678E+02  0.40821937194E+02  0.00000000000E+00 0.  1.
         13    1    4    4    0    0  0.61262852159E+02  0.60468101920E+02 -0.15996057475E+03  0.18165052678E+03  0.00000000000E+00 0. -1.
          3    1    1    2  501    0 -0.18324513074E+02 -0.17568164727E+02 -0.74389458635E+02  0.78601652319E+02  0.00000000000E+00 0. -1.
<scales pt_clust_5="13000.00000" pt_clust_6="13000.00000" pt_clust_7="13000.00000" pt_clust_8="13000.00000" pt_clust_9="25.38559"></scales>
<clustering>
<clus scale="   25.386">  2  9  1 -1</clus>
<clus scale="   90.726">  7  8 -1 -1</clus>
<clus scale="   91.767">  5  6 -1 -1</clus>
<clus scale="  114.844">  2  7  1 -1</clus>
<clus scale="   25.386">  2  5  1 -1</clus>
</clustering>
</event>
<event>
 9    1  0.1636528E-005  0.1070326E+03  0.7546771E-02  0.1267333E+00
          1   -1    0    0  502    0 -0.00000000000E+00  0.00000000000E+00  0.69191147023E+03  0.69191147023E+03  0.00000000000E+00 0. -1.
         21   -1    0    0  501  502  0.00000000000E+00 -0.00000000000E+00 -0.49405155068E+02  0.49405155068E+02  0.00000000000E+00 0.  1.
         23    2    1    2    0    0  0.25093354418E+02 -0.28968113599E+02  0.46166088393E+03  0.47304273321E+03  0.95759217086E+02 0.  0.
         23    2    1    2    0    0 -0.58987480349E+02  0.80378137519E+02  0.11907808522E+03  0.18105573247E+03  0.93066750521E+02 0.  0.
        -13    1    4    4    0    0 -0.45649440137E+02  0.10155436316E+03  0.98365840115E+02  0.14856984405E+03  0.00000000000E+00 0.  1.
         13    1    4    4    0    0 -0.13338040212E+02 -0.21176225638E+02  0.20712245102E+02  0.32485888415E+02  0.00000000000E+00 0. -1.
        -13    1    3    3    0    0 -0.31739301622E+02 -0.33477675450E+02  0.20742355588E+03  0.21249157526E+03  0.00000000000E+00 0.  1.
         13    1    3    3    0    0  0.56832656040E+02  0.45095618513E+01  0.25423732804E+03  0.26055115795E+03  0.00000000000E+00 0. -1.
          1    1    1    2  501    0  0.33894125931E+02 -0.51410023920E+02  0.61767346017E+02  0.87218159612E+02  0.00000000000E+00 0. -1.
<scales pt_clust_5="13000.00000" pt_clust_6="13000.00000" pt_clust_7="13000.00000" pt_clust_8="13000.00000" pt_clust_9="61.57761"></scales>
<clustering>
<clus scale="   61.578">  2  9  1 -1</clus>
<clus scale="   93.067">  5  6 -1 -1</clus>
<clus scale="   95.759">  7  8 -1 -1</clus>
<clus scale="  104.631">  2  5  1 -1</clus>
<clus scale="   61.578">  2  5  1 -1</clus>
</clustering>
</event>
<event>
 9    1  0.1636528E-005  0.1449083E+03  0.7546771E-02  0.1207266E+00
          1   -1    0    0  502    0 -0.00000000000E+00  0.00000000000E+00  0.73969833198E+03  0.73969833198E+03  0.00000000000E+00 0. -1.
         21   -1    0    0  501  502  0.00000000000E+00 -0.00000000000E+00 -0.48339538757E+02  0.48339538757E+02  0.00000000000E+00 0.  1.
         23    2    1    2    0    0  0.98650708062E+02  0.60343137029E+01  0.38039774112E+03  0.40357639903E+03  0.91668387469E+02 0.  0.
         23    2    1    2    0    0 -0.13599786724E+03  0.34153465475E+02  0.25813152054E+03  0.30829830936E+03  0.93563275711E+02 0.  0.
        -11    1    3    3    0    0  0.15496105886E+02  0.29064676989E+02  0.37146045735E+02  0.49645880593E+02  0.00000000000E+00 0.  1.
         11    1    3    3    0    0  0.83154602176E+02 -0.23030363286E+02  0.34325169538E+03  0.35393051843E+03  0.00000000000E+00 0. -1.
        -11    1    4    4    0    0 -0.71683025830E+02  0.54121344874E+02  0.89865726095E+02  0.12705677821E+03  0.00000000000E+00 0.  1.
         11    1    4    4    0    0 -0.64314841405E+02 -0.19967879399E+02  0.16826579445E+03  0.18124153115E+03  0.00000000000E+00 0. -1.
          1    1    1    2  501    0  0.37347159174E+02 -0.40187779178E+02  0.52829531562E+02  0.76163162346E+02  0.00000000000E+00 0. -1.
<scales pt_clust_5="13000.00000" pt_clust_6="13000.00000" pt_clust_7="13000.00000" pt_clust_8="13000.00000" pt_clust_9="54.86226"></scales>
<clustering>
<clus scale="   54.862">  2  9  1 -1</clus>
<clus scale="   91.668">  5  6 -1 -1</clus>
<clus scale="   93.563">  7  8 -1 -1</clus>
<clus scale="  143.692">  1  5  2 -1</clus>
<clus scale="   54.862">  2  5  1 -1</clus>
</clustering>
</event>
<event>
 9    1  0.1636528E-005  0.1030362E+03  0.7546771E-02  0.1278957E+00
         21   -1    0    0  501  502  0.00000000000E+00  0.00000000000E+00  0.18885652982E+03  0.18885652982E+03  0.00000000000E+00 0. -1.
         -1   -1    0    0    0  501 -0.00000000000E+00 -0.00000000000E+00 -0.20756683762E+03  0.20756683762E+03  0.00000000000E+00 0.  1.
         23    2    1    2    0    0  0.45057233086E+02 -0.58532985668E+01 -0.15097512194E+03  0.18230997371E+03  0.91537007341E+02 0.  0.
         23    2    1    2    0    0 -0.56232144232E+02 -0.16252081136E+02  0.23605312407E+02  0.10266648365E+03  0.80975378382E+02 0.  0.
        -11    1    3    3    0    0  0.48915826179E+02  0.30383926577E+02 -0.12479147119E+03  0.13743672117E+03  0.00000000000E+00 0. -1.
         11    1    3    3    0    0 -0.38585930929E+01 -0.36237225144E+02 -0.26183650745E+02  0.44873252536E+02  0.00000000000E+00 0.  1.
        -13    1    4    4    0    0  0.19574162894E+02  0.60041036604E+01  0.87998336587E+01  0.22285290803E+02  0.00000000000E+00 0. -1.
         13    1    4    4    0    0 -0.75806307126E+02 -0.22256184797E+02  0.14805478748E+02  0.80381192842E+02  0.00000000000E+00 0.  1.
         -1    1    1    2    0  502  0.11174911146E+02  0.22105379703E+02  0.10865950173E+03  0.11144691008E+03  0.00000000000E+00 0.  1.
<scales pt_clust_5="13000.00000" pt_clust_6="13000.00000" pt_clust_7="13000.00000" pt_clust_8="13000.00000" pt_clust_9="24.76947"></scales>
<clustering>
<clus scale="   24.769">  1  9  2 -1</clus>
<clus scale="   80.975">  7  8 -1 -1</clus>
<clus scale="   91.537">  5  6 -1 -1</clus>
<clus scale="   93.779">  1  7  2 -1</clus>
<clus scale="   24.769">  1  5  2 -1</clus>
</clustering>
</event>
<event>
 9    1  0.1636528E-005  0.1042632E+03  0.7546771E-02  0.1271691E+00
          1   -1    0    0  502    0 -0.00000000000E+00  0.00000000000E+00  0.59646232460E+03  0.59646232460E+03  0.00000000000E+00 0. -1.
         21   -1    0    0  501  502  0.00000000000E+00 -0.00000000000E+00 -0.43523602362E+02  0.43523602362E+02  0.00000000000E+00 0. -1.
         23    2    1    2    0    0  0.52450965591E+02  0.78140755546E+01  0.48043243882E+03  0.49194559843E+03  0.91558614996E+02 0.  0.
         23    2    1    2    0    0 -0.28931927940E+02  0.34809552576E+01  0.35292870849E+02  0.10259188600E+03  0.91816854862E+02 0.  0.
        -11    1    4    4    0    0 -0.13713706773E+02 -0.34777723223E+02  0.46744421801E+02  0.59854797264E+02  0.00000000000E+00 0.  1.
         11    1    4    4    0    0 -0.15218221167E+02  0.38258678480E+02 -0.11451550952E+02  0.42737088738E+02  0.00000000000E+00 0. -1.
        -13    1    3    3    0    0  0.64437368360E+02  0.30153967122E+02  0.42598571381E+03  0.43188570774E+03  0.00000000000E+00 0. -1.
         13    1    3    3    0    0 -0.11986402769E+02 -0.22339891568E+02  0.54446725007E+02  0.60059890697E+02  0.00000000000E+00 0.  1.
          1    1    1    2  501    0 -0.23519037651E+02 -0.11295030812E+02  0.37213412572E+02  0.45448442529E+02  0.00000000000E+00 0. -1.
<scales pt_clust_5="13000.00000" pt_clust_6="13000.00000" pt_clust_7="13000.00000" pt_clust_8="13000.00000" pt_clust_9="26.09067"></scales>
<clustering>
<clus scale="   26.091">  2  9  1 -1</clus>
<clus scale="   91.559">  7  8 -1 -1</clus>
<clus scale="   91.817">  5  6 -1 -1</clus>
<clus scale="  104.036">  1  7  2 -1</clus>
<clus scale="   26.091">  2  5  1 -1</clus>
</clustering>
</event>
<event>
 9    1  0.1636528E-005  0.9784967E+02  0.7546771E-02  0.1286053E+00
         21   -1    0    0  501  502  0.00000000000E+00  0.00000000000E+00  0.20679134771E+02  0.20679134771E+02  0.00000000000E+00 0.  1.
          1   -1    0    0  502    0 -0.00000000000E+00 -0.00000000000E+00 -0.61591161877E+03  0.61591161877E+03  0.00000000000E+00 0. -1.
         23    2    1    2    0    0 -0.20574305643E+02  0.24648745319E+02 -0.25528883103E+03  0.27242485389E+03  0.89510061264E+02 0.  0.
         23    2    1    2    0    0 -0.35651700078E+01 -0.41128124002E+02 -0.27840914202E+03  0.29604262725E+03  0.91789725802E+02 0.  0.
        -11    1    3    3    0    0 -0.25240397331E+02 -0.30429936545E+02 -0.11692985981E+03  0.12343277851E+03  0.00000000000E+00 0. -1.
         11    1    3    3    0    0  0.46660916885E+01  0.55078681865E+02 -0.13835897122E+03  0.14899207538E+03  0.00000000000E+00 0.  1.
        -13    1    4    4    0    0  0.29480981931E+02 -0.54520032985E+02 -0.13985191616E+03  0.15297098007E+03  0.00000000000E+00 0.  1.
         13    1    4    4    0    0 -0.33046151939E+02  0.13391908983E+02 -0.13855722587E+03  0.14307164717E+03  0.00000000000E+00 0. -1.
          1    1    1    2  501    0  0.24139475650E+02  0.16479378683E+02 -0.61534510940E+02  0.68123272405E+02  0.00000000000E+00 0. -1.
<scales pt_clust_5="13000.00000" pt_clust_6="13000.00000" pt_clust_7="13000.00000" pt_clust_8="13000.00000" pt_clust_9="29.22814"></scales>
<clustering>
<clus scale="   29.228">  1  9  2 -1</clus>
<clus scale="   89.510">  5  6 -1 -1</clus>
<clus scale="   91.790">  7  8 -1 -1</clus>
<clus scale="   95.714">  2  5  1 -1</clus>
<clus scale="   29.228">  1  5  2 -1</clus>
</clustering>
</event>
<event>
 9    1  0.1636528E-005  0.1027265E+03  0.7546771E-02  0.1276287E+00
         -2   -1    0    0    0  501 -0.00000000000E+00  0.00000000000E+00  0.17180262421E+03  0.17180262421E+03  0.00000000000E+00 0.  1.
         21   -1    0    0  501  502  0.00000000000E+00 -0.00000000000E+00 -0.17461217207E+03  0.17461217207E+03  0.00000000000E+00 0. -1.
         23    2    1    2    0    0  0.20463795816E+02  0.45728999704E+02  0.12774592825E+03  0.16428643239E+03  0.90338814081E+02 0.  0.
         23    2    1    2    0    0  0.58624999643E+01 -0.47230477973E+02 -0.89996259796E+02  0.13375090722E+03  0.86746132189E+02 0.  0.
        -11    1    3    3    0    0 -0.23924962160E+02  0.52442662519E+02  0.61797470470E+02  0.84507774926E+02  0.00000000000E+00 0. -1.
         11    1    3    3    0    0  0.44388757977E+02 -0.67136628147E+01  0.65948457778E+02  0.79778657462E+02  0.00000000000E+00 0.  1.
        -13    1    4    4    0    0  0.45002389349E+02 -0.29474677021E+02 -0.63653821201E+02  0.83341349798E+02  0.00000000000E+00 0.  1.
         13    1    4    4    0    0 -0.39139889385E+02 -0.17755800952E+02 -0.26342438595E+02  0.50409557424E+02  0.00000000000E+00 0. -1.
         -2    1    1    2    0  502 -0.26326295781E+02  0.15014782688E+01 -0.40559216307E+02  0.48377456671E+02  0.00000000000E+00 0.  1.
<scales pt_clust_5="13000.00000" pt_clust_6="13000.00000" pt_clust_7="13000.00000" pt_clust_8="13000.00000" pt_clust_9="26.36908"></scales>
<clustering>
<clus scale="   26.369">  2  9  1 -1</clus>
<clus scale="   86.746">  7  8 -1 -1</clus>
<clus scale="   90.339">  5  6 -1 -1</clus>
<clus scale="   99.582">  2  7  1 -1</clus>
<clus scale="   26.369">  2  5  1 -1</clus>
</clustering>
</event>
<event>
 9    1  0.1636528E-005  0.9187335E+02  0.7546771E-02  0.1298553E+00
         21   -1    0    0  501  502  0.00000000000E+00  0.00000000000E+00  0.31584088696E+02  0.31584088696E+02  0.00000000000E+00 0.  1.
          1   -1    0    0  502    0 -0.00000000000E+00 -0.00000000000E+00 -0.38087068754E+03  0.38087068754E+03  0.00000000000E+00 0. -1.
         23    2    1    2    0    0 -0.12534041462E+02 -0.20889344854E+02 -0.18424684264E+03  0.20690003190E+03  0.90924459056E+02 0.  0.
         23    2    1    2    0    0 -0.19223263956E+01 -0.61366471057E+01 -0.13082588242E+03  0.15962022602E+03  0.91224181384E+02 0.  0.
        -11    1    3    3    0    0  0.32337362114E+02  0.15961355954E+02 -0.69506109243E+02  0.78304336371E+02  0.00000000000E+00 0.  1.
         11    1    3    3    0    0 -0.44871403575E+02 -0.36850700808E+02 -0.11474073339E+03  0.12859569553E+03  0.00000000000E+00 0. -1.
        -11    1    4    4    0    0 -0.21287799362E+02  0.37829830031E+02 -0.62148056686E+02  0.75806644773E+02  0.00000000000E+00 0.  1.
         11    1    4    4    0    0  0.19365472966E+02 -0.43966477136E+02 -0.68677825731E+02  0.83813581251E+02  0.00000000000E+00 0. -1.
          1    1    1    2  501    0  0.14456367857E+02  0.27025991959E+02 -0.34213873791E+02  0.45934518314E+02  0.00000000000E+00 0. -1.
<scales pt_clust_5="13000.00000" pt_clust_6="13000.00000" pt_clust_7="13000.00000" pt_clust_8="13000.00000" pt_clust_9="30.64948"></scales>
<clustering>
<clus scale="   30.649">  1  9  2 -1</clus>
<clus scale="   90.924">  5  6 -1 -1</clus>
<clus scale="   91.224">  7  8 -1 -1</clus>
<clus scale="   91.576">  2  5  1 -1</clus>
<clus scale="   30.649">  1  5  2 -1</clus>
</clustering>
</event>
<event>
 9    1  0.1636528E-005  0.9182390E+02  0.7546771E-02  0.1298561E+00
         21   -1    0    0  501  502  0.00000000000E+00  0.00000000000E+00  0.15101350280E+03  0.15101350280E+03  0.00000000000E+00 0.  1.
          4   -1    0    0  502    0 -0.00000000000E+00 -0.00000000000E+00 -0.91357400607E+02  0.91357400607E+02  0.00000000000E+00 0. -1.
         23    2    1    2    0    0 -0.14359354054E+02 -0.35283928007E+01 -0.30506239434E+02  0.97193277027E+02  0.91089307003E+02 0.  0.
         23    2    1    2    0    0  0.32311925804E+01 -0.14693156143E+02  0.76666538265E+02  0.11991901335E+03  0.90975173709E+02 0.  0.
        -11    1    4    4    0    0  0.32893253322E+02 -0.40515695298E+02  0.36356198468E+02  0.63602365103E+02  0.00000000000E+00 0. -1.
         11    1    4    4    0    0 -0.29662060741E+02  0.25822539155E+02  0.40310339796E+02  0.56316648252E+02  0.00000000000E+00 0.  1.
        -13    1    3    3    0    0  0.34904866926E+02  0.81836852490E+01 -0.29690482207E+02  0.46549405721E+02  0.00000000000E+00 0. -1.
         13    1    3    3    0    0 -0.49264220979E+02 -0.11712078050E+02 -0.81575722719E+00  0.50643871306E+02  0.00000000000E+00 0.  1.
          4    1    1    2  501    0  0.11128161474E+02  0.18221548944E+02  0.13495803365E+02  0.25258613029E+02  0.00000000000E+00 0. -1.
<scales pt_clust_5="13000.00000" pt_clust_6="13000.00000" pt_clust_7="13000.00000" pt_clust_8="13000.00000" pt_clust_9="21.35090"></scales>
<clustering>
<clus scale="   21.351">  1  9  2 -1</clus>
<clus scale="   90.975">  5  6 -1 -1</clus>
<clus scale="   91.089">  7  8 -1 -1</clus>
<clus scale="   91.711">  1  5  2 -1</clus>
<clus scale="   21.351">  1  5  2 -1</clus>
</clustering>
</event>
<event>
 9    1  0.1636528E-005  0.9452901E+02  0.7546771E-02  0.1295086E+00
          1   -1    0    0  502    0 -0.00000000000E+00  0.00000000000E+00  0.61372406466E+03  0.61372406466E+03  0.00000000000E+00 0. -1.
         21   -1    0    0  501  502  0.00000000000E+00 -0.00000000000E+00 -0.52235332702E+02  0.52235332702E+02  0.00000000000E+00 0. -1.
         23    2    1    2    0    0  0.47653502302E+01 -0.46607179148E+02  0.37713270193E+03  0.39089441220E+03  0.91511905835E+02 0.  0.
         23    2    1    2    0    0  0.11211563825E+02 -0.71588733256E+01  0.19875626759E+03  0.21715628959E+03  0.86463006969E+02 0.  0.
        -11    1    3    3    0    0  0.33236892074E+02  0.13721053570E+02  0.14198484200E+03  0.14646724433E+03  0.00000000000E+00 0.  1.
         11    1    3    3    0    0 -0.28471541844E+02 -0.60328232718E+02  0.23514785993E+03  0.24442716786E+03  0.00000000000E+00 0. -1.
        -11    1    4    4    0    0 -0.27413753995E+01  0.27703584347E+02  0.16281193229E+03  0.16517484379E+03  0.00000000000E+00 0.  1.
         11    1    4    4    0    0  0.13952939224E+02 -0.34862457672E+02  0.35944335297E+02  0.51981445804E+02  0.00000000000E+00 0. -1.
          1    1    1    2  501    0 -0.15976914055E+02  0.53766052473E+02 -0.14400237558E+02  0.57908695573E+02  0.00000000000E+00 0. -1.
<scales pt_clust_5="13000.00000" pt_clust_6="13000.00000" pt_clust_7="13000.00000" pt_clust_8="13000.00000" pt_clust_9="56.08966"></scales>
<clustering>
<clus scale="   56.090">  2  9  1 -1</clus>
<clus scale="   86.463">  7  8 -1 -1</clus>
<clus scale="   89.650">  2  7  1 -1</clus>
<clus scale="   91.512">  5  6 -1 -1</clus>
<clus scale="   56.090">  2  5  1 -1</clus>
</clustering>
</event>
<event>
 9    1  0.1636528E-005  0.2440415E+03  0.7546771E-02  0.1152429E+00
          2   -1    0    0  502    0 -0.00000000000E+00  0.00000000000E+00  0.11250022487E+04  0.11250022487E+04  0.00000000000E+00 0. -1.
         21   -1    0    0  501  502  0.00000000000E+00 -0.00000000000E+00 -0.14848643583E+03  0.14848643583E+03  0.00000000000E+00 0. -1.
         23    2    1    2    0    0  0.46035934403E+02 -0.22075577259E+02  0.36715252772E+03  0.38140811726E+03  0.89802755728E+02 0.  0.
         23    2    1    2    0    0  0.18396149015E+03  0.57425029157E+02  0.62358709331E+03  0.65894816767E+03  0.90622077331E+02 0.  0.
        -13    1    3    3    0    0  0.66229014577E+02 -0.16141163426E+02  0.34144816823E+03  0.34818625923E+03  0.00000000000E+00 0.  1.
         13    1    3    3    0    0 -0.20193080174E+02 -0.59344138323E+01  0.25704359484E+02  0.33221858029E+02  0.00000000000E+00 0. -1.
        -13    1    4    4    0    0  0.17090315185E+03  0.78436171076E+02  0.54203226334E+03  0.57372388372E+03  0.00000000000E+00 0. -1.
         13    1    4    4    0    0  0.13058338303E+02 -0.21011141918E+02  0.81554829964E+02  0.85224283948E+02  0.00000000000E+00 0.  1.
          2    1    1    2  501    0 -0.22999742456E+03 -0.35349451899E+02 -0.14223808110E+02  0.23313239966E+03  0.00000000000E+00 0. -1.
<scales pt_clust_5="13000.00000" pt_clust_6="13000.00000" pt_clust_7="13000.00000" pt_clust_8="13000.00000" pt_clust_9="226.59189"></scales>
<clustering>
<clus scale="   89.803">  5  6 -1 -1</clus>
<clus scale="   90.622">  7  8 -1 -1</clus>
<clus scale="  103.301">  1  5  2 -1</clus>
<clus scale="  226.592">  2  9  1 -1</clus>
<clus scale="  226.592">  2  5  1 -1</clus>
</clustering>
</event>
<event>
 9    1  0.1636528E-005  0.1336679E+03  0.7546771E-02  0.1222166E+00
          1   -1    0    0  502    0 -0.00000000000E+00  0.00000000000E+00  0.78498103859E+03  0.78498103859E+03  0.00000000000E+00 0. -1.
         21   -1    0    0  501  502  0.00000000000E+00 -0.00000000000E+00 -0.28053215712E+02  0.28053215712E+02  0.00000000000E+00 0.  1.
         23    2    1    2    0    0 -0.58508054580E+02  0.74984185716E+02  0.39089259862E+03  0.41193516100E+03  0.88587429433E+02 0.  0.
         23    2    1    2    0    0  0.79198275028E+02 -0.73532352460E+02  0.28536968917E+03  0.31780970866E+03  0.88813162314E+02 0.  0.
        -11    1    4    4    0    0  0.22509102939E+02 -0.39207951122E+02  0.22045360450E+03  0.22504158478E+03  0.00000000000E+00 0. -1.
         11    1    4    4    0    0  0.56689172089E+02 -0.34324401338E+02  0.64916084670E+02  0.92768123880E+02  0.00000000000E+00 0.  1.
        -11    1    3    3    0    0 -0.78103592967E+02  0.64027099989E+02  0.35898394764E+03  0.37291971713E+03  0.00000000000E+00 0. -1.
         11    1    3    3    0    0  0.19595538387E+02  0.10957085727E+02  0.31908650980E+02  0.39015443861E+02  0.00000000000E+00 0.  1.
          1    1    1    2  501    0 -0.20690220448E+02 -0.14518332553E+01  0.80665535091E+02  0.83289384639E+02  0.00000000000E+00 0. -1.
<scales pt_clust_5="13000.00000" pt_clust_6="13000.00000" pt_clust_7="13000.00000" pt_clust_8="13000.00000" pt_clust_9="20.74111"></scales>
<clustering>
<clus scale="   20.741">  2  9  1 -1</clus>
<clus scale="   88.587">  7  8 -1 -1</clus>
<clus scale="   88.813">  5  6 -1 -1</clus>
<clus scale="  133.518">  1  7  2 -1</clus>
<clus scale="   20.741">  2  5  1 -1</clus>
</clustering>
</event>
<event>
 9    1  0.1636528E-005  0.1063340E+03  0.7546771E-02  0.1270705E+00
         -3   -1    0    0    0  501 -0.00000000000E+00  0.00000000000E+00  0.65939266285E+03  0.65939266285E+03  0.00000000000E+00 0.  1.
         21   -1    0    0  501  502  0.00000000000E+00 -0.00000000000E+00 -0.30495990321E+02  0.30495990321E+02  0.00000000000E+00 0. -1.
         23    2    1    2    0    0  0.24070546482E+02 -0.26454711543E+02  0.38136759945E+03  0.39359207754E+03  0.90522011796E+02 0.  0.
         23    2    1    2    0    0 -0.66321844772E+02  0.15937995899E+02  0.18910078670E+03  0.22342931163E+03  0.97513809049E+02 0.  0.
        -11    1    4    4    0    0 -0.40893842349E+02  0.40478079863E+02  0.39700290916E+02  0.69906325825E+02  0.00000000000E+00 0. -1.
         11    1    4    4    0    0 -0.25428002422E+02 -0.24540083964E+02  0.14940049579E+03  0.15352298580E+03  0.00000000000E+00 0.  1.
        -11    1    3    3    0    0 -0.48299824737E+01  0.30301724376E+02  0.82699776632E+02  0.88208708673E+02  0.00000000000E+00 0. -1.
         11    1    3    3    0    0  0.28900528956E+02 -0.56756435918E+02  0.29866782282E+03  0.30538336887E+03  0.00000000000E+00 0.  1.
         -3    1    1    2    0  502  0.42251298289E+02  0.10516715643E+02  0.58428286376E+02  0.72867264008E+02  0.00000000000E+00 0.  1.
<scales pt_clust_5="13000.00000" pt_clust_6="13000.00000" pt_clust_7="13000.00000" pt_clust_8="13000.00000" pt_clust_9="43.54048"></scales>
<clustering>
<clus scale="   43.540">  2  9  1 -1</clus>
<clus scale="   90.522">  7  8 -1 -1</clus>
<clus scale="   97.514">  5  6 -1 -1</clus>
<clus scale="   99.961">  1  7  2 -1</clus>
<clus scale="   43.540">  2  5  1 -1</clus>
</clustering>
</event>
<event>
 9    1  0.1636528E-005  0.1315563E+03  0.7546771E-02  0.1225754E+00
         -2   -1    0    0    0  501 -0.00000000000E+00  0.00000000000E+00  0.15718743355E+03  0.15718743355E+03  0.00000000000E+00 0.  1.
         21   -1    0    0  501  502  0.00000000000E+00 -0.00000000000E+00 -0.36904554076E+03  0.36904554076E+03  0.00000000000E+00 0.  1.
         23    2    1    2    0    0 -0.71614111660E+02 -0.69306796938E+02  0.72313102748E+02  0.15484486359E+03  0.93892139495E+02 0.  0.
         23    2    1    2    0    0  0.34630185584E+01  0.91328123464E+02 -0.73409451560E+02  0.14878975243E+03  0.91633095639E+02 0.  0.
        -13    1    4    4    0    0 -0.11205437700E+02  0.10699419712E+03 -0.56810679244E+02  0.12165842892E+03  0.00000000000E+00 0.  1.
         13    1    4    4    0    0  0.14668456258E+02 -0.15666073657E+02 -0.16598772316E+02  0.27131323506E+02  0.00000000000E+00 0. -1.
        -13    1    3    3    0    0 -0.75105005185E+02 -0.48210401823E+02  0.11014903121E+02  0.89924038714E+02  0.00000000000E+00 0.  1.
         13    1    3    3    0    0  0.34908935251E+01 -0.21096395115E+02  0.61298199627E+02  0.64920824871E+02  0.00000000000E+00 0. -1.
         -2    1    1    2    0  502  0.68151093102E+02 -0.22021326526E+02 -0.21076175839E+03  0.22259835829E+03  0.00000000000E+00 0.  1.
<scales pt_clust_5="13000.00000" pt_clust_6="13000.00000" pt_clust_7="13000.00000" pt_clust_8="13000.00000" pt_clust_9="71.62060"></scales>
<clustering>
<clus scale="   71.621">  2  9  1 -1</clus>
<clus scale="   91.633">  5  6 -1 -1</clus>
<clus scale="   93.892">  7  8 -1 -1</clus>
<clus scale="  129.954">  2  5  1 -1</clus>
<clus scale="   71.621">  2  5  1 -1</clus>
</clustering>
</event>
<event>
 9    1  0.1636528E-005  0.1072499E+03  0.7546771E-02  0.1266549E+00
         21   -1    0    0  501  502  0.00000000000E+00  0.00000000000E+00  0.22782011341E+03  0.22782011341E+03  0.00000000000E+00 0. -1.
          1   -1    0    0  502    0 -0.00000000000E+00 -0.00000000000E+00 -0.96995777073E+02  0.96995777073E+02  0.00000000000E+00 0. -1.
         23    2    1    2    0    0  0.57664023383E+02  0.53872001958E+02  0.20667242260E+02  0.12228288377E+03  0.91096852700E+02 0.  0.
         23    2    1    2    0    0  0.24842317422E+01 -0.37139949608E+02  0.38079722249E+02  0.10717619417E+03  0.93011419111E+02 0.  0.
        -11    1    4    4    0    0 -0.42466949505E+02 -0.34357119720E+02  0.15417939698E+02  0.56758843719E+02  0.00000000000E+00 0.  1.
         11    1    4    4    0    0  0.44951181248E+02 -0.27828298878E+01  0.22661782550E+02  0.50417350447E+02  0.00000000000E+00 0. -1.
        -13    1    3    3    0    0 -0.23452403800E+02  0.12127825885E+02  0.16135875770E+02  0.30942945747E+02  0.00000000000E+00 0.  1.
         13    1    3    3    0    0  0.81116427183E+02  0.41744176073E+02  0.45313664905E+01  0.91339938018E+02  0.00000000000E+00 0. -1.
          1    1    1    2  501    0 -0.60148255125E+02 -0.16732052350E+02  0.72077371833E+02  0.95356812556E+02  0.00000000000E+00 0. -1.
<scales pt_clust_5="13000.00000" pt_clust_6="13000.00000" pt_clust_7="13000.00000" pt_clust_8="13000.00000" pt_clust_9="62.43216"></scales>
<clustering>
<clus scale="   62.432">  1  9  2 -1</clus>
<clus scale="   91.097">  7  8 -1 -1</clus>
<clus scale="   93.011">  5  6 -1 -1</clus>
<clus scale="  105.594">  2  7  1 -1</clus>
<clus scale="   62.432">  1  5  2 -1</clus>
</clustering>
</event>
<event>
 9    1  0.1636528E-005  0.1289732E+03  0.7546771E-02  0.1230040E+00
         21   -1    0    0  501  502  0.00000000000E+00  0.00000000000E+00  0.32365725403E+03  0.32365725403E+03  0.00000000000E+00 0.  1.
          1   -1    0    0  502    0 -0.00000000000E+00 -0.00000000000E+00 -0.97893256210E+02  0.97893256210E+02  0.00000000000E+00 0. -1.
         23    2    1    2    0    0 -0.43800125603E+02 -0.80756165439E+02 -0.29478486210E+01  0.12662151152E+03  0.87087933196E+02 0.  0.
         23    2    1    2    0    0 -0.34181416422E+01  0.99934077426E+02  0.16641471945E+03  0.21444117914E+03  0.91064026587E+02 0.  0.
        -11    1    3    3    0    0  0.26249551464E+02 -0.15207333457E+02  0.31071802884E+01  0.30495188346E+02  0.00000000000E+00 0.  1.
         11    1    3    3    0    0 -0.70049677067E+02 -0.65548831983E+02 -0.60550289094E+01  0.96126323172E+02  0.00000000000E+00 0. -1.
        -11    1    4    4    0    0 -0.36292052332E+02  0.81365595318E+02  0.14723846484E+03  0.17209485377E+03  0.00000000000E+00 0.  1.
         11    1    4    4    0    0  0.32873910690E+02  0.18568482108E+02  0.19176254606E+02  0.42346325372E+02  0.00000000000E+00 0. -1.
          1    1    1    2  501    0  0.47218267246E+02 -0.19177911986E+02  0.62297126998E+02  0.80487819588E+02  0.00000000000E+00 0. -1.
<scales pt_clust_5="13000.00000" pt_clust_6="13000.00000" pt_clust_7="13000.00000" pt_clust_8="13000.00000" pt_clust_9="50.96427"></scales>
<clustering>
<clus scale="   50.964">  1  9  2 -1</clus>
<clus scale="   87.088">  5  6 -1 -1</clus>
<clus scale="   91.064">  7  8 -1 -1</clus>
<clus scale="  126.197">  2  5  1 -1</clus>
<clus scale="   50.964">  1  5  2 -1</clus>
</clustering>
</event>
<event>
 9    1  0.1636528E-005  0.1039408E+03  0.7546771E-02  0.1272239E+00
         -1   -1    0    0    0  501 -0.00000000000E+00  0.00000000000E+00  0.25649566452E+03  0.25649566452E+03  0.00000000000E+00 0.  1.
         21   -1    0    0  501  502  0.00000000000E+00 -0.00000000000E+00 -0.76505558513E+02  0.76505558513E+02  0.00000000000E+00 0. -1.
         23    2    1    2    0    0  0.17430384222E+01  0.39596408992E+02  0.12062415215E+03  0.15686823158E+03  0.92122430547E+02 0.  0.
         23    2    1    2    0    0  0.32661399784E+01 -0.60714521059E+02  0.87339393744E+02  0.14072706165E+03  0.92081569517E+02 0.  0.
        -13    1    3    3    0    0 -0.29169589363E+02  0.31026586587E+02  0.11709232876E+03  0.12459585657E+03  0.00000000000E+00 0. -1.
         13    1    3    3    0    0  0.30912627785E+02  0.85698224051E+01  0.35318233876E+01  0.32272375014E+02  0.00000000000E+00 0.  1.
        -13    1    4    4    0    0 -0.26715336568E+02  0.44809293857E+01  0.56428662013E+02  0.62593784297E+02  0.00000000000E+00 0.  1.
         13    1    4    4    0    0  0.29981476546E+02 -0.65195450445E+02  0.30910731731E+02  0.78133277358E+02  0.00000000000E+00 0. -1.
         -1    1    1    2    0  502 -0.50091784006E+01  0.21118112067E+02 -0.27973439888E+02  0.35405929795E+02  0.00000000000E+00 0.  1.
<scales pt_clust_5="13000.00000" pt_clust_6="13000.00000" pt_clust_7="13000.00000" pt_clust_8="13000.00000" pt_clust_9="21.70407"></scales>
<clustering>
<clus scale="   21.704">  2  9  1 -1</clus>
<clus scale="   92.082">  7  8 -1 -1</clus>
<clus scale="   92.122">  5  6 -1 -1</clus>
<clus scale="  103.905">  2  7  1 -1</clus>
<clus scale="   21.704">  2  5  1 -1</clus>
</clustering>
</event>
<event>
 9    1  0.1636528E-005  0.1290643E+03  0.7546771E-02  0.1230169E+00
          2   -1    0    0  502    0 -0.00000000000E+00  0.00000000000E+00  0.66579020059E+03  0.66579020059E+03  0.00000000000E+00 0. -1.
         21   -1    0    0  501  502  0.00000000000E+00 -0.00000000000E+00 -0.14318586936E+03  0.14318586936E+03  0.00000000000E+00 0. -1.
         23    2    1    2    0    0  0.47615991958E+02  0.67999003063E+02  0.53750503134E+03  0.55202400542E+03  0.94486489721E+02 0.  0.
         23    2    1    2    0    0 -0.12140518313E+03 -0.85246864788E+02  0.18112693902E+02  0.17429483465E+03  0.89690430134E+02 0.  0.
        -11    1    3    3    0    0  0.48012575433E+02 -0.88780839087E+01  0.21771456737E+03  0.22312252378E+03  0.00000000000E+00 0. -1.
         11    1    3    3    0    0 -0.39658347570E+00  0.76877086971E+02  0.31979046396E+03  0.32890148164E+03  0.00000000000E+00 0.  1.
        -13    1    4    4    0    0 -0.59520561698E+02  0.91409205360E+01  0.17065704114E+01  0.60242560334E+02  0.00000000000E+00 0.  1.
         13    1    4    4    0    0 -0.61884621432E+02 -0.94387785324E+02  0.16406123491E+02  0.11405227431E+03  0.00000000000E+00 0. -1.
          2    1    1    2  501    0  0.73789191172E+02  0.17247861725E+02 -0.33013394006E+02  0.82657229881E+02  0.00000000000E+00 0. -1.
<scales pt_clust_5="13000.00000" pt_clust_6="13000.00000" pt_clust_7="13000.00000" pt_clust_8="13000.00000" pt_clust_9="75.77819"></scales>
<clustering>
<clus scale="   75.778">  2  9  1 -1</clus>
<clus scale="   89.690">  7  8 -1 -1</clus>
<clus scale="   94.486">  5  6 -1 -1</clus>
<clus scale="  125.596">  2  7  1 -1</clus>
<clus scale="   75.778">  2  5  1 -1</clus>
</clustering>
</event>
<event>
 9    1  0.1636528E-005  0.1695060E+03  0.7546771E-02  0.1178464E+00
          1   -1    0    0  502    0 -0.00000000000E+00  0.00000000000E+00  0.99231304420E+03  0.99231304420E+03  0.00000000000E+00 0. -1.
         21   -1    0    0  501  502  0.00000000000E+00 -0.00000000000E+00 -0.11500472919E+03  0.11500472919E+03  0.00000000000E+00 0.  1.
         23    2    1    2    0    0 -0.33561874631E+02 -0.13446968868E+03  0.83425378061E+03  0.85086855629E+03  0.93751976113E+02 0.  0.
         23    2    1    2    0    0  0.33018973927E+02  0.15615291614E+03  0.89423950472E+02  0.20525761779E+03  0.93059448134E+02 0.  0.
        -11    1    3    3    0    0 -0.33599365522E+02 -0.50427656658E+01  0.10953345766E+03  0.11468184336E+03  0.00000000000E+00 0.  1.
         11    1    3    3    0    0  0.37490890698E-01 -0.12942692301E+03  0.72472032295E+03  0.73618671293E+03  0.00000000000E+00 0. -1.
        -11    1    4    4    0    0  0.10432287528E+02  0.16053713845E+03  0.71297503502E+02  0.17596687032E+03  0.00000000000E+00 0.  1.
         11    1    4    4    0    0  0.22586686400E+02 -0.43842223127E+01  0.18126446970E+02  0.29290747473E+02  0.00000000000E+00 0. -1.
          1    1    1    2  501    0  0.54290070427E+00 -0.21683227457E+02 -0.46369416063E+02  0.51191599312E+02  0.00000000000E+00 0. -1.
<scales pt_clust_5="13000.00000" pt_clust_6="13000.00000" pt_clust_7="13000.00000" pt_clust_8="13000.00000" pt_clust_9="21.69002"></scales>
<clustering>
<clus scale="   21.690">  2  9  1 -1</clus>
<clus scale="   93.059">  7  8 -1 -1</clus>
<clus scale="   93.752">  5  6 -1 -1</clus>
<clus scale="  169.124">  2  7  1 -1</clus>
<clus scale="   21.690">  2  5  1 -1</clus>
</clustering>
</event>
<event>
 9    1  0.1636528E-005  0.1240793E+03  0.7546771E-02  0.1236687E+00
          3   -1    0    0  502    0 -0.00000000000E+00  0.00000000000E+00  0.77375307860E+02  0.77375307860E+02  0.00000000000E+00 0. -1.
         21   -1    0    0  501  502  0.00000000000E+00 -0.00000000000E+00 -0.70324257281E+03  0.70324257281E+03  0.00000000000E+00 0. -1.
         23    2    1    2    0    0  0.57596881478E+02 -0.34025918296E+02 -0.50331442517E+02  0.12220165326E+03  0.89021492249E+02 0.  0.
         23    2    1    2    0    0 -0.12772680937E+03  0.67149124490E+01 -0.12066520492E+03  0.19736159236E+03  0.89622980199E+02 0.  0.
        -11    1    4    4    0    0 -0.92881560345E+02  0.15046595956E+02 -0.12986739309E+03  0.16037120717E+03  0.00000000000E+00 0.  1.
         11    1    4    4    0    0 -0.34845249020E+02 -0.83316835075E+01  0.92021881652E+01  0.36990385188E+02  0.00000000000E+00 0. -1.
        -13    1    3    3    0    0  0.80068089139E+02 -0.28637232817E+02 -0.26649154372E+02  0.89113228145E+02  0.00000000000E+00 0.  1.
         13    1    3    3    0    0 -0.22471207661E+02 -0.53886854793E+01 -0.23682288145E+02  0.33088425117E+02  0.00000000000E+00 0. -1.
          3    1    1    2  501    0  0.70129927887E+02  0.27311005847E+02 -0.45487061751E+03  0.46105463505E+03  0.00000000000E+00 0. -1.
<scales pt_clust_5="13000.00000" pt_clust_6="13000.00000" pt_clust_7="13000.00000" pt_clust_8="13000.00000" pt_clust_9="75.26020"></scales>
<clustering>
<clus scale="   75.260">  2  9  1 -1</clus>
<clus scale="   89.021">  7  8 -1 -1</clus>
<clus scale="   89.623">  5  6 -1 -1</clus>
<clus scale="  123.646">  1  7  2 -1</clus>
<clus scale="   75.260">  2  5  1 -1</clus>
</clustering>
</event>
<event>
 9    1  0.1636528E-005  0.1149517E+03  0.7546771E-02  0.1260080E+00
          2   -1    0    0  502    0 -0.00000000000E+00  0.00000000000E+00  0.89981893590E+02  0.89981893590E+02  0.00000000000E+00 0. -1.
         21   -1    0    0  501  502  0.00000000000E+00 -0.00000000000E+00 -0.46247040411E+03  0.46247040411E+03  0.00000000000E+00 0. -1.
         23    2    1    2    0    0 -0.15607309530E+02  0.30227485906E+02  0.29127709230E+02  0.11916180819E+03  0.11042564952E+03 0.  0.
         23    2    1    2    0    0  0.46690596063E+02  0.48552846063E+01 -0.18681672779E+03  0.21343646240E+03  0.91929582571E+02 0.  0.
        -11    1    3    3    0    0  0.43020199969E+02  0.33188812449E+02  0.26368345194E+02  0.60394739054E+02  0.00000000000E+00 0. -1.
         11    1    3    3    0    0 -0.58627509499E+02 -0.29613265425E+01  0.27593640359E+01  0.58767069136E+02  0.00000000000E+00 0.  1.
        -11    1    4    4    0    0  0.53072307089E+02  0.40433864125E+02 -0.12942473885E+03  0.14561019941E+03  0.00000000000E+00 0. -1.
         11    1    4    4    0    0 -0.63817110261E+01 -0.35578579519E+02 -0.57391988939E+02  0.67826262986E+02  0.00000000000E+00 0.  1.
          2    1    1    2  501    0 -0.31083286532E+02 -0.35082770512E+02 -0.21479949196E+03  0.21985402711E+03  0.00000000000E+00 0. -1.
<scales pt_clust_5="13000.00000" pt_clust_6="13000.00000" pt_clust_7="13000.00000" pt_clust_8="13000.00000" pt_clust_9="46.87186"></scales>
<clustering>
<clus scale="   46.872">  2  9  1 -1</clus>
<clus scale="   91.930">  7  8 -1 -1</clus>
<clus scale="   97.320">  2  7  1 -1</clus>
<clus scale="  110.426">  5  6 -1 -1</clus>
<clus scale="   46.872">  2  5  1 -1</clus>
</clustering>
</event>
<event>
 9    1  0.1636528E-005  0.1035007E+03  0.7546771E-02  0.1275899E+00
          2   -1    0    0  502    0 -0.00000000000E+00  0.00000000000E+00  0.60510877351E+03  0.60510877351E+03  0.00000000000E+00 0. -1.
         21   -1    0    0  501  502  0.00000000000E+00 -0.00000000000E+00 -0.24233756524E+02  0.24233756524E+02  0.00000000000E+00 0.  1.
         23    2    1    2    0    0 -0.34490186529E+02  0.19691678004E+02  0.29297827581E+03  0.30946583985E+03  0.91408428415E+02 0.  0.
         23    2    1    2    0    0  0.47636501912E+02 -0.43560926314E+02  0.18744425589E+03  0.21579370203E+03  0.85233691435E+02 0.  0.
        -11    1    3    3    0    0 -0.15280395892E+02 -0.36736122978E+02  0.12855334894E+03  0.13456967249E+03  0.00000000000E+00 0.  1.
         11    1    3    3    0    0 -0.19209790637E+02  0.56427800981E+02  0.16442492687E+03  0.17489616736E+03  0.00000000000E+00 0. -1.
        -11    1    4    4    0    0 -0.20299813480E+02 -0.24691433298E+02  0.32621776135E+02  0.45671978103E+02  0.00000000000E+00 0. -1.
         11    1    4    4    0    0  0.67936315392E+02 -0.18869493016E+02  0.15482247976E+03  0.17012172393E+03  0.00000000000E+00 0.  1.
          2    1    1    2  501    0 -0.13146315382E+02  0.23869248310E+02  0.10045248529E+03  0.10408298816E+03  0.00000000000E+00 0. -1.
<scales pt_clust_5="13000.00000" pt_clust_6="13000.00000" pt_clust_7="13000.00000" pt_clust_8="13000.00000" pt_clust_9="27.25009"></scales>
<clustering>
<clus scale="   27.250">  2  9  1 -1</clus>
<clus scale="   85.234">  7  8 -1 -1</clus>
<clus scale="   91.408">  5  6 -1 -1</clus>
<clus scale="   98.090">  2  7  1 -1</clus>
<clus scale="   27.250">  2  5  1 -1</clus>
</clustering>
</event>
<event>
 9    1  0.1636528E-005  0.1070282E+03  0.7546771E-02  0.1266539E+00
          2   -1    0    0  502    0 -0.00000000000E+00  0.00000000000E+00  0.25882487731E+02  0.25882487731E+02  0.00000000000E+00 0. -1.
         21   -1    0    0  501  502  0.00000000000E+00 -0.00000000000E+00 -0.96380458169E+03  0.96380458169E+03  0.00000000000E+00 0.  1.
         23    2    1    2    0    0 -0.69113136148E+02  0.43864166151E+01 -0.21435781262E+03  0.24306751336E+03  0.91305410473E+02 0.  0.
         23    2    1    2    0    0  0.28571693849E+02  0.51418896544E+02 -0.33371286881E+03  0.35071304516E+03  0.90416351539E+02 0.  0.
        -11    1    4    4    0    0  0.55675047984E+02  0.85237982765E+01 -0.19676045513E+03  0.20466324244E+03  0.00000000000E+00 0. -1.
         11    1    4    4    0    0 -0.27103354135E+02  0.42895098268E+02 -0.13695241368E+03  0.14604980271E+03  0.00000000000E+00 0.  1.
        -13    1    3    3    0    0 -0.31126106498E+02  0.12242979253E+02 -0.19827224549E+03  0.20107363919E+03  0.00000000000E+00 0.  1.
         13    1    3    3    0    0 -0.37987029650E+02 -0.78565626381E+01 -0.16085567137E+02  0.41993874175E+02  0.00000000000E+00 0. -1.
          2    1    1    2  501    0  0.40541442299E+02 -0.55805313159E+02 -0.38985141253E+03  0.39590651090E+03  0.00000000000E+00 0. -1.
<scales pt_clust_5="13000.00000" pt_clust_6="13000.00000" pt_clust_7="13000.00000" pt_clust_8="13000.00000" pt_clust_9="68.97711"></scales>
<clustering>
<clus scale="   68.977">  2  9  1 -1</clus>
<clus scale="   90.416">  5  6 -1 -1</clus>
<clus scale="   91.305">  7  8 -1 -1</clus>
<clus scale="  106.271">  2  5  1 -1</clus>
<clus scale="   68.977">  2  5  1 -1</clus>
</clustering>
</event>
<event>
 9    1  0.1636528E-005  0.1615651E+03  0.7546771E-02  0.1187049E+00
         21   -1    0    0  501  502  0.00000000000E+00  0.00000000000E+00  0.16807977354E+03  0.16807977354E+03  0.00000000000E+00 0. -1.
          3   -1    0    0  502    0 -0.00000000000E+00 -0.00000000000E+00 -0.28523106777E+03  0.28523106777E+03  0.00000000000E+00 0. -1.
         23    2    1    2    0    0  0.15795446431E+03  0.51569300261E+02 -0.10576929074E+03  0.21731530165E+03  0.91813898406E+02 0.  0.
         23    2    1    2    0    0 -0.72502598790E+02 -0.79568449825E+02 -0.29921565269E+02  0.14418220158E+03  0.91134198554E+02 0.  0.
        -11    1    4    4    0    0  0.16326866744E+02 -0.40784772048E+02 -0.59269956428E+01  0.44329374979E+02  0.00000000000E+00 0.  1.
         11    1    4    4    0    0 -0.88829465535E+02 -0.38783677776E+02 -0.23994569626E+02  0.99852826603E+02  0.00000000000E+00 0. -1.
        -13    1    3    3    0    0  0.83746022793E+01 -0.19663040794E+02 -0.25340130743E+02  0.33149530354E+02  0.00000000000E+00 0.  1.
         13    1    3    3    0    0  0.14957986203E+03  0.71232341055E+02 -0.80429159997E+02  0.18416577129E+03  0.00000000000E+00 0. -1.
          3    1    1    2  501    0 -0.85451865520E+02  0.27999149564E+02  0.18539561779E+02  0.91813338073E+02  0.00000000000E+00 0. -1.
<scales pt_clust_5="13000.00000" pt_clust_6="13000.00000" pt_clust_7="13000.00000" pt_clust_8="13000.00000" pt_clust_9="89.92204"></scales>
<clustering>
<clus scale="   89.922">  1  9  2 -1</clus>
<clus scale="   91.134">  5  6 -1 -1</clus>
<clus scale="   91.814">  7  8 -1 -1</clus>
<clus scale="  161.180">  1  5  2 -1</clus>
<clus scale="   89.922">  1  5  2 -1</clus>
</clustering>
</event>
<event>
 9    1  0.1636528E-005  0.1357921E+03  0.7546771E-02  0.1219754E+00
          1   -1    0    0  502    0 -0.00000000000E+00  0.00000000000E+00  0.14378968870E+03  0.14378968870E+03  0.00000000000E+00 0. -1.
         21   -1    0    0  501  502  0.00000000000E+00 -0.00000000000E+00 -0.30202778558E+03  0.30202778558E+03  0.00000000000E+00 0. -1.
         23    2    1    2    0    0  0.10804255180E+03 -0.30515225134E+02  0.38148714411E+02  0.14995328677E+03  0.91794835572E+02 0.  0.
         23    2    1    2    0    0 -0.77769929599E+02  0.48658054164E+01 -0.31728469853E+02  0.12649272063E+03  0.94455675110E+02 0.  0.
        -11    1    3    3    0    0 -0.10764544656E+01  0.20950042058E+02 -0.54439149680E+01  0.21672545458E+02  0.00000000000E+00 0.  1.
         11    1    3    3    0    0  0.10911900626E+03 -0.51465267192E+02  0.43592629379E+02  0.12828074131E+03  0.00000000000E+00 0. -1.
        -13    1    4    4    0    0 -0.62645828676E+02 -0.34530437521E+02 -0.42147892078E+02  0.83025874114E+02  0.00000000000E+00 0.  1.
         13    1    4    4    0    0 -0.15124100923E+02  0.39396242937E+02  0.10419422225E+02  0.43466846514E+02  0.00000000000E+00 0. -1.
          1    1    1    2  501    0 -0.30272622198E+02  0.25649419717E+02 -0.16465834144E+03  0.16937146688E+03  0.00000000000E+00 0. -1.
<scales pt_clust_5="13000.00000" pt_clust_6="13000.00000" pt_clust_7="13000.00000" pt_clust_8="13000.00000" pt_clust_9="39.67776"></scales>
<clustering>
<clus scale="   39.678">  2  9  1 -1</clus>
<clus scale="   91.795">  5  6 -1 -1</clus>
<clus scale="   94.456">  7  8 -1 -1</clus>
<clus scale="  133.955">  1  5  2 -1</clus>
<clus scale="   39.678">  2  5  1 -1</clus>
</clustering>
</event>
<event>
 9    1  0.1636528E-005  0.1181313E+03  0.7546771E-02  0.1247287E+00
          2   -1    0    0  502    0 -0.00000000000E+00  0.00000000000E+00  0.10722168149E+04  0.10722168149E+04  0.00000000000E+00 0. -1.
         21   -1    0    0  501  502  0.00000000000E+00 -0.00000000000E+00 -0.21240234058E+02  0.21240234058E+02  0.00000000000E+00 0. -1.
         23    2    1    2    0    0  0.69740345930E+02 -0.10578372083E+02  0.62633746636E+03  0.63715993192E+03  0.93265959926E+02 0.  0.
         23    2    1    2    0    0 -0.70980632790E+02  0.40323940396E+02  0.23739391342E+03  0.26669990590E+03  0.90048316364E+02 0.  0.
        -13    1    4    4    0    0 -0.19393683358E+02 -0.20861901967E+02  0.12815220348E+03  0.13127955349E+03  0.00000000000E+00 0.  1.
         13    1    4    4    0    0 -0.51586949432E+02  0.61185842362E+02  0.10924170994E+03  0.13542035241E+03  0.00000000000E+00 0. -1.
        -13    1    3    3    0    0  0.92596184872E+02 -0.40269416643E+01  0.52017277683E+03  0.52836539200E+03  0.00000000000E+00 0. -1.
         13    1    3    3    0    0 -0.22855838941E+02 -0.65514304186E+01  0.10616468953E+03  0.10879453992E+03  0.00000000000E+00 0.  1.
          2    1    1    2  501    0  0.12402868593E+01 -0.29745568313E+02  0.18724520103E+03  0.18959721109E+03  0.00000000000E+00 0. -1.
<scales pt_clust_5="13000.00000" pt_clust_6="13000.00000" pt_clust_7="13000.00000" pt_clust_8="13000.00000" pt_clust_9="29.77143"></scales>
<clustering>
<clus scale="   29.771">  2  9  1 -1</clus>
<clus scale="   90.048">  5  6 -1 -1</clus>
<clus scale="   93.266">  7  8 -1 -1</clus>
<clus scale="  115.608">  2  5  1 -1</clus>
<clus scale="   29.771">  2  5  1 -1</clus>
</clustering>
</event>
<event>
 9    1  0.1636528E-005  0.9956754E+02  0.7546771E-02  0.1281549E+00
         21   -1    0    0  501  502  0.00000000000E+00  0.00000000000E+00  0.80123662228E+02  0.80123662228E+02  0.00000000000E+00 0. -1.
         -3   -1    0    0    0  501 -0.00000000000E+00 -0.00000000000E+00 -0.20413545983E+03  0.20413545983E+03  0.00000000000E+00 0.  1.
         23    2    1    2    0    0  0.32922499257E+02  0.18119811723E+01 -0.11153211511E+03  0.14771270355E+03  0.91062922522E+02 0.  0.
         23    2    1    2    0    0 -0.53742628735E+02  0.17261387264E+02 -0.93736038574E+01  0.10814010056E+03  0.91761600167E+02 0.  0.
        -11    1    4    4    0    0 -0.44775839010E+02 -0.33213908455E+02  0.13448959909E+01  0.55766013118E+02  0.00000000000E+00 0.  1.
         11    1    4    4    0    0 -0.89667897259E+01  0.50475295719E+02 -0.10718499848E+02  0.52374087438E+02  0.00000000000E+00 0. -1.
        -13    1    3    3    0    0  0.57886923013E+02  0.47546218157E+01 -0.10759229366E+03  0.12226857298E+03  0.00000000000E+00 0.  1.
         13    1    3    3    0    0 -0.24964423757E+02 -0.29426406434E+01 -0.39398214465E+01  0.25444130570E+02  0.00000000000E+00 0. -1.
         -3    1    1    2    0  502  0.20820129479E+02 -0.19073368437E+02 -0.31060786412E+01  0.28406317951E+02  0.00000000000E+00 0.  1.
<scales pt_clust_5="13000.00000" pt_clust_6="13000.00000" pt_clust_7="13000.00000" pt_clust_8="13000.00000" pt_clust_9="28.23599"></scales>
<clustering>
<clus scale="   28.236">  1  9  2 -1</clus>
<clus scale="   91.063">  7  8 -1 -1</clus>
<clus scale="   91.762">  5  6 -1 -1</clus>
<clus scale="   98.924">  2  7  1 -1</clus>
<clus scale="   28.236">  1  5  2 -1</clus>
</clustering>
</event>
<event>
 9    1  0.1636528E-005  0.1446930E+03  0.7546771E-02  0.1207818E+00
          1   -1    0    0  502    0 -0.00000000000E+00  0.00000000000E+00  0.56357001973E+03  0.56357001973E+03  0.00000000000E+00 0. -1.
         21   -1    0    0  501  502  0.00000000000E+00 -0.00000000000E+00 -0.45287461935E+02  0.45287461935E+02  0.00000000000E+00 0.  1.
         23    2    1    2    0    0 -0.80154697532E+01  0.97820211236E+02  0.19941911575E+03  0.24185651340E+03  0.95360095763E+02 0.  0.
         23    2    1    2    0    0  0.27129252825E+02 -0.11722052719E+03  0.24308956095E+03  0.28648146741E+03  0.92208720707E+02 0.  0.
        -13    1    4    4    0    0  0.58823359648E+02 -0.61172168094E+02  0.11290227405E+03  0.14124144319E+03  0.00000000000E+00 0.  1.
         13    1    4    4    0    0 -0.31694106824E+02 -0.56048359092E+02  0.13018728690E+03  0.14524002422E+03  0.00000000000E+00 0. -1.
        -13    1    3    3    0    0 -0.46538671700E+02  0.81937308667E+02  0.15084039437E+03  0.17785498331E+03  0.00000000000E+00 0. -1.
         13    1    3    3    0    0  0.38523201947E+02  0.15882902568E+02  0.48578721384E+02  0.64001530088E+02  0.00000000000E+00 0.  1.
          1    1    1    2  501    0 -0.19113783071E+02  0.19400315950E+02  0.75773881098E+02  0.80519500861E+02  0.00000000000E+00 0. -1.
<scales pt_clust_5="13000.00000" pt_clust_6="13000.00000" pt_clust_7="13000.00000" pt_clust_8="13000.00000" pt_clust_9="27.23435"></scales>
<clustering>
<clus scale="   27.234">  2  9  1 -1</clus>
<clus scale="   92.209">  5  6 -1 -1</clus>
<clus scale="   95.360">  7  8 -1 -1</clus>
<clus scale="  142.636">  2  5  1 -1</clus>
<clus scale="   27.234">  2  5  1 -1</clus>
</clustering>
</event>
<event>
 9    1  0.1636528E-005  0.1011402E+03  0.7546771E-02  0.1278501E+00
         21   -1    0    0  501  502  0.00000000000E+00  0.00000000000E+00  0.74933222392E+02  0.74933222392E+02  0.00000000000E+00 0.  1.
          1   -1    0    0  502    0 -0.00000000000E+00 -0.00000000000E+00 -0.18154696146E+03  0.18154696146E+03  0.00000000000E+00 0. -1.
         23    2    1    2    0    0  0.29070663989E+02  0.36857449629E+01 -0.46897316542E+02  0.10695866345E+03  0.91553859386E+02 0.  0.
         23    2    1    2    0    0 -0.53539472051E+02 -0.11765569255E+02 -0.33713152480E+02  0.11291310358E+03  0.92778707811E+02 0.  0.
        -11    1    4    4    0    0  0.79685407164E+01 -0.30345812750E+02 -0.37079146236E+02  0.48571895971E+02  0.00000000000E+00 0. -1.
         11    1    4    4    0    0 -0.61508012768E+02  0.18580243495E+02  0.33659937559E+01  0.64341207612E+02  0.00000000000E+00 0.  1.
        -13    1    3    3    0    0  0.57279613607E+01 -0.23079485686E+02  0.20096115770E+02  0.31134001829E+02  0.00000000000E+00 0.  1.
         13    1    3    3    0    0  0.23342702628E+02  0.26765230649E+02 -0.66993432312E+02  0.75824661625E+02  0.00000000000E+00 0. -1.
          1    1    1    2  501    0  0.24468808062E+02  0.80798242923E+01 -0.26003270045E+02  0.36608416814E+02  0.00000000000E+00 0. -1.
<scales pt_clust_5="13000.00000" pt_clust_6="13000.00000" pt_clust_7="13000.00000" pt_clust_8="13000.00000" pt_clust_9="25.76833"></scales>
<clustering>
<clus scale="   25.768">  1  9  2 -1</clus>
<clus scale="   91.554">  7  8 -1 -1</clus>
<clus scale="   92.779">  5  6 -1 -1</clus>
<clus scale="  100.018">  2  7  1 -1</clus>
<clus scale="   25.768">  1  5  2 -1</clus>
</clustering>
</event>
<event>
 9    1  0.1636528E-005  0.1293828E+03  0.7546771E-02  0.1228623E+00
         21   -1    0    0  501  502  0.00000000000E+00  0.00000000000E+00  0.12551466633E+03  0.12551466633E+03  0.00000000000E+00 0. -1.
          2   -1    0    0  502    0 -0.00000000000E+00 -0.00000000000E+00 -0.21286890925E+03  0.21286890925E+03  0.00000000000E+00 0. -1.
         23    2    1    2    0    0 -0.15344731414E+02  0.10637401967E+03 -0.10323742271E+03  0.17471059924E+03  0.91186266484E+02 0.  0.
         23    2    1    2    0    0 -0.12727772837E+02 -0.68180357704E+02  0.42798313853E+00  0.11381633773E+03  0.90240889776E+02 0.  0.
        -11    1    4    4    0    0  0.30848889076E+02 -0.22740704581E+02  0.25518182125E+02  0.46043145212E+02  0.00000000000E+00 0.  1.
         11    1    4    4    0    0 -0.43576661913E+02 -0.45439653123E+02 -0.25090198986E+02  0.67773192522E+02  0.00000000000E+00 0. -1.
        -11    1    3    3    0    0  0.18871596238E+02  0.35974924512E+02  0.52195241568E+01  0.40958219817E+02  0.00000000000E+00 0.  1.
         11    1    3    3    0    0 -0.34216327652E+02  0.70399095159E+02 -0.10845694687E+03  0.13375237942E+03  0.00000000000E+00 0. -1.
          2    1    1    2  501    0  0.28072504251E+02 -0.38193661967E+02  0.15455196651E+02  0.49856638604E+02  0.00000000000E+00 0. -1.
<scales pt_clust_5="13000.00000" pt_clust_6="13000.00000" pt_clust_7="13000.00000" pt_clust_8="13000.00000" pt_clust_9="47.40065"></scales>
<clustering>
<clus scale="   47.401">  1  9  2 -1</clus>
<clus scale="   90.241">  5  6 -1 -1</clus>
<clus scale="   91.186">  7  8 -1 -1</clus>
<clus scale="  128.718">  1  5  2 -1</clus>
<clus scale="   47.401">  1  5  2 -1</clus>
</clustering>
</event>
<event>
 9    1  0.1636528E-005  0.1160920E+03  0.7546771E-02  0.1250001E+00
         -1   -1    0    0    0  501 -0.00000000000E+00  0.00000000000E+00  0.42854609309E+03  0.42854609309E+03  0.00000000000E+00 0.  1.
         21   -1    0    0  501  502  0.00000000000E+00 -0.00000000000E+00 -0.62927401950E+02  0.62927401950E+02  0.00000000000E+00 0.  1.
         23    2    1    2    0    0 -0.12577814552E+02  0.62697734303E+02  0.19373835776E+03  0.22354350381E+03  0.91367059284E+02 0.  0.
         23    2    1    2    0    0 -0.18302185097E+02 -0.79849355519E+02  0.19128097894E+03  0.22762940145E+03  0.92281319579E+02 0.  0.
        -11    1    3    3    0    0  0.35163172240E+02  0.24654679132E+02  0.42365828234E+02  0.60325494503E+02  0.00000000000E+00 0.  1.
         11    1    3    3    0    0 -0.47740986793E+02  0.38043055171E+02  0.15137252953E+03  0.16321800931E+03  0.00000000000E+00 0. -1.
        -13    1    4    4    0    0  0.25438516821E+02 -0.49907277179E+01  0.93121184478E+02  0.96662197884E+02  0.00000000000E+00 0.  1.
         13    1    4    4    0    0 -0.43740701919E+02 -0.74858627801E+02  0.98159794467E+02  0.13096720357E+03  0.00000000000E+00 0. -1.
         -1    1    1    2    0  502  0.30879999649E+02  0.17151621215E+02 -0.19400645560E+02  0.40300589783E+02  0.00000000000E+00 0.  1.
<scales pt_clust_5="13000.00000" pt_clust_6="13000.00000" pt_clust_7="13000.00000" pt_clust_8="13000.00000" pt_clust_9="35.32354"></scales>
<clustering>
<clus scale="   35.324">  2  9  1 -1</clus>
<clus scale="   91.367">  5  6 -1 -1</clus>
<clus scale="   92.281">  7  8 -1 -1</clus>
<clus scale="  115.367">  1  5  2 -1</clus>
<clus scale="   35.324">  2  5  1 -1</clus>
</clustering>
</event>
<event>
 9    1  0.1636528E-005  0.1085297E+03  0.7546771E-02  0.1263950E+00
         21   -1    0    0  501  502  0.00000000000E+00  0.00000000000E+00  0.14498208295E+03  0.14498208295E+03  0.00000000000E+00 0. -1.
          2   -1    0    0  502    0 -0.00000000000E+00 -0.00000000000E+00 -0.12296841200E+03  0.12296841200E+03  0.00000000000E+00 0. -1.
         23    2    1    2    0    0 -0.12732749341E+02  0.55563824210E+02 -0.25893813952E+02  0.10981046792E+03  0.90213013454E+02 0.  0.
         23    2    1    2    0    0  0.48468397666E+02 -0.45817572165E+02  0.39608933602E+02  0.12018094454E+03  0.91794097404E+02 0.  0.
        -11    1    4    4    0    0  0.14793143539E+01 -0.42047951319E+02  0.56201828284E+02  0.70205869295E+02  0.00000000000E+00 0.  1.
         11    1    4    4    0    0  0.46989083312E+02 -0.37696208462E+01 -0.16592894682E+02  0.49975075245E+02  0.00000000000E+00 0. -1.
        -13    1    3    3    0    0 -0.45298353910E+02  0.22360854373E+02  0.94548532200E+01  0.51393996970E+02  0.00000000000E+00 0.  1.
         13    1    3    3    0    0  0.32565604569E+02  0.33202969837E+02 -0.35348667172E+02  0.58416470946E+02  0.00000000000E+00 0. -1.
          2    1    1    2  501    0 -0.35735648325E+02 -0.97462520445E+01  0.82985513002E+01  0.37959082495E+02  0.00000000000E+00 0. -1.
<scales pt_clust_5="13000.00000" pt_clust_6="13000.00000" pt_clust_7="13000.00000" pt_clust_8="13000.00000" pt_clust_9="37.04087"></scales>
<clustering>
<clus scale="   37.041">  1  9  2 -1</clus>
<clus scale="   90.213">  7  8 -1 -1</clus>
<clus scale="   91.794">  5  6 -1 -1</clus>
<clus scale="  107.196">  2  7  1 -1</clus>
<clus scale="   37.041">  1  5  2 -1</clus>
</clustering>
</event>
<event>
 9    1  0.1636528E-005  0.9908524E+02  0.7546771E-02  0.1282744E+00
         21   -1    0    0  501  502  0.00000000000E+00  0.00000000000E+00  0.94031957748E+02  0.94031957748E+02  0.00000000000E+00 0.  1.
          2   -1    0    0  502    0 -0.00000000000E+00 -0.00000000000E+00 -0.51691974840E+03  0.51691974840E+03  0.00000000000E+00 0. -1.
         23    2    1    2    0    0  0.55229597888E+01 -0.32722828876E+02 -0.39090159578E+03  0.40257914357E+03  0.90358301463E+02 0.  0.
         23    2    1    2    0    0 -0.28359704585E+02  0.56837444476E+02 -0.88919477020E+02  0.14246027075E+03  0.91397414675E+02 0.  0.
        -11    1    3    3    0    0 -0.32671801623E+02  0.64480643397E+01 -0.76228118258E+02  0.83185035723E+02  0.00000000000E+00 0.  1.
         11    1    3    3    0    0  0.38194761412E+02 -0.39170893215E+02 -0.31467347752E+03  0.31939410785E+03  0.00000000000E+00 0. -1.
        -11    1    4    4    0    0 -0.33189574610E+02  0.34969868341E+02  0.25591829557E+01  0.48280316610E+02  0.00000000000E+00 0.  1.
         11    1    4    4    0    0  0.48298700249E+01  0.21867576136E+02 -0.91478659976E+02  0.94179954138E+02  0.00000000000E+00 0. -1.
          2    1    1    2  501    0  0.22836744796E+02 -0.24114615601E+02  0.56933282144E+02  0.65912291829E+02  0.00000000000E+00 0. -1.
<scales pt_clust_5="13000.00000" pt_clust_6="13000.00000" pt_clust_7="13000.00000" pt_clust_8="13000.00000" pt_clust_9="33.21192"></scales>
<clustering>
<clus scale="   33.212">  1  9  2 -1</clus>
<clus scale="   90.358">  5  6 -1 -1</clus>
<clus scale="   91.397">  7  8 -1 -1</clus>
<clus scale="   98.128">  2  5  1 -1</clus>
<clus scale="   33.212">  1  5  2 -1</clus>
</clustering>
</event>
<event>
 9    1  0.1636528E-005  0.1435247E+03  0.7546771E-02  0.1208865E+00
         21   -1    0    0  501  502  0.00000000000E+00  0.00000000000E+00  0.43600032852E+03  0.43600032852E+03  0.00000000000E+00 0.  1.
          3   -1    0    0  502    0 -0.00000000000E+00 -0.00000000000E+00 -0.10377198251E+03  0.10377198251E+03  0.00000000000E+00 0. -1.
         23    2    1    2    0    0 -0.12780671113E+03  0.24786405924E+02  0.16402385320E+02  0.15903906765E+03  0.89863593664E+02 0.  0.
         23    2    1    2    0    0  0.66730869131E+02 -0.55308928124E+02  0.12132665313E+03  0.17459769699E+03  0.90841139420E+02 0.  0.
        -11    1    4    4    0    0 -0.19108153659E+01 -0.53794813750E+02  0.34625592613E+02  0.64003631659E+02  0.00000000000E+00 0. -1.
         11    1    4    4    0    0  0.68641684497E+02 -0.15141143747E+01  0.86701060515E+02  0.11059406534E+03  0.00000000000E+00 0.  1.
        -13    1    3    3    0    0 -0.17177776301E+02  0.39342841489E+02  0.20085513347E+02  0.47395812279E+02  0.00000000000E+00 0.  1.
         13    1    3    3    0    0 -0.11062893483E+03 -0.14556435566E+02 -0.36831280275E+01  0.11164325537E+03  0.00000000000E+00 0. -1.
          3    1    1    2  501    0  0.61075842000E+02  0.30522522201E+02  0.19449930756E+03  0.20613554638E+03  0.00000000000E+00 0. -1.
<scales pt_clust_5="13000.00000" pt_clust_6="13000.00000" pt_clust_7="13000.00000" pt_clust_8="13000.00000" pt_clust_9="68.27798"></scales>
<clustering>
<clus scale="   68.278">  1  9  2 -1</clus>
<clus scale="   89.864">  7  8 -1 -1</clus>
<clus scale="   90.841">  5  6 -1 -1</clus>
<clus scale="  142.908">  2  7  1 -1</clus>
<clus scale="   68.278">  1  5  2 -1</clus>
</clustering>
</event>
<event>
 9    1  0.1636528E-005  0.9623522E+02  0.7546771E-02  0.1289049E+00
          3   -1    0    0  502    0 -0.00000000000E+00  0.00000000000E+00  0.41200783325E+02  0.41200783325E+02  0.00000000000E+00 0. -1.
         21   -1    0    0  501  502  0.00000000000E+00 -0.00000000000E+00 -0.48325403201E+03  0.48325403201E+03  0.00000000000E+00 0.  1.
         23    2    1    2    0    0 -0.16275239633E+02 -0.44352812438E+01 -0.78624722666E+02  0.12273816801E+03  0.92726779990E+02 0.  0.
         23    2    1    2    0    0  0.34149627518E+02 -0.36167018772E+02 -0.14336958586E+03  0.17723061735E+03  0.91551096505E+02 0.  0.
        -11    1    3    3    0    0 -0.49376233932E+01  0.34681388988E+02 -0.73843959590E+02  0.81731935220E+02  0.00000000000E+00 0.  1.
         11    1    3    3    0    0 -0.11337616240E+02 -0.39116670232E+02 -0.47807630760E+01  0.41006232790E+02  0.00000000000E+00 0. -1.
        -13    1    4    4    0    0 -0.21444588480E+02  0.78947414090E+01 -0.76637978624E+01  0.24102512622E+02  0.00000000000E+00 0. -1.
         13    1    4    4    0    0  0.55594215999E+02 -0.44061760181E+02 -0.13570578800E+03  0.15312810473E+03  0.00000000000E+00 0.  1.
          3    1    1    2  501    0 -0.17874387885E+02  0.40602300016E+02 -0.22005894016E+03  0.22448602997E+03  0.00000000000E+00 0. -1.
<scales pt_clust_5="13000.00000" pt_clust_6="13000.00000" pt_clust_7="13000.00000" pt_clust_8="13000.00000" pt_clust_9="44.36260"></scales>
<clustering>
<clus scale="   44.363">  2  9  1 -1</clus>
<clus scale="   91.551">  7  8 -1 -1</clus>
<clus scale="   92.727">  5  6 -1 -1</clus>
<clus scale="   95.103">  2  7  1 -1</clus>
<clus scale="   44.363">  2  5  1 -1</clus>
</clustering>
</event>
<event>
 9    1  0.1636528E-005  0.1506655E+03  0.7546771E-02  0.1207064E+00
          2   -1    0    0  502    0 -0.00000000000E+00  0.00000000000E+00  0.58923030032E+03  0.58923030032E+03  0.00000000000E+00 0. -1.
         21   -1    0    0  501  502  0.00000000000E+00 -0.00000000000E+00 -0.10230936210E+03  0.10230936210E+03  0.00000000000E+00 0. -1.
         23    2    1    2    0    0  0.85059271292E+02 -0.46230053880E+02  0.50296418418E+03  0.52632882910E+03  0.12114771257E+03 0.  0.
         23    2    1    2    0    0 -0.45283206380E+02  0.42572308102E+02  0.18318704594E+02  0.11252062465E+03  0.91991009539E+02 0.  0.
        -11    1    4    4    0    0 -0.61394376359E+02 -0.31080683193E+01  0.23495794407E+01  0.61517884073E+02  0.00000000000E+00 0.  1.
         11    1    4    4    0    0  0.16111169979E+02  0.45680376421E+02  0.15969125153E+02  0.51002740575E+02  0.00000000000E+00 0. -1.
        -11    1    3    3    0    0  0.37742557608E+02 -0.84186687871E+02  0.34484720783E+03  0.35697548350E+03  0.00000000000E+00 0.  1.
         11    1    3    3    0    0  0.47316713683E+02  0.37956633991E+02  0.15811697635E+03  0.16935334560E+03  0.00000000000E+00 0. -1.
          2    1    1    2  501    0 -0.39776064911E+02  0.36577457783E+01 -0.34361950558E+02  0.52690208675E+02  0.00000000000E+00 0. -1.
<scales pt_clust_5="13000.00000" pt_clust_6="13000.00000" pt_clust_7="13000.00000" pt_clust_8="13000.00000" pt_clust_9="39.94389"></scales>
<clustering>
<clus scale="   39.944">  2  9  1 -1</clus>
<clus scale="   91.991">  5  6 -1 -1</clus>
<clus scale="  121.148">  7  8 -1 -1</clus>
<clus scale="  128.397">  2  5  1 -1</clus>
<clus scale="   39.944">  2  5  1 -1</clus>
</clustering>
</event>
<event>
 9    1  0.1636528E-005  0.2153326E+03  0.7546771E-02  0.1173189E+00
         21   -1    0    0  501  502  0.00000000000E+00  0.00000000000E+00  0.22037010921E+03  0.22037010921E+03  0.00000000000E+00 0. -1.
          1   -1    0    0  502    0 -0.00000000000E+00 -0.00000000000E+00 -0.62600375184E+03  0.62600375184E+03  0.00000000000E+00 0. -1.
         23    2    1    2    0    0 -0.96738626833E+01 -0.76684351845E+01 -0.37833237695E+03  0.38958600693E+03  0.92138378703E+02 0.  0.
         23    2    1    2    0    0 -0.11907634922E+03  0.15163331749E+03 -0.11578148540E+03  0.24434667713E+03  0.95541123835E+02 0.  0.
        -11    1    4    4    0    0 -0.10224040672E+03  0.10345375920E+03 -0.36335617234E+02  0.14992017255E+03  0.00000000000E+00 0. -1.
         11    1    4    4    0    0 -0.16835942500E+02  0.48179558297E+02 -0.79445868164E+02  0.94426504573E+02  0.00000000000E+00 0.  1.
        -11    1    3    3    0    0  0.38445555427E+02 -0.38916075246E+01 -0.10208982040E+03  0.10915831059E+03  0.00000000000E+00 0.  1.
         11    1    3    3    0    0 -0.48119418111E+02 -0.37768276599E+01 -0.27624255654E+03  0.28042769633E+03  0.00000000000E+00 0. -1.
          1    1    1    2  501    0  0.12875021191E+03 -0.14396488231E+03  0.88480219714E+02  0.21244117700E+03  0.00000000000E+00 0. -1.
<scales pt_clust_5="13000.00000" pt_clust_6="13000.00000" pt_clust_7="13000.00000" pt_clust_8="13000.00000" pt_clust_9="192.97672"></scales>
<clustering>
<clus scale="   92.138">  7  8 -1 -1</clus>
<clus scale="   92.962">  2  7  1 -1</clus>
<clus scale="   95.541">  5  6 -1 -1</clus>
<clus scale="  192.977">  1  9  2 -1</clus>
<clus scale="  192.977">  1  5  2 -1</clus>
</clustering>
</event>
<event>
 9    1  0.1636528E-005  0.1299235E+03  0.7546771E-02  0.1228513E+00
          1   -1    0    0  502    0 -0.00000000000E+00  0.00000000000E+00  0.35289868038E+03  0.35289868038E+03  0.00000000000E+00 0. -1.
         21   -1    0    0  501  502  0.00000000000E+00 -0.00000000000E+00 -0.56196854716E+02  0.56196854716E+02  0.00000000000E+00 0.  1.
         23    2    1    2    0    0 -0.10155048942E+03  0.67814986635E+01  0.16978822697E+03  0.21775146355E+03  0.90714757537E+02 0.  0.
         23    2    1    2    0    0  0.81617619829E+02 -0.11283702492E+02  0.92891846095E+02  0.15165693536E+03  0.87075674917E+02 0.  0.
        -11    1    3    3    0    0 -0.57913361835E+02  0.29025392934E+02  0.15270682692E+03  0.16587888926E+03  0.00000000000E+00 0. -1.
         11    1    3    3    0    0 -0.43637127580E+02 -0.22243894270E+02  0.17081400052E+02  0.51872574290E+02  0.00000000000E+00 0.  1.
        -13    1    4    4    0    0  0.27630465282E+02 -0.41975798972E+02  0.15832604558E+02  0.52688534598E+02  0.00000000000E+00 0.  1.
         13    1    4    4    0    0  0.53987154547E+02  0.30692096479E+02  0.77059241536E+02  0.98968400758E+02  0.00000000000E+00 0. -1.
          1    1    1    2  501    0  0.19932869586E+02  0.45022038288E+01  0.34021752593E+02  0.39687136187E+02  0.00000000000E+00 0. -1.
<scales pt_clust_5="13000.00000" pt_clust_6="13000.00000" pt_clust_7="13000.00000" pt_clust_8="13000.00000" pt_clust_9="20.43501"></scales>
<clustering>
<clus scale="   20.435">  2  9  1 -1</clus>
<clus scale="   87.076">  7  8 -1 -1</clus>
<clus scale="   90.715">  5  6 -1 -1</clus>
<clus scale="  127.409">  2  7  1 -1</clus>
<clus scale="   20.435">  2  5  1 -1</clus>
</clustering>
</event>
<event>
 9    1  0.1636528E-005  0.1310315E+03  0.7546771E-02  0.1228807E+00
          1   -1    0    0  502    0 -0.00000000000E+00  0.00000000000E+00  0.94769729394E+03  0.94769729394E+03  0.00000000000E+00 0. -1.
         21   -1    0    0  501  502  0.00000000000E+00 -0.00000000000E+00 -0.31186054983E+02  0.31186054983E+02  0.00000000000E+00 0. -1.
         23    2    1    2    0    0 -0.66884995064E+02  0.61387421415E+02  0.67457411525E+03  0.68807698537E+03  0.10078533008E+03 0.  0.
         23    2    1    2    0    0  0.41287806647E+02 -0.57824148224E+02  0.23831635564E+03  0.26470994747E+03  0.90710285132E+02 0.  0.
        -11    1    4    4    0    0 -0.26009436096E+02 -0.67401117193E+01  0.91010990922E+02  0.94894258734E+02  0.00000000000E+00 0.  1.
         11    1    4    4    0    0  0.67297242743E+02 -0.51084036504E+02  0.14730536472E+03  0.16981568874E+03  0.00000000000E+00 0. -1.
        -13    1    3    3    0    0  0.16308585472E+02  0.45432072789E+02  0.18309026634E+03  0.18934647825E+03  0.00000000000E+00 0.  1.
         13    1    3    3    0    0 -0.83193580536E+02  0.15955348626E+02  0.49148384891E+03  0.49873050712E+03  0.00000000000E+00 0. -1.
          1    1    1    2  501    0  0.25597188418E+02 -0.35632731914E+01  0.36207680626E+01  0.26096416077E+02  0.00000000000E+00 0. -1.
<scales pt_clust_5="13000.00000" pt_clust_6="13000.00000" pt_clust_7="13000.00000" pt_clust_8="13000.00000" pt_clust_9="25.84401"></scales>
<clustering>
<clus scale="   25.844">  2  9  1 -1</clus>
<clus scale="   90.710">  5  6 -1 -1</clus>
<clus scale="  100.785">  7  8 -1 -1</clus>
<clus scale="  123.450">  2  5  1 -1</clus>
<clus scale="   25.844">  2  5  1 -1</clus>
</clustering>
</event>
<event>
 9    1  0.1636528E-005  0.1079448E+03  0.7546771E-02  0.1264450E+00
         -1   -1    0    0    0  501 -0.00000000000E+00  0.00000000000E+00  0.23875790008E+03  0.23875790008E+03  0.00000000000E+00 0.  1.
         21   -1    0    0  501  502  0.00000000000E+00 -0.00000000000E+00 -0.12865886148E+03  0.12865886148E+03  0.00000000000E+00 0.  1.
         23    2    1    2    0    0 -0.47770352984E+02 -0.32695008753E+02  0.16792643375E+03  0.19928416806E+03  0.90354425839E+02 0.  0.
         23    2    1    2    0    0  0.73040561350E+02  0.66837778741E+01 -0.61516233903E+02  0.13168022603E+03  0.90420342873E+02 0.  0.
        -11    1    3    3    0    0 -0.50069855971E+02 -0.76575696428E+01  0.16657408638E+03  0.17410501171E+03  0.00000000000E+00 0.  1.
         11    1    3    3    0    0  0.22995029875E+01 -0.25037439110E+02  0.13523473654E+01  0.25179156352E+02  0.00000000000E+00 0. -1.
        -13    1    4    4    0    0  0.91673455368E+02 -0.83525040967E+01 -0.53277867642E+02  0.10635938099E+03  0.00000000000E+00 0.  1.
         13    1    4    4    0    0 -0.18632894019E+02  0.15036281971E+02 -0.82383662610E+01  0.25320845043E+02  0.00000000000E+00 0. -1.
         -1    1    1    2    0  502 -0.25270208366E+02  0.26011230879E+02  0.36888387622E+01  0.36452367469E+02  0.00000000000E+00 0.  1.
<scales pt_clust_5="13000.00000" pt_clust_6="13000.00000" pt_clust_7="13000.00000" pt_clust_8="13000.00000" pt_clust_9="36.26524"></scales>
<clustering>
<clus scale="   36.265">  2  9  1 -1</clus>
<clus scale="   90.354">  5  6 -1 -1</clus>
<clus scale="   90.420">  7  8 -1 -1</clus>
<clus scale="  107.890">  1  5  2 -1</clus>
<clus scale="   36.265">  2  5  1 -1</clus>
</clustering>
</event>
<event>
 9    1  0.1636528E-005  0.1329135E+03  0.7546771E-02  0.1223953E+00
          1   -1    0    0  502    0 -0.00000000000E+00  0.00000000000E+00  0.29052023817E+03  0.29052023817E+03  0.00000000000E+00 0. -1.
         21   -1    0    0  501  502  0.00000000000E+00 -0.00000000000E+00 -0.89267482509E+02  0.89267482509E+02  0.00000000000E+00 0.  1.
         23    2    1    2    0    0  0.88814758930E+02 -0.18962947747E+02  0.16677965869E+03  0.21083086536E+03  0.91578078414E+02 0.  0.
         23    2    1    2    0    0 -0.10526144222E+03  0.30499150554E+02  0.42760368155E+02  0.14722539817E+03  0.88525134174E+02 0.  0.
        -11    1    4    4    0    0 -0.17883442219E+02  0.32222785407E+02  0.47002643531E+02  0.59727497050E+02  0.00000000000E+00 0. -1.
         11    1    4    4    0    0 -0.87377999998E+02 -0.17236348525E+01 -0.42422753758E+01  0.87497901124E+02  0.00000000000E+00 0.  1.
        -13    1    3    3    0    0  0.62198205809E+02 -0.34644898001E+01  0.16883654120E+03  0.17996221031E+03  0.00000000000E+00 0. -1.
         13    1    3    3    0    0  0.26616553121E+02 -0.15498457947E+02 -0.20568825158E+01  0.30868655048E+02  0.00000000000E+00 0.  1.
          1    1    1    2  501    0  0.16446683287E+02 -0.11536202807E+02 -0.82872711750E+01  0.21731457150E+02  0.00000000000E+00 0. -1.
<scales pt_clust_5="13000.00000" pt_clust_6="13000.00000" pt_clust_7="13000.00000" pt_clust_8="13000.00000" pt_clust_9="20.08924"></scales>
<clustering>
<clus scale="   20.089">  2  9  1 -1</clus>
<clus scale="   88.525">  5  6 -1 -1</clus>
<clus scale="   91.578">  7  8 -1 -1</clus>
<clus scale="  130.829">  2  5  1 -1</clus>
<clus scale="   20.089">  2  5  1 -1</clus>
</clustering>
</event>
<event>
 9    1  0.1636528E-005  0.1234711E+03  0.7546771E-02  0.1238142E+00
         -2   -1    0    0    0  501 -0.00000000000E+00  0.00000000000E+00  0.75764661791E+02  0.75764661791E+02  0.00000000000E+00 0.  1.
         21   -1    0    0  501  502  0.00000000000E+00 -0.00000000000E+00 -0.53166659932E+03  0.53166659932E+03  0.00000000000E+00 0.  1.
         23    2    1    2    0    0 -0.10972906083E+00 -0.10657892554E+03 -0.43790344057E+02  0.14589819375E+03  0.89496420586E+02 0.  0.
         23    2    1    2    0    0 -0.18039359945E+02  0.56199325870E+02 -0.10118850023E+03  0.14603241220E+03  0.87192718145E+02 0.  0.
        -13    1    4    4    0    0 -0.33932643227E+02  0.73996055726E+02 -0.79595198762E+02  0.11385181687E+03  0.00000000000E+00 0.  1.
         13    1    4    4    0    0  0.15893283282E+02 -0.17796729856E+02 -0.21593301467E+02  0.32180595322E+02  0.00000000000E+00 0. -1.
        -13    1    3    3    0    0  0.19050725781E+02 -0.10038717239E+03 -0.61349287256E+02  0.11918158238E+03  0.00000000000E+00 0.  1.
         13    1    3    3    0    0 -0.19160454842E+02 -0.61917531564E+01  0.17558943199E+02  0.26716611371E+02  0.00000000000E+00 0. -1.
         -2    1    1    2    0  502  0.18149089006E+02  0.50379599673E+02 -0.31092309324E+03  0.31550065516E+03  0.00000000000E+00 0.  1.
<scales pt_clust_5="13000.00000" pt_clust_6="13000.00000" pt_clust_7="13000.00000" pt_clust_8="13000.00000" pt_clust_9="53.54898"></scales>
<clustering>
<clus scale="   53.549">  2  9  1 -1</clus>
<clus scale="   87.193">  5  6 -1 -1</clus>
<clus scale="   89.496">  7  8 -1 -1</clus>
<clus scale="  121.812">  2  5  1 -1</clus>
<clus scale="   53.549">  2  5  1 -1</clus>
</clustering>
</event>
<event>
 9    1  0.1636528E-005  0.1252933E+03  0.7546771E-02  0.1248893E+00
         21   -1    0    0  501  502  0.00000000000E+00  0.00000000000E+00  0.27688856256E+03  0.27688856256E+03  0.00000000000E+00 0.  1.
         -3   -1    0    0    0  501 -0.00000000000E+00 -0.00000000000E+00 -0.87769248269E+02  0.87769248269E+02  0.00000000000E+00 0.  1.
         23    2    1    2    0    0  0.31657159536E+02  0.10905652543E+02  0.63103702807E+02  0.11307224961E+03  0.87647859738E+02 0.  0.
         23    2    1    2    0    0  0.20989096003E+02  0.69403034754E+02  0.38561025694E+02  0.12170323735E+03  0.89818716840E+02 0.  0.
        -13    1    4    4    0    0 -0.72501328938E+01  0.82418229240E+02  0.18750937583E+02  0.84834701616E+02  0.00000000000E+00 0.  1.
         13    1    4    4    0    0  0.28239228897E+02 -0.13015194486E+02  0.19810088111E+02  0.36868535734E+02  0.00000000000E+00 0. -1.
        -13    1    3    3    0    0  0.47343375607E+02  0.37204645002E+02  0.27746907882E+02  0.66298353830E+02  0.00000000000E+00 0.  1.
         13    1    3    3    0    0 -0.15686216071E+02 -0.26298992460E+02  0.35356794926E+02  0.46773895780E+02  0.00000000000E+00 0. -1.
         -3    1    1    2    0  502 -0.52646255539E+02 -0.80308687297E+02  0.87454585790E+02  0.12988232387E+03  0.00000000000E+00 0.  1.
<scales pt_clust_5="13000.00000" pt_clust_6="13000.00000" pt_clust_7="13000.00000" pt_clust_8="13000.00000" pt_clust_9="87.35566"></scales>
<clustering>
<clus scale="   87.648">  7  8 -1 -1</clus>
<clus scale="   89.819">  5  6 -1 -1</clus>
<clus scale="   93.826">  2  7  1 -1</clus>
<clus scale="   87.356">  1  9  2 -1</clus>
<clus scale="   87.356">  1  5  2 -1</clus>
</clustering>
</event>
<event>
 9    1  0.1636528E-005  0.9663924E+02  0.7546771E-02  0.1288737E+00
         21   -1    0    0  501  502  0.00000000000E+00  0.00000000000E+00  0.22277058224E+03  0.22277058224E+03  0.00000000000E+00 0.  1.
         -1   -1    0    0    0  501 -0.00000000000E+00 -0.00000000000E+00 -0.10331208566E+03  0.10331208566E+03  0.00000000000E+00 0.  1.
         23    2    1    2    0    0  0.30545782739E+01 -0.13132761894E+02 -0.89911790392E+01  0.94613794009E+02  0.93215496742E+02 0.  0.
         23    2    1    2    0    0  0.53947352511E+02  0.53194907476E+02  0.10416992443E+03  0.15768742676E+03  0.90961180614E+02 0.  0.
        -11    1    3    3    0    0 -0.16076756353E+02 -0.49493850978E+02  0.20143617887E+01  0.52078412350E+02  0.00000000000E+00 0.  1.
         11    1    3    3    0    0  0.19131334627E+02  0.36361089084E+02 -0.11005540828E+02  0.42535381659E+02  0.00000000000E+00 0. -1.
        -13    1    4    4    0    0  0.26433965824E+02  0.57601981375E+02  0.16207687468E+02  0.65417367270E+02  0.00000000000E+00 0.  1.
         13    1    4    4    0    0  0.27513386688E+02 -0.44070738993E+01  0.87962236960E+02  0.92270059491E+02  0.00000000000E+00 0. -1.
         -1    1    1    2    0  502 -0.57001930785E+02 -0.40062145581E+02  0.24279751194E+02  0.73781447125E+02  0.00000000000E+00 0.  1.
<scales pt_clust_5="13000.00000" pt_clust_6="13000.00000" pt_clust_7="13000.00000" pt_clust_8="13000.00000" pt_clust_9="69.67209"></scales>
<clustering>
<clus scale="   69.672">  1  9  2 -1</clus>
<clus scale="   90.961">  7  8 -1 -1</clus>
<clus scale="   93.215">  5  6 -1 -1</clus>
<clus scale="   94.467">  1  7  2 -1</clus>
<clus scale="   69.672">  1  5  2 -1</clus>
</clustering>
</event>
<event>
 9    1  0.1636528E-005  0.9254657E+02  0.7546771E-02  0.1297812E+00
         21   -1    0    0  501  502  0.00000000000E+00  0.00000000000E+00  0.24217747696E+03  0.24217747696E+03  0.00000000000E+00 0.  1.
         -3   -1    0    0    0  501 -0.00000000000E+00 -0.00000000000E+00 -0.77215323237E+02  0.77215323237E+02  0.00000000000E+00 0.  1.
         23    2    1    2    0    0 -0.10897347275E+02  0.18740715713E+02  0.39764867195E+01  0.91015808812E+02  0.88306842340E+02 0.  0.
         23    2    1    2    0    0  0.26651669787E+01 -0.37981895236E+02  0.35188240070E+02  0.10085058469E+03  0.86503761260E+02 0.  0.
        -11    1    4    4    0    0  0.38005783311E+01  0.27244715234E+02  0.18024874190E+01  0.27567514663E+02  0.00000000000E+00 0. -1.
         11    1    4    4    0    0 -0.11354113524E+01 -0.65226610469E+02  0.33385752651E+02  0.73283070025E+02  0.00000000000E+00 0.  1.
        -13    1    3    3    0    0 -0.17442870571E+02  0.49683029437E+02  0.19029623447E+02  0.55989139271E+02  0.00000000000E+00 0. -1.
         13    1    3    3    0    0  0.65455232956E+01 -0.30942313724E+02 -0.15053136728E+02  0.35026669541E+02  0.00000000000E+00 0.  1.
         -3    1    1    2    0  502  0.82321802966E+01  0.19241179523E+02  0.12579742693E+03  0.12752640669E+03  0.00000000000E+00 0.  1.
<scales pt_clust_5="13000.00000" pt_clust_6="13000.00000" pt_clust_7="13000.00000" pt_clust_8="13000.00000" pt_clust_9="20.92825"></scales>
<clustering>
<clus scale="   20.928">  1  9  2 -1</clus>
<clus scale="   86.504">  5  6 -1 -1</clus>
<clus scale="   88.307">  7  8 -1 -1</clus>
<clus scale="   90.828">  1  5  2 -1</clus>
<clus scale="   20.928">  1  5  2 -1</clus>
</clustering>
</event>
<event>
 9    1  0.1636528E-005  0.1550248E+03  0.7546771E-02  0.1194977E+00
         21   -1    0    0  501  502  0.00000000000E+00  0.00000000000E+00  0.11086288634E+03  0.11086288634E+03  0.00000000000E+00 0.  1.
          2   -1    0    0  502    0 -0.00000000000E+00 -0.00000000000E+00 -0.31922100465E+03  0.31922100465E+03  0.00000000000E+00 0. -1.
         23    2    1    2    0    0  0.10573345418E+03  0.64051156228E+02 -0.18717496027E+03  0.24277168818E+03  0.92852102191E+02 0.  0.
         23    2    1    2    0    0 -0.92774359935E+02 -0.87098395651E+02 -0.31610605537E+02  0.15888958806E+03  0.89741063196E+02 0.  0.
        -13    1    4    4    0    0 -0.29095091802E+02 -0.87078366463E+02 -0.14470073510E+02  0.92943796459E+02  0.00000000000E+00 0.  1.
         13    1    4    4    0    0 -0.63679268133E+02 -0.20029188395E-01 -0.17140532027E+02  0.65945791596E+02  0.00000000000E+00 0. -1.
        -13    1    3    3    0    0  0.34939836539E+02  0.66929420516E+02 -0.13536761532E+03  0.15499913156E+03  0.00000000000E+00 0. -1.
         13    1    3    3    0    0  0.70793617637E+02 -0.28782642878E+01 -0.51807344952E+02  0.87772556614E+02  0.00000000000E+00 0.  1.
          2    1    1    2  501    0 -0.12959094241E+02  0.23047239423E+02  0.10427447501E+02  0.28422614762E+02  0.00000000000E+00 0. -1.
<scales pt_clust_5="13000.00000" pt_clust_6="13000.00000" pt_clust_7="13000.00000" pt_clust_8="13000.00000" pt_clust_9="26.44075"></scales>
<clustering>
<clus scale="   26.441">  1  9  2 -1</clus>
<clus scale="   89.741">  5  6 -1 -1</clus>
<clus scale="   92.852">  7  8 -1 -1</clus>
<clus scale="  153.182">  1  5  2 -1</clus>
<clus scale="   26.441">  1  5  2 -1</clus>
</clustering>
</event>
<event>
 9    1  0.1636528E-005  0.1030144E+03  0.7546771E-02  0.1274616E+00
          1   -1    0    0  502    0 -0.00000000000E+00  0.00000000000E+00  0.54513610209E+03  0.54513610209E+03  0.00000000000E+00 0. -1.
         21   -1    0    0  501  502  0.00000000000E+00 -0.00000000000E+00 -0.27665522192E+02  0.27665522192E+02  0.00000000000E+00 0.  1.
         23    2    1    2    0    0 -0.43835526267E+02  0.39846448224E+00  0.26614112889E+03  0.28404730157E+03  0.89050866975E+02 0.  0.
         23    2    1    2    0    0  0.55320606808E+02 -0.30323241715E+02  0.19531054265E+03  0.22421350260E+03  0.90253078331E+02 0.  0.
        -11    1    4    4    0    0  0.61238593061E+02  0.16080213172E+02  0.11010691417E+03  0.12701287763E+03  0.00000000000E+00 0. -1.
         11    1    4    4    0    0 -0.59179862529E+01 -0.46403454887E+02  0.85203628485E+02  0.97200624966E+02  0.00000000000E+00 0.  1.
        -13    1    3    3    0    0 -0.59158417781E+02  0.23687404088E+02  0.22842150745E+03  0.23714383098E+03  0.00000000000E+00 0. -1.
         13    1    3    3    0    0  0.15322891515E+02 -0.23288939606E+02  0.37719621443E+02  0.46903470598E+02  0.00000000000E+00 0.  1.
          1    1    1    2  501    0 -0.11485080541E+02  0.29924777233E+02  0.56018908360E+02  0.64540820116E+02  0.00000000000E+00 0. -1.
<scales pt_clust_5="13000.00000" pt_clust_6="13000.00000" pt_clust_7="13000.00000" pt_clust_8="13000.00000" pt_clust_9="32.05307"></scales>
<clustering>
<clus scale="   32.053">  2  9  1 -1</clus>
<clus scale="   89.051">  7  8 -1 -1</clus>
<clus scale="   90.253">  5  6 -1 -1</clus>
<clus scale="  101.963">  1  7  2 -1</clus>
<clus scale="   32.053">  2  5  1 -1</clus>
</clustering>
</event>
<event>
 9    1  0.1636528E-005  0.9276497E+02  0.7546771E-02  0.1297356E+00
         21   -1    0    0  501  502  0.00000000000E+00  0.00000000000E+00  0.23851855443E+03  0.23851855443E+03  0.00000000000E+00 0. -1.
          1   -1    0    0  502    0 -0.00000000000E+00 -0.00000000000E+00 -0.44160319830E+03  0.44160319830E+03  0.00000000000E+00 0. -1.
         23    2    1    2    0    0  0.73707893300E+01 -0.11101196899E+02 -0.36977087635E+03  0.38115546141E+03  0.91495462492E+02 0.  0.
         23    2    1    2    0    0  0.49900133734E+02  0.56551718565E+02  0.22992477841E+00  0.11716032077E+03  0.89656944400E+02 0.  0.
        -11    1    3    3    0    0 -0.21853673691E+01 -0.48002871953E+02 -0.27208420102E+03  0.27629488593E+03  0.00000000000E+00 0. -1.
         11    1    3    3    0    0  0.95561566991E+01  0.36901675054E+02 -0.97686675333E+02  0.10486057548E+03  0.00000000000E+00 0.  1.
        -13    1    4    4    0    0  0.72606758942E+02  0.38763170791E+02  0.16643987609E+02  0.83972300060E+02  0.00000000000E+00 0. -1.
         13    1    4    4    0    0 -0.22706625209E+02  0.17788547774E+02 -0.16414062830E+02  0.33188020713E+02  0.00000000000E+00 0.  1.
          1    1    1    2  501    0 -0.57270923064E+02 -0.45450521666E+02  0.16645630771E+03  0.18180597054E+03  0.00000000000E+00 0. -1.
<scales pt_clust_5="13000.00000" pt_clust_6="13000.00000" pt_clust_7="13000.00000" pt_clust_8="13000.00000" pt_clust_9="73.11435"></scales>
<clustering>
<clus scale="   73.114">  1  9  2 -1</clus>
<clus scale="   89.657">  7  8 -1 -1</clus>
<clus scale="   90.952">  1  7  2 -1</clus>
<clus scale="   91.495">  5  6 -1 -1</clus>
<clus scale="   73.114">  1  5  2 -1</clus>
</clustering>
</event>
<event>
 9    1  0.1636528E-005  0.1202816E+03  0.7546771E-02  0.1242877E+00
         21   -1    0    0  501  502  0.00000000000E+00  0.00000000000E+00  0.50994915142E+02  0.50994915142E+02  0.00000000000E+00 0. -1.
         -1   -1    0    0    0  501 -0.00000000000E+00 -0.00000000000E+00 -0.61458362728E+03  0.61458362728E+03  0.00000000000E+00 0.  1.
         23    2    1    2    0    0 -0.10288113155E+03 -0.23320499903E+02 -0.39951999218E+03  0.42308954191E+03  0.90885440974E+02 0.  0.
         23    2    1    2    0    0  0.40544312070E+02  0.17395433520E+02 -0.14631007072E+03  0.17740171222E+03  0.90101544685E+02 0.  0.
        -11    1    3    3    0    0 -0.37898253119E+01  0.26180786537E+02 -0.10914034213E+03  0.11230053713E+03  0.00000000000E+00 0.  1.
         11    1    3    3    0    0 -0.99091306239E+02 -0.49501286440E+02 -0.29037965005E+03  0.31078900478E+03  0.00000000000E+00 0. -1.
        -13    1    4    4    0    0  0.62125046298E+02 -0.15404045040E+01 -0.13070042180E+03  0.14472212852E+03  0.00000000000E+00 0.  1.
         13    1    4    4    0    0 -0.21580734228E+02  0.18935838024E+02 -0.15609648924E+02  0.32679583703E+02  0.00000000000E+00 0. -1.
         -1    1    1    2    0  502  0.62336819481E+02  0.59250663826E+01 -0.17758649241E+02  0.65087288294E+02  0.00000000000E+00 0.  1.
<scales pt_clust_5="13000.00000" pt_clust_6="13000.00000" pt_clust_7="13000.00000" pt_clust_8="13000.00000" pt_clust_9="62.61777"></scales>
<clustering>
<clus scale="   62.618">  1  9  2 -1</clus>
<clus scale="   90.102">  7  8 -1 -1</clus>
<clus scale="   90.885">  5  6 -1 -1</clus>
<clus scale="  119.690">  1  7  2 -1</clus>
<clus scale="   62.618">  1  5  2 -1</clus>
</clustering>
</event>
<event>
 9    1  0.1636528E-005  0.1083264E+03  0.7546771E-02  0.1269700E+00
          2   -1    0    0  502    0 -0.00000000000E+00  0.00000000000E+00  0.52593105857E+03  0.52593105857E+03  0.00000000000E+00 0. -1.
         21   -1    0    0  501  502  0.00000000000E+00 -0.00000000000E+00 -0.15166096262E+03  0.15166096262E+03  0.00000000000E+00 0. -1.
         23    2    1    2    0    0 -0.27314759197E+02 -0.33502283868E+02  0.45944605641E+03  0.46950867326E+03  0.86482463106E+02 0.  0.
         23    2    1    2    0    0  0.34452382234E+02  0.35850658465E+01 -0.12124020728E+03  0.16068487226E+03  0.99602314105E+02 0.  0.
        -11    1    4    4    0    0  0.25278285869E+02 -0.38627933730E+02 -0.19424633301E+02  0.50084182929E+02  0.00000000000E+00 0.  1.
         11    1    4    4    0    0  0.91740963641E+01  0.42212999576E+02 -0.10181557397E+03  0.11060068933E+03  0.00000000000E+00 0. -1.
        -13    1    3    3    0    0  0.29807645406E+02 -0.15945100877E+02  0.11306340619E+03  0.11800879537E+03  0.00000000000E+00 0.  1.
         13    1    3    3    0    0 -0.57122404603E+02 -0.17557182991E+02  0.34638265022E+03  0.35149987789E+03  0.00000000000E+00 0. -1.
          2    1    1    2  501    0 -0.71376230365E+01  0.29917218022E+02  0.36064246821E+02  0.47398475667E+02  0.00000000000E+00 0. -1.
<scales pt_clust_5="13000.00000" pt_clust_6="13000.00000" pt_clust_7="13000.00000" pt_clust_8="13000.00000" pt_clust_9="30.75689"></scales>
<clustering>
<clus scale="   30.757">  2  9  1 -1</clus>
<clus scale="   86.482">  7  8 -1 -1</clus>
<clus scale="   96.401">  1  7  2 -1</clus>
<clus scale="   99.602">  5  6 -1 -1</clus>
<clus scale="   30.757">  2  5  1 -1</clus>
</clustering>
</event>
<event>
 9    1  0.1636528E-005  0.9933081E+02  0.7546771E-02  0.1285491E+00
         21   -1    0    0  501  502  0.00000000000E+00  0.00000000000E+00  0.45993846552E+03  0.45993846552E+03  0.00000000000E+00 0.  1.
         -2   -1    0    0    0  501 -0.00000000000E+00 -0.00000000000E+00 -0.21079728475E+03  0.21079728475E+03  0.00000000000E+00 0.  1.
         23    2    1    2    0    0 -0.25295303594E+02  0.16920152830E+02 -0.14442171814E+03  0.16975031502E+03  0.83853400787E+02 0.  0.
         23    2    1    2    0    0  0.90035142329E+02 -0.76092095511E+02  0.68176348181E+02  0.16398547543E+03  0.91361303879E+02 0.  0.
        -11    1    3    3    0    0  0.18097136928E+02  0.17136093554E+02 -0.73649855531E+01  0.25988364310E+02  0.00000000000E+00 0.  1.
         11    1    3    3    0    0 -0.43392440523E+02 -0.21594072374E+00 -0.13705673259E+03  0.14376195071E+03  0.00000000000E+00 0. -1.
        -13    1    4    4    0    0 -0.12884761354E+02 -0.26864215761E+02 -0.23041449658E+01  0.29883310520E+02  0.00000000000E+00 0. -1.
         13    1    4    4    0    0  0.10291990368E+03 -0.49227879750E+02  0.70480493146E+02  0.13410216491E+03  0.00000000000E+00 0.  1.
         -2    1    1    2    0  502 -0.64739838735E+02  0.59171942681E+02  0.32538655073E+03  0.33699995982E+03  0.00000000000E+00 0.  1.
<scales pt_clust_5="13000.00000" pt_clust_6="13000.00000" pt_clust_7="13000.00000" pt_clust_8="13000.00000" pt_clust_9="87.70727"></scales>
<clustering>
<clus scale="   83.853">  5  6 -1 -1</clus>
<clus scale="   87.707">  1  9  2 -1</clus>
<clus scale="   91.361">  7  8 -1 -1</clus>
<clus scale="   92.472">  2  5  1 -1</clus>
<clus scale="   87.707">  1  5  2 -1</clus>
</clustering>
</event>
<event>
 9    1  0.1636528E-005  0.9456543E+02  0.7546771E-02  0.1301020E+00
         21   -1    0    0  501  502  0.00000000000E+00  0.00000000000E+00  0.12401215872E+03  0.12401215872E+03  0.00000000000E+00 0.  1.
          1   -1    0    0  502    0 -0.00000000000E+00 -0.00000000000E+00 -0.13886029047E+03  0.13886029047E+03  0.00000000000E+00 0. -1.
         23    2    1    2    0    0 -0.22339142325E+02 -0.10475113432E+02 -0.68709814676E+02  0.10452182436E+03  0.74799785118E+02 0.  0.
         23    2    1    2    0    0  0.54877378809E+02 -0.16439480857E+02  0.38478627902E+02  0.11340876683E+03  0.89995335171E+02 0.  0.
        -13    1    4    4    0    0  0.73237808025E+02  0.10333649560E+02  0.23100526209E+02  0.77486741760E+02  0.00000000000E+00 0.  1.
         13    1    4    4    0    0 -0.18360429216E+02 -0.26773130417E+02  0.15378101693E+02  0.35922025068E+02  0.00000000000E+00 0. -1.
        -13    1    3    3    0    0 -0.10494935426E+02 -0.42651291527E+02 -0.32389755785E+02  0.54574468558E+02  0.00000000000E+00 0.  1.
         13    1    3    3    0    0 -0.11844206899E+02  0.32176178096E+02 -0.36320058891E+02  0.49947355804E+02  0.00000000000E+00 0. -1.
          1    1    1    2  501    0 -0.32538236484E+02  0.26914594289E+02  0.15383055021E+02  0.44941858006E+02  0.00000000000E+00 0. -1.
<scales pt_clust_5="13000.00000" pt_clust_6="13000.00000" pt_clust_7="13000.00000" pt_clust_8="13000.00000" pt_clust_9="42.22715"></scales>
<clustering>
<clus scale="   42.227">  1  9  2 -1</clus>
<clus scale="   74.800">  7  8 -1 -1</clus>
<clus scale="   80.240">  2  7  1 -1</clus>
<clus scale="   89.995">  5  6 -1 -1</clus>
<clus scale="   42.227">  1  5  2 -1</clus>
</clustering>
</event>
<event>
 9    1  0.1636528E-005  0.1605222E+03  0.7546771E-02  0.1189109E+00
         21   -1    0    0  501  502  0.00000000000E+00  0.00000000000E+00  0.34205108077E+03  0.34205108077E+03  0.00000000000E+00 0. -1.
          1   -1    0    0  502    0 -0.00000000000E+00 -0.00000000000E+00 -0.10145518150E+03  0.10145518150E+03  0.00000000000E+00 0. -1.
         23    2    1    2    0    0 -0.82916667604E+02 -0.87306821779E+02  0.60000207393E+02  0.15838564493E+03  0.83596248345E+02 0.  0.
         23    2    1    2    0    0  0.10181337044E+03  0.11132001263E+03  0.10766353385E+03  0.20604585280E+03  0.90029713541E+02 0.  0.
        -11    1    3    3    0    0 -0.72534176587E+02 -0.17021318398E+02  0.21341624182E+02  0.77500948226E+02  0.00000000000E+00 0.  1.
         11    1    3    3    0    0 -0.10382491017E+02 -0.70285503381E+02  0.38658583212E+02  0.80884696706E+02  0.00000000000E+00 0. -1.
        -13    1    4    4    0    0  0.83102960945E+02  0.26841190111E+02  0.68881909932E+02  0.11122620698E+03  0.00000000000E+00 0. -1.
         13    1    4    4    0    0  0.18710409500E+02  0.84478822522E+02  0.38781623917E+02  0.94819645812E+02  0.00000000000E+00 0.  1.
          1    1    1    2  501    0 -0.18896702840E+02 -0.24013190853E+02  0.72932158027E+02  0.79074764544E+02  0.00000000000E+00 0. -1.
<scales pt_clust_5="13000.00000" pt_clust_6="13000.00000" pt_clust_7="13000.00000" pt_clust_8="13000.00000" pt_clust_9="30.55681"></scales>
<clustering>
<clus scale="   30.557">  1  9  2 -1</clus>
<clus scale="   83.596">  5  6 -1 -1</clus>
<clus scale="   90.030">  7  8 -1 -1</clus>
<clus scale="  157.004">  2  5  1 -1</clus>
<clus scale="   30.557">  1  5  2 -1</clus>
</clustering>
</event>
<event>
 9    1  0.1636528E-005  0.9850827E+02  0.7546771E-02  0.1285410E+00
         21   -1    0    0  501  502  0.00000000000E+00  0.00000000000E+00  0.80370909525E+02  0.80370909525E+02  0.00000000000E+00 0.  1.
         -1   -1    0    0    0  501 -0.00000000000E+00 -0.00000000000E+00 -0.20520318876E+03  0.20520318876E+03  0.00000000000E+00 0.  1.
         23    2    1    2    0    0  0.28985748324E+02 -0.87584426042E+00 -0.10568378314E+03  0.14358774329E+03  0.92776275499E+02 0.  0.
         23    2    1    2    0    0 -0.45465637493E+01 -0.11485992303E+02 -0.42413265557E+02  0.10605115994E+03  0.96412468947E+02 0.  0.
        -11    1    4    4    0    0  0.19447711428E+02 -0.48700656463E+02 -0.28229461183E+02  0.59555603417E+02  0.00000000000E+00 0.  1.
         11    1    4    4    0    0 -0.23994275177E+02  0.37214664160E+02 -0.14183804375E+02  0.46495556523E+02  0.00000000000E+00 0. -1.
        -13    1    3    3    0    0  0.53297854335E+02 -0.72835126812E+01 -0.10552481345E+03  0.11844491161E+03  0.00000000000E+00 0.  1.
         13    1    3    3    0    0 -0.24312106012E+02  0.64076684207E+01 -0.15896968927E+00  0.25142831676E+02  0.00000000000E+00 0. -1.
         -1    1    1    2    0  502 -0.24439184574E+02  0.12361836564E+02  0.23264769459E+02  0.35935195058E+02  0.00000000000E+00 0.  1.
<scales pt_clust_5="13000.00000" pt_clust_6="13000.00000" pt_clust_7="13000.00000" pt_clust_8="13000.00000" pt_clust_9="27.38775"></scales>
<clustering>
<clus scale="   27.388">  1  9  2 -1</clus>
<clus scale="   92.776">  7  8 -1 -1</clus>
<clus scale="   94.952">  2  7  1 -1</clus>
<clus scale="   96.412">  5  6 -1 -1</clus>
<clus scale="   27.388">  1  5  2 -1</clus>
</clustering>
</event>
<event>
 9    1  0.1636528E-005  0.9630929E+02  0.7546771E-02  0.1291229E+00
         21   -1    0    0  501  502  0.00000000000E+00  0.00000000000E+00  0.10216254102E+03  0.10216254102E+03  0.00000000000E+00 0.  1.
         -1   -1    0    0    0  501 -0.00000000000E+00 -0.00000000000E+00 -0.26575442656E+03  0.26575442656E+03  0.00000000000E+00 0.  1.
         23    2    1    2    0    0 -0.15152081007E+01  0.39392284596E+02 -0.15347207251E+03  0.18431847067E+03  0.94157175232E+02 0.  0.
         23    2    1    2    0    0  0.28193370293E+02  0.29991111837E+02 -0.36866602164E+02  0.10459741611E+03  0.88809572595E+02 0.  0.
        -11    1    4    4    0    0 -0.32201554133E+01 -0.24558371022E+02  0.93820955935E+01  0.26485971869E+02  0.00000000000E+00 0. -1.
         11    1    4    4    0    0  0.31413525707E+02  0.54549482858E+02 -0.46248697758E+02  0.78111444243E+02  0.00000000000E+00 0.  1.
        -13    1    3    3    0    0 -0.15945979500E+02  0.66926324463E+02 -0.12212397622E+03  0.14017015637E+03  0.00000000000E+00 0.  1.
         13    1    3    3    0    0  0.14430771399E+02 -0.27534039867E+02 -0.31348096290E+02  0.44148314300E+02  0.00000000000E+00 0. -1.
         -1    1    1    2    0  502 -0.26678162193E+02 -0.69383396433E+02  0.26746789134E+02  0.79001080800E+02  0.00000000000E+00 0.  1.
<scales pt_clust_5="13000.00000" pt_clust_6="13000.00000" pt_clust_7="13000.00000" pt_clust_8="13000.00000" pt_clust_9="74.33559"></scales>
<clustering>
<clus scale="   74.336">  1  9  2 -1</clus>
<clus scale="   88.810">  5  6 -1 -1</clus>
<clus scale="   91.088">  1  5  2 -1</clus>
<clus scale="   94.157">  7  8 -1 -1</clus>
<clus scale="   74.336">  1  5  2 -1</clus>
</clustering>
</event>
<event>
 9    1  0.1636528E-005  0.1122697E+03  0.7546771E-02  0.1257326E+00
          1   -1    0    0  502    0 -0.00000000000E+00  0.00000000000E+00  0.22656031545E+03  0.22656031545E+03  0.00000000000E+00 0. -1.
         21   -1    0    0  501  502  0.00000000000E+00 -0.00000000000E+00 -0.10593414405E+03  0.10593414405E+03  0.00000000000E+00 0. -1.
         23    2    1    2    0    0  0.21652936625E+01 -0.57910861206E+02  0.13423977114E+03  0.17325777709E+03  0.92949367003E+02 0.  0.
         23    2    1    2    0    0 -0.31923770475E+02  0.76882254703E+02 -0.60591894993E+01  0.12314582722E+03  0.90543761658E+02 0.  0.
        -11    1    4    4    0    0  0.18289487700E+02  0.59615672278E+02 -0.24409583976E+02  0.66965375616E+02  0.00000000000E+00 0.  1.
         11    1    4    4    0    0 -0.50213258175E+02  0.17266582424E+02  0.18350394477E+02  0.56180451605E+02  0.00000000000E+00 0. -1.
        -11    1    3    3    0    0  0.35707718922E+02 -0.34946382114E+02  0.23346191842E+02  0.55148304480E+02  0.00000000000E+00 0.  1.
         11    1    3    3    0    0 -0.33542425259E+02 -0.22964479092E+02  0.11089357930E+03  0.11810947261E+03  0.00000000000E+00 0. -1.
          1    1    1    2  501    0  0.29758476812E+02 -0.18971393497E+02 -0.75544102421E+01  0.36090855178E+02  0.00000000000E+00 0. -1.
<scales pt_clust_5="13000.00000" pt_clust_6="13000.00000" pt_clust_7="13000.00000" pt_clust_8="13000.00000" pt_clust_9="35.29137"></scales>
<clustering>
<clus scale="   35.291">  2  9  1 -1</clus>
<clus scale="   90.544">  5  6 -1 -1</clus>
<clus scale="   92.949">  7  8 -1 -1</clus>
<clus scale="  110.286">  2  5  1 -1</clus>
<clus scale="   35.291">  2  5  1 -1</clus>
</clustering>
</event>
<event>
 9    1  0.1636528E-005  0.1262466E+03  0.7546771E-02  0.1233678E+00
          3   -1    0    0  502    0 -0.00000000000E+00  0.00000000000E+00  0.86516414743E+03  0.86516414743E+03  0.00000000000E+00 0. -1.
         21   -1    0    0  501  502  0.00000000000E+00 -0.00000000000E+00 -0.31694042115E+02  0.31694042115E+02  0.00000000000E+00 0.  1.
         23    2    1    2    0    0 -0.32134224719E+02  0.58052112941E+02  0.40347203656E+03  0.41950321498E+03  0.93758236314E+02 0.  0.
         23    2    1    2    0    0  0.56094953284E+02 -0.10446685941E+03  0.36014576773E+03  0.39013233323E+03  0.91860192250E+02 0.  0.
        -11    1    4    4    0    0  0.87747268701E+01 -0.79240813468E+02  0.11998250458E+03  0.14405521079E+03  0.00000000000E+00 0.  1.
         11    1    4    4    0    0  0.47320226414E+02 -0.25226045939E+02  0.24016326315E+03  0.24607712244E+03  0.00000000000E+00 0. -1.
        -11    1    3    3    0    0 -0.29186369490E+02 -0.18779662621E+02  0.83555011799E+02  0.90476294624E+02  0.00000000000E+00 0.  1.
         11    1    3    3    0    0 -0.29478552298E+01  0.76831775563E+02  0.31991702476E+03  0.32902692036E+03  0.00000000000E+00 0. -1.
          3    1    1    2  501    0 -0.23960728565E+02  0.46414746466E+02  0.69852301021E+02  0.87222641331E+02  0.00000000000E+00 0. -1.
<scales pt_clust_5="13000.00000" pt_clust_6="13000.00000" pt_clust_7="13000.00000" pt_clust_8="13000.00000" pt_clust_9="52.23452"></scales>
<clustering>
<clus scale="   52.235">  2  9  1 -1</clus>
<clus scale="   91.860">  5  6 -1 -1</clus>
<clus scale="   93.758">  7  8 -1 -1</clus>
<clus scale="  124.843">  2  5  1 -1</clus>
<clus scale="   52.235">  2  5  1 -1</clus>
</clustering>
</event>
<event>
 9    1  0.1636528E-005  0.1177313E+03  0.7546771E-02  0.1248829E+00
         -1   -1    0    0    0  501 -0.00000000000E+00  0.00000000000E+00  0.84042332046E+03  0.84042332046E+03  0.00000000000E+00 0.  1.
         21   -1    0    0  501  502  0.00000000000E+00 -0.00000000000E+00 -0.26640745786E+02  0.26640745786E+02  0.00000000000E+00 0.  1.
         23    2    1    2    0    0  0.35457037039E+02  0.78633234820E+02  0.44059060275E+03  0.45812969861E+03  0.91226939133E+02 0.  0.
         23    2    1    2    0    0 -0.15738775698E+02 -0.31115158815E+02  0.16455600387E+03  0.19404894574E+03  0.96749432887E+02 0.  0.
        -11    1    4    4    0    0 -0.41428871412E+02 -0.18612745508E+02  0.15845287038E+03  0.16483354578E+03  0.00000000000E+00 0.  1.
         11    1    4    4    0    0  0.25690095714E+02 -0.12502413308E+02  0.61031334851E+01  0.29215399957E+02  0.00000000000E+00 0. -1.
        -13    1    3    3    0    0 -0.24829602286E+02  0.55220761716E+02  0.19647551215E+03  0.20559296814E+03  0.00000000000E+00 0. -1.
         13    1    3    3    0    0  0.60286639325E+02  0.23412473104E+02  0.24411509060E+03  0.25253673047E+03  0.00000000000E+00 0.  1.
         -1    1    1    2    0  502 -0.19718261341E+02 -0.47518076004E+02  0.20863596806E+03  0.21488542190E+03  0.00000000000E+00 0.  1.
<scales pt_clust_5="13000.00000" pt_clust_6="13000.00000" pt_clust_7="13000.00000" pt_clust_8="13000.00000" pt_clust_9="51.44687"></scales>
<clustering>
<clus scale="   51.447">  2  9  1 -1</clus>
<clus scale="   91.227">  7  8 -1 -1</clus>
<clus scale="   96.749">  5  6 -1 -1</clus>
<clus scale="  113.237">  1  7  2 -1</clus>
<clus scale="   51.447">  2  5  1 -1</clus>
</clustering>
</event>
<event>
 9    1  0.1636528E-005  0.9328293E+02  0.7546771E-02  0.1295238E+00
          2   -1    0    0  502    0 -0.00000000000E+00  0.00000000000E+00  0.46203906864E+02  0.46203906864E+02  0.00000000000E+00 0. -1.
         21   -1    0    0  501  502  0.00000000000E+00 -0.00000000000E+00 -0.47177709610E+03  0.47177709610E+03  0.00000000000E+00 0. -1.
         23    2    1    2    0    0  0.45569914443E+02  0.92232266606E+01 -0.11834884011E+03  0.15622942551E+03  0.90771693969E+02 0.  0.
         23    2    1    2    0    0  0.37341300095E+02 -0.33012247331E+02 -0.14540672170E+03  0.17838001056E+03  0.90510398771E+02 0.  0.
        -11    1    3    3    0    0 -0.58777453199E+01  0.38792981716E+02 -0.28260705133E+02  0.48354015088E+02  0.00000000000E+00 0.  1.
         11    1    3    3    0    0  0.51447659763E+02 -0.29569755056E+02 -0.90088134980E+02  0.10787541042E+03  0.00000000000E+00 0. -1.
        -13    1    4    4    0    0 -0.49990815670E+01  0.22155201916E+02 -0.79087991344E+02  0.82284592502E+02  0.00000000000E+00 0.  1.
         13    1    4    4    0    0  0.42340381662E+02 -0.55167449248E+02 -0.66318730352E+02  0.96095418056E+02  0.00000000000E+00 0. -1.
          2    1    1    2  501    0 -0.82911214539E+02  0.23789020671E+02 -0.16181762742E+03  0.18337156690E+03  0.00000000000E+00 0. -1.
<scales pt_clust_5="13000.00000" pt_clust_6="13000.00000" pt_clust_7="13000.00000" pt_clust_8="13000.00000" pt_clust_9="86.25652"></scales>
<clustering>
<clus scale="   86.257">  2  9  1 -1</clus>
<clus scale="   90.510">  7  8 -1 -1</clus>
<clus scale="   90.772">  5  6 -1 -1</clus>
<clus scale="   93.029">  2  7  1 -1</clus>
<clus scale="   86.257">  2  5  1 -1</clus>
</clustering>
</event>
<event>
 9    1  0.1636528E-005  0.1488463E+03  0.7546771E-02  0.1202675E+00
         21   -1    0    0  501  502  0.00000000000E+00  0.00000000000E+00  0.33373591426E+03  0.33373591426E+03  0.00000000000E+00 0.  1.
         -1   -1    0    0    0  501 -0.00000000000E+00 -0.00000000000E+00 -0.22781128509E+03  0.22781128509E+03  0.00000000000E+00 0.  1.
         23    2    1    2    0    0  0.30608069486E+02  0.12283738862E+03 -0.11056351555E+03  0.18975789512E+03  0.88078884124E+02 0.  0.
         23    2    1    2    0    0 -0.11925970426E+03 -0.51220243468E+02  0.44163850494E+02  0.16518874710E+03  0.92143833637E+02 0.  0.
        -13    1    3    3    0    0  0.50345371295E+01  0.11701622196E+03 -0.57305379341E+02  0.13039190645E+03  0.00000000000E+00 0.  1.
         13    1    3    3    0    0  0.25573532356E+02  0.58211666613E+01 -0.53258136208E+02  0.59365988671E+02  0.00000000000E+00 0. -1.
        -13    1    4    4    0    0 -0.36699222865E+02 -0.50193824559E+01 -0.27806850112E+02  0.46316822779E+02  0.00000000000E+00 0.  1.
         13    1    4    4    0    0 -0.82560481395E+02 -0.46200861012E+02  0.71970700606E+02  0.11887192432E+03  0.00000000000E+00 0. -1.
         -1    1    1    2    0  502  0.88651634774E+02 -0.71617145153E+02  0.17232429422E+03  0.20660055713E+03  0.00000000000E+00 0.  1.
<scales pt_clust_5="13000.00000" pt_clust_6="13000.00000" pt_clust_7="13000.00000" pt_clust_8="13000.00000" pt_clust_9="113.96547"></scales>
<clustering>
<clus scale="   88.079">  5  6 -1 -1</clus>
<clus scale="   92.144">  7  8 -1 -1</clus>
<clus scale="  113.965">  1  9  2 -1</clus>
<clus scale="  146.365">  2  5  1 -1</clus>
<clus scale="  113.965">  1  5  2 -1</clus>
</clustering>
</event>
<event>
 9    1  0.1636528E-005  0.1023620E+03  0.7546771E-02  0.1279942E+00
          1   -1    0    0  502    0 -0.00000000000E+00  0.00000000000E+00  0.61231061485E+03  0.61231061485E+03  0.00000000000E+00 0. -1.
         21   -1    0    0  501  502  0.00000000000E+00 -0.00000000000E+00 -0.49300496703E+02  0.49300496703E+02  0.00000000000E+00 0.  1.
         23    2    1    2    0    0 -0.16134986435E+02  0.26230969053E+02  0.19869688709E+03  0.22030665013E+03  0.90034246985E+02 0.  0.
         23    2    1    2    0    0  0.54730299035E+02  0.59288358633E+02  0.10406928438E+03  0.16466378230E+03  0.98859648729E+02 0.  0.
        -11    1    3    3    0    0 -0.32926534681E+02  0.53476172794E+02  0.14033084988E+03  0.15374200848E+03  0.00000000000E+00 0.  1.
         11    1    3    3    0    0  0.16791548246E+02 -0.27245203741E+02  0.58366037208E+02  0.66564641656E+02  0.00000000000E+00 0. -1.
        -11    1    4    4    0    0  0.38397815956E+02  0.39878365537E+02  0.12174849838E+03  0.13374368458E+03  0.00000000000E+00 0. -1.
         11    1    4    4    0    0  0.16332483080E+02  0.19409993096E+02 -0.17679213993E+02  0.30920097719E+02  0.00000000000E+00 0.  1.
          1    1    1    2  501    0 -0.38595312600E+02 -0.85519327686E+02  0.26024394668E+03  0.27664067912E+03  0.00000000000E+00 0. -1.
<scales pt_clust_5="13000.00000" pt_clust_6="13000.00000" pt_clust_7="13000.00000" pt_clust_8="13000.00000" pt_clust_9="93.82517"></scales>
<clustering>
<clus scale="   90.034">  5  6 -1 -1</clus>
<clus scale="   93.825">  2  9  1 -1</clus>
<clus scale="   93.866">  1  5  2 -1</clus>
<clus scale="   98.860">  7  8 -1 -1</clus>
<clus scale="   93.825">  2  5  1 -1</clus>
</clustering>
</event>
<event>
 9    1  0.1636528E-005  0.9274231E+02  0.7546771E-02  0.1296769E+00
          1   -1    0    0  502    0 -0.00000000000E+00  0.00000000000E+00  0.40815400656E+03  0.40815400656E+03  0.00000000000E+00 0. -1.
         21   -1    0    0  501  502  0.00000000000E+00 -0.00000000000E+00 -0.10288342630E+03  0.10288342630E+03  0.00000000000E+00 0. -1.
         23    2    1    2    0    0 -0.14904896337E+02 -0.24844430176E+02  0.22879833592E+03  0.24844289049E+03  0.92389337421E+02 0.  0.
         23    2    1    2    0    0 -0.84542570718E+01 -0.19782056453E+02  0.14782085710E+03  0.17525727713E+03  0.91658623009E+02 0.  0.
        -11    1    4    4    0    0 -0.34989796659E+02 -0.26696552839E+02  0.27601779279E+02  0.51950457390E+02  0.00000000000E+00 0. -1.
         11    1    4    4    0    0  0.26535539587E+02  0.69144963854E+01  0.12021907782E+03  0.12330681974E+03  0.00000000000E+00 0.  1.
        -11    1    3    3    0    0  0.27370261578E+02 -0.16874021369E+02  0.26634227756E+02  0.41752196399E+02  0.00000000000E+00 0.  1.
         11    1    3    3    0    0 -0.42275157915E+02 -0.79704088070E+01  0.20216410817E+03  0.20669069409E+03  0.00000000000E+00 0. -1.
          1    1    1    2  501    0  0.23359153409E+02  0.44626486629E+02 -0.71348612764E+02  0.87337265243E+02  0.00000000000E+00 0. -1.
<scales pt_clust_5="13000.00000" pt_clust_6="13000.00000" pt_clust_7="13000.00000" pt_clust_8="13000.00000" pt_clust_9="50.37036"></scales>
<clustering>
<clus scale="   50.370">  2  9  1 -1</clus>
<clus scale="   91.659">  5  6 -1 -1</clus>
<clus scale="   92.014">  2  5  1 -1</clus>
<clus scale="   92.389">  7  8 -1 -1</clus>
<clus scale="   50.370">  2  5  1 -1</clus>
</clustering>
</event>
<event>
 9    1  0.1636528E-005  0.1169601E+03  0.7546771E-02  0.1248363E+00
         21   -1    0    0  501  502  0.00000000000E+00  0.00000000000E+00  0.70704335184E+02  0.70704335184E+02  0.00000000000E+00 0. -1.
          3   -1    0    0  502    0 -0.00000000000E+00 -0.00000000000E+00 -0.37753040168E+03  0.37753040168E+03  0.00000000000E+00 0. -1.
         23    2    1    2    0    0  0.78728388222E+02 -0.24744588124E+02 -0.21013709709E+03  0.24348115305E+03  0.91186723616E+02 0.  0.
         23    2    1    2    0    0 -0.50901084048E+02  0.34945212136E+02 -0.12282511977E+03  0.16523763838E+03  0.91680853408E+02 0.  0.
        -11    1    4    4    0    0 -0.57755824104E+02  0.58460804603E+02 -0.73883331847E+02  0.11050858617E+03  0.00000000000E+00 0. -1.
         11    1    4    4    0    0  0.68547400552E+01 -0.23515592467E+02 -0.48941787927E+02  0.54729052210E+02  0.00000000000E+00 0.  1.
        -13    1    3    3    0    0  0.39794192699E+02 -0.52881346782E+02 -0.74818135833E+02  0.99888778447E+02  0.00000000000E+00 0. -1.
         13    1    3    3    0    0  0.38934195524E+02  0.28136758658E+02 -0.13531896125E+03  0.14359237460E+03  0.00000000000E+00 0.  1.
          3    1    1    2  501    0 -0.27827304174E+02 -0.10200624012E+02  0.26136150365E+02  0.39515945436E+02  0.00000000000E+00 0. -1.
<scales pt_clust_5="13000.00000" pt_clust_6="13000.00000" pt_clust_7="13000.00000" pt_clust_8="13000.00000" pt_clust_9="29.63801"></scales>
<clustering>
<clus scale="   29.638">  1  9  2 -1</clus>
<clus scale="   91.187">  7  8 -1 -1</clus>
<clus scale="   91.681">  5  6 -1 -1</clus>
<clus scale="  116.573">  2  7  1 -1</clus>
<clus scale="   29.638">  1  5  2 -1</clus>
</clustering>
</event>
<event>
 9    1  0.1636528E-005  0.2152052E+03  0.7546771E-02  0.1168543E+00
         21   -1    0    0  501  502  0.00000000000E+00  0.00000000000E+00  0.36355862717E+03  0.36355862717E+03  0.00000000000E+00 0.  1.
         -1   -1    0    0    0  501 -0.00000000000E+00 -0.00000000000E+00 -0.23911837903E+03  0.23911837903E+03  0.00000000000E+00 0.  1.
         23    2    1    2    0    0 -0.36572110763E+02  0.16721430973E+02  0.45671661654E+02  0.11317596016E+03  0.95424167486E+02 0.  0.
         23    2    1    2    0    0 -0.15693127857E+03  0.46032331644E+02 -0.10536967201E+03  0.21511355609E+03  0.91786014640E+02 0.  0.
        -13    1    3    3    0    0 -0.69054632448E+02  0.70075985549E+01  0.34251674560E+02  0.77400425775E+02  0.00000000000E+00 0. -1.
         13    1    3    3    0    0  0.32482521685E+02  0.97138324179E+01  0.11419987094E+02  0.35775534384E+02  0.00000000000E+00 0.  1.
        -13    1    4    4    0    0 -0.90298663132E+01  0.38383625894E+02 -0.21300091867E+02  0.44816683679E+02  0.00000000000E+00 0. -1.
         13    1    4    4    0    0 -0.14790141226E+03  0.76487057493E+01 -0.84069580138E+02  0.17029687241E+03  0.00000000000E+00 0.  1.
         -1    1    1    2    0  502  0.19350338933E+03 -0.62753762616E+02  0.18413825849E+03  0.27438748996E+03  0.00000000000E+00 0.  1.
<scales pt_clust_5="13000.00000" pt_clust_6="13000.00000" pt_clust_7="13000.00000" pt_clust_8="13000.00000" pt_clust_9="194.64991"></scales>
<clustering>
<clus scale="   91.786">  7  8 -1 -1</clus>
<clus scale="   95.424">  5  6 -1 -1</clus>
<clus scale="  103.551">  2  5  1 -1</clus>
<clus scale="  194.650">  1  9  2 -1</clus>
<clus scale="  194.650">  1  5  2 -1</clus>
</clustering>
</event>
<event>
 9    1  0.1636528E-005  0.1075382E+03  0.7546771E-02  0.1265516E+00
          2   -1    0    0  502    0 -0.00000000000E+00  0.00000000000E+00  0.17127201775E+03  0.17127201775E+03  0.00000000000E+00 0. -1.
         21   -1    0    0  501  502  0.00000000000E+00 -0.00000000000E+00 -0.59455666124E+03  0.59455666124E+03  0.00000000000E+00 0. -1.
         23    2    1    2    0    0  0.34582861787E+02  0.62191432977E+02  0.10032860715E+03  0.15284377067E+03  0.90728386713E+02 0.  0.
         23    2    1    2    0    0 -0.47850205407E+02  0.92708423668E+01 -0.21817523749E+02  0.10595253190E+03  0.91511441891E+02 0.  0.
        -11    1    3    3    0    0  0.12961086563E+02 -0.23458640686E+02  0.26913928963E+02  0.37982326943E+02  0.00000000000E+00 0.  1.
         11    1    3    3    0    0  0.21621775224E+02  0.85650073664E+02  0.73414678188E+02  0.11486144373E+03  0.00000000000E+00 0. -1.
        -13    1    4    4    0    0  0.97789065427E+00 -0.28086615130E+02 -0.33126089275E+02  0.43441362896E+02  0.00000000000E+00 0.  1.
         13    1    4    4    0    0 -0.48828096061E+02  0.37357457497E+02  0.11308565526E+02  0.62511169001E+02  0.00000000000E+00 0. -1.
          2    1    1    2  501    0  0.13267343620E+02 -0.71462275344E+02 -0.50179572689E+03  0.50703237641E+03  0.00000000000E+00 0. -1.
<scales pt_clust_5="13000.00000" pt_clust_6="13000.00000" pt_clust_7="13000.00000" pt_clust_8="13000.00000" pt_clust_9="72.68342"></scales>
<clustering>
<clus scale="   72.683">  2  9  1 -1</clus>
<clus scale="   90.728">  5  6 -1 -1</clus>
<clus scale="   91.511">  7  8 -1 -1</clus>
<clus scale="  106.873">  1  5  2 -1</clus>
<clus scale="   72.683">  2  5  1 -1</clus>
</clustering>
</event>
<event>
 9    1  0.1636528E-005  0.2495430E+03  0.7546771E-02  0.1139862E+00
         -3   -1    0    0    0  501 -0.00000000000E+00  0.00000000000E+00  0.59012177438E+03  0.59012177438E+03  0.00000000000E+00 0.  1.
         21   -1    0    0  501  502  0.00000000000E+00 -0.00000000000E+00 -0.22998376038E+03  0.22998376038E+03  0.00000000000E+00 0.  1.
         23    2    1    2    0    0  0.22040768899E+02  0.90065717596E+02  0.63356094552E+02  0.14497295491E+03  0.91681699141E+02 0.  0.
         23    2    1    2    0    0 -0.15546347603E+03 -0.25965467504E+03  0.32966957572E+03  0.45685836882E+03  0.91913531970E+02 0.  0.
        -11    1    3    3    0    0 -0.19217185272E+02  0.75982036425E+01 -0.13708100512E+02  0.24798083152E+02  0.00000000000E+00 0. -1.
         11    1    3    3    0    0  0.41257954171E+02  0.82467513954E+02  0.77064195064E+02  0.12017487175E+03  0.00000000000E+00 0.  1.
        -13    1    4    4    0    0 -0.15650216310E+03 -0.23869867538E+03  0.26728033711E+03  0.39103550131E+03  0.00000000000E+00 0.  1.
         13    1    4    4    0    0  0.10386870700E+01 -0.20955999661E+02  0.62389238616E+02  0.65822867513E+02  0.00000000000E+00 0. -1.
         -3    1    1    2    0  502  0.13342270713E+03  0.16958895744E+03 -0.32887656272E+02  0.21827421103E+03  0.00000000000E+00 0.  1.
<scales pt_clust_5="13000.00000" pt_clust_6="13000.00000" pt_clust_7="13000.00000" pt_clust_8="13000.00000" pt_clust_9="231.99912"></scales>
<clustering>
<clus scale="   91.682">  5  6 -1 -1</clus>
<clus scale="   91.914">  7  8 -1 -1</clus>
<clus scale="  130.396">  1  5  2 -1</clus>
<clus scale="  231.999">  2  9  1 -1</clus>
<clus scale="  231.999">  2  5  1 -1</clus>
</clustering>
</event>
<event>
 9    1  0.1636528E-005  0.1063753E+03  0.7546771E-02  0.1268194E+00
         21   -1    0    0  501  502  0.00000000000E+00  0.00000000000E+00  0.18784691286E+03  0.18784691286E+03  0.00000000000E+00 0. -1.
         -4   -1    0    0    0  501 -0.00000000000E+00 -0.00000000000E+00 -0.10978406647E+03  0.10978406647E+03  0.00000000000E+00 0.  1.
         23    2    1    2    0    0 -0.36944190726E+02  0.25936092856E+02 -0.27614011721E+02  0.10376148860E+03  0.89254460574E+02 0.  0.
         23    2    1    2    0    0  0.59569578876E+02 -0.55765524825E+02  0.64636522785E+02  0.13831760216E+03  0.91079912730E+02 0.  0.
        -13    1    4    4    0    0  0.70135775095E+02 -0.81176326259E+01  0.52617410794E+02  0.88054044917E+02  0.00000000000E+00 0.  1.
         13    1    4    4    0    0 -0.10566196219E+02 -0.47647892199E+02  0.12019111991E+02  0.50263557242E+02  0.00000000000E+00 0. -1.
        -13    1    3    3    0    0 -0.63331298186E+02  0.28572225413E+02 -0.63449632996E+01  0.69767355936E+02  0.00000000000E+00 0.  1.
         13    1    3    3    0    0  0.26387107459E+02 -0.26361325576E+01 -0.21269048422E+02  0.33994132666E+02  0.00000000000E+00 0. -1.
         -4    1    1    2    0  502 -0.22625388150E+02  0.29829431969E+02  0.41040335324E+02  0.55551888573E+02  0.00000000000E+00 0.  1.
<scales pt_clust_5="13000.00000" pt_clust_6="13000.00000" pt_clust_7="13000.00000" pt_clust_8="13000.00000" pt_clust_9="37.43933"></scales>
<clustering>
<clus scale="   37.439">  1  9  2 -1</clus>
<clus scale="   89.254">  7  8 -1 -1</clus>
<clus scale="   91.080">  5  6 -1 -1</clus>
<clus scale="  104.817">  2  7  1 -1</clus>
<clus scale="   37.439">  1  5  2 -1</clus>
</clustering>
</event>
<event>
 9    1  0.1636528E-005  0.9434036E+02  0.7546771E-02  0.1292773E+00
         21   -1    0    0  501  502  0.00000000000E+00  0.00000000000E+00  0.33694648117E+02  0.33694648117E+02  0.00000000000E+00 0. -1.
         -4   -1    0    0    0  501 -0.00000000000E+00 -0.00000000000E+00 -0.43802128194E+03  0.43802128194E+03  0.00000000000E+00 0.  1.
         23    2    1    2    0    0  0.28264523583E+02  0.13700836890E+01 -0.27031614379E+03  0.28693363333E+03  0.91974626500E+02 0.  0.
         23    2    1    2    0    0 -0.55629956036E+01  0.16364327846E+02 -0.12181433576E+03  0.15349947550E+03  0.91785720216E+02 0.  0.
        -13    1    4    4    0    0 -0.32920802055E+02  0.28127431339E+02 -0.11509584849E+03  0.12297148427E+03  0.00000000000E+00 0.  1.
         13    1    4    4    0    0  0.27357806451E+02 -0.11763103493E+02 -0.67184872665E+01  0.30527991234E+02  0.00000000000E+00 0. -1.
        -13    1    3    3    0    0  0.27470702122E+02  0.35698280647E+02 -0.66973489092E+02  0.80712173539E+02  0.00000000000E+00 0. -1.
         13    1    3    3    0    0  0.79382146138E+00 -0.34328196958E+02 -0.20334265470E+03  0.20622145979E+03  0.00000000000E+00 0.  1.
         -4    1    1    2    0  502 -0.22701527979E+02 -0.17734411535E+02 -0.12196154274E+02  0.31282821231E+02  0.00000000000E+00 0.  1.
<scales pt_clust_5="13000.00000" pt_clust_6="13000.00000" pt_clust_7="13000.00000" pt_clust_8="13000.00000" pt_clust_9="28.80744"></scales>
<clustering>
<clus scale="   28.807">  1  9  2 -1</clus>
<clus scale="   91.786">  5  6 -1 -1</clus>
<clus scale="   91.975">  7  8 -1 -1</clus>
<clus scale="   94.156">  1  5  2 -1</clus>
<clus scale="   28.807">  1  5  2 -1</clus>
</clustering>
</event>
<event>
 9    1  0.1636528E-005  0.1087302E+03  0.7546771E-02  0.1263848E+00
          4   -1    0    0  502    0 -0.00000000000E+00  0.00000000000E+00  0.29823773370E+02  0.29823773370E+02  0.00000000000E+00 0. -1.
         21   -1    0    0  501  502  0.00000000000E+00 -0.00000000000E+00 -0.61079665427E+03  0.61079665427E+03  0.00000000000E+00 0. -1.
         23    2    1    2    0    0  0.47174627500E+02 -0.53958786936E+02 -0.13305372516E+03  0.17412116298E+03  0.86474790828E+02 0.  0.
         23    2    1    2    0    0 -0.33853617540E+02  0.29423080369E+02 -0.30321206949E+03  0.31912358481E+03  0.88828588965E+02 0.  0.
        -13    1    4    4    0    0 -0.61743416568E+02  0.13786701692E+02 -0.15332386538E+03  0.16586298661E+03  0.00000000000E+00 0.  1.
         13    1    4    4    0    0  0.27889799028E+02  0.15636378677E+02 -0.14988820411E+03  0.15326059819E+03  0.00000000000E+00 0. -1.
        -13    1    3    3    0    0  0.68882909879E+02 -0.37550828786E+02 -0.68817008850E+02  0.10435852013E+03  0.00000000000E+00 0. -1.
         13    1    3    3    0    0 -0.21708282379E+02 -0.16407958150E+02 -0.64236716314E+02  0.69762642849E+02  0.00000000000E+00 0.  1.
          4    1    1    2  501    0 -0.13321009960E+02  0.24535706567E+02 -0.14470708625E+03  0.14737567986E+03  0.00000000000E+00 0. -1.
<scales pt_clust_5="13000.00000" pt_clust_6="13000.00000" pt_clust_7="13000.00000" pt_clust_8="13000.00000" pt_clust_9="27.91864"></scales>
<clustering>
<clus scale="   27.919">  2  9  1 -1</clus>
<clus scale="   86.475">  7  8 -1 -1</clus>
<clus scale="   88.829">  5  6 -1 -1</clus>
<clus scale="  106.816">  1  7  2 -1</clus>
<clus scale="   27.919">  2  5  1 -1</clus>
</clustering>
</event>
<event>
 9    1  0.1636528E-005  0.1283986E+03  0.7546771E-02  0.1241100E+00
         21   -1    0    0  501  502  0.00000000000E+00  0.00000000000E+00  0.91007620100E+02  0.91007620100E+02  0.00000000000E+00 0.  1.
          1   -1    0    0  502    0 -0.00000000000E+00 -0.00000000000E+00 -0.34147789690E+03  0.34147789690E+03  0.00000000000E+00 0. -1.
         23    2    1    2    0    0 -0.21977564787E+02 -0.41612970536E+02 -0.91527052751E+02  0.13704397280E+03  0.90494178960E+02 0.  0.
         23    2    1    2    0    0  0.80566174071E+02 -0.49373949848E+02 -0.35541288685E+02  0.13130963849E+03  0.83966318435E+02 0.  0.
        -11    1    3    3    0    0 -0.26430662986E+02  0.12817081748E+02 -0.74114404925E+02  0.79723287361E+02  0.00000000000E+00 0.  1.
         11    1    3    3    0    0  0.44530981989E+01 -0.54430052284E+02 -0.17412647826E+02  0.57320685442E+02  0.00000000000E+00 0. -1.
        -11    1    4    4    0    0  0.95486294991E+02 -0.33924421532E+02 -0.16623026147E+02  0.10268799300E+03  0.00000000000E+00 0.  1.
         11    1    4    4    0    0 -0.14920120919E+02 -0.15449528316E+02 -0.18918262539E+02  0.28621645496E+02  0.00000000000E+00 0. -1.
          1    1    1    2  501    0 -0.58588609284E+02  0.90986920383E+02 -0.12340193536E+03  0.16413190570E+03  0.00000000000E+00 0. -1.
<scales pt_clust_5="13000.00000" pt_clust_6="13000.00000" pt_clust_7="13000.00000" pt_clust_8="13000.00000" pt_clust_9="97.13833"></scales>
<clustering>
<clus scale="   83.966">  7  8 -1 -1</clus>
<clus scale="   90.494">  5  6 -1 -1</clus>
<clus scale="  101.999">  2  5  1 -1</clus>
<clus scale="   97.138">  1  9  2 -1</clus>
<clus scale="   97.138">  1  5  2 -1</clus>
</clustering>
</event>
<event>
 9    1  0.1636528E-005  0.1053376E+03  0.7546771E-02  0.1279955E+00
          1   -1    0    0  502    0 -0.00000000000E+00  0.00000000000E+00  0.10112296409E+04  0.10112296409E+04  0.00000000000E+00 0. -1.
         21   -1    0    0  501  502  0.00000000000E+00 -0.00000000000E+00 -0.25119826602E+02  0.25119826602E+02  0.00000000000E+00 0.  1.
         23    2    1    2    0    0 -0.87918587864E+01  0.13418282924E+02  0.54890659472E+03  0.55799111862E+03  0.98986320420E+02 0.  0.
         23    2    1    2    0    0  0.59455047593E+02 -0.30671352857E+02  0.40037103107E+03  0.41338883886E+03  0.78215951071E+02 0.  0.
        -11    1    3    3    0    0 -0.48537021718E+02  0.29786771546E+02  0.28961493693E+03  0.29516081368E+03  0.00000000000E+00 0. -1.
         11    1    3    3    0    0  0.39745162931E+02 -0.16368488622E+02  0.25929165779E+03  0.26283030494E+03  0.00000000000E+00 0.  1.
        -13    1    4    4    0    0  0.30166332402E+01 -0.43839443017E+02  0.20205763239E+03  0.20678076227E+03  0.00000000000E+00 0. -1.
         13    1    4    4    0    0  0.56438414353E+02  0.13168090161E+02  0.19831339869E+03  0.20660807659E+03  0.00000000000E+00 0.  1.
          1    1    1    2  501    0 -0.50663188807E+02  0.17253069933E+02  0.36832188495E+02  0.64969510014E+02  0.00000000000E+00 0. -1.
<scales pt_clust_5="13000.00000" pt_clust_6="13000.00000" pt_clust_7="13000.00000" pt_clust_8="13000.00000" pt_clust_9="53.52034"></scales>
<clustering>
<clus scale="   53.520">  2  9  1 -1</clus>
<clus scale="   78.216">  7  8 -1 -1</clus>
<clus scale="   86.113">  2  7  1 -1</clus>
<clus scale="   98.986">  5  6 -1 -1</clus>
<clus scale="   53.520">  2  5  1 -1</clus>
</clustering>
</event>
<event>
 9    1  0.1636528E-005  0.1114132E+03  0.7546771E-02  0.1258113E+00
          4   -1    0    0  502    0 -0.00000000000E+00  0.00000000000E+00  0.15773005042E+03  0.15773005042E+03  0.00000000000E+00 0. -1.
         21   -1    0    0  501  502  0.00000000000E+00 -0.00000000000E+00 -0.12069255592E+03  0.12069255592E+03  0.00000000000E+00 0.  1.
         23    2    1    2    0    0 -0.13682945890E+02  0.68090279255E+02  0.35184494951E+02  0.12102278573E+03  0.92655581824E+02 0.  0.
         23    2    1    2    0    0  0.45840055871E+02 -0.37892802251E+02 -0.13656692397E+02  0.11063960373E+03  0.92289985809E+02 0.  0.
        -11    1    4    4    0    0 -0.26541106828E+02 -0.13148317186E+02  0.88324808119E+01  0.30908272578E+02  0.00000000000E+00 0. -1.
         11    1    4    4    0    0  0.72381162699E+02 -0.24744485065E+02 -0.22489173209E+02  0.79731331147E+02  0.00000000000E+00 0.  1.
        -13    1    3    3    0    0 -0.50993933369E+02  0.27639497312E+02  0.49000692772E+01  0.58209395556E+02  0.00000000000E+00 0. -1.
         13    1    3    3    0    0  0.37310987479E+02  0.40450781943E+02  0.30284425674E+02  0.62813390171E+02  0.00000000000E+00 0.  1.
          4    1    1    2  501    0 -0.32157109981E+02 -0.30197477004E+02  0.15509691943E+02  0.46760216893E+02  0.00000000000E+00 0. -1.
<scales pt_clust_5="13000.00000" pt_clust_6="13000.00000" pt_clust_7="13000.00000" pt_clust_8="13000.00000" pt_clust_9="44.11314"></scales>
<clustering>
<clus scale="   44.113">  2  9  1 -1</clus>
<clus scale="   92.290">  5  6 -1 -1</clus>
<clus scale="   92.656">  7  8 -1 -1</clus>
<clus scale="  111.109">  2  5  1 -1</clus>
<clus scale="   44.113">  2  5  1 -1</clus>
</clustering>
</event>
<event>
 9    1  0.1636528E-005  0.1678602E+03  0.7546771E-02  0.1181056E+00
          3   -1    0    0  502    0 -0.00000000000E+00  0.00000000000E+00  0.11383301926E+03  0.11383301926E+03  0.00000000000E+00 0. -1.
         21   -1    0    0  501  502  0.00000000000E+00 -0.00000000000E+00 -0.63293073835E+03  0.63293073835E+03  0.00000000000E+00 0.  1.
         23    2    1    2    0    0  0.13012245175E+03  0.33215841124E+02  0.10200957404E+02  0.15921720918E+03  0.84917110269E+02 0.  0.
         23    2    1    2    0    0 -0.16167716510E+03 -0.50180285649E+02 -0.30686150603E+03  0.36224278211E+03  0.91642143819E+02 0.  0.
        -11    1    4    4    0    0 -0.86633652648E+02  0.10755719533E+02 -0.93032076350E+02  0.12757759405E+03  0.00000000000E+00 0.  1.
         11    1    4    4    0    0 -0.75043512455E+02 -0.60936005183E+02 -0.21382942968E+03  0.23466518806E+03  0.00000000000E+00 0. -1.
        -13    1    3    3    0    0  0.13705303369E+03  0.14247240588E+02  0.14554810022E+02  0.13855814810E+03  0.00000000000E+00 0. -1.
         13    1    3    3    0    0 -0.69305819419E+01  0.18968600536E+02 -0.43538526183E+01  0.20659061086E+02  0.00000000000E+00 0.  1.
          3    1    1    2  501    0  0.31554713352E+02  0.16964444525E+02 -0.22243717046E+03  0.22530376632E+03  0.00000000000E+00 0. -1.
<scales pt_clust_5="13000.00000" pt_clust_6="13000.00000" pt_clust_7="13000.00000" pt_clust_8="13000.00000" pt_clust_9="35.82586"></scales>
<clustering>
<clus scale="   35.826">  2  9  1 -1</clus>
<clus scale="   84.917">  7  8 -1 -1</clus>
<clus scale="   91.642">  5  6 -1 -1</clus>
<clus scale="  164.285">  1  7  2 -1</clus>
<clus scale="   35.826">  2  5  1 -1</clus>
</clustering>
</event>
<event>
 9    1  0.1636528E-005  0.1290739E+03  0.7546771E-02  0.1228877E+00
         21   -1    0    0  501  502  0.00000000000E+00  0.00000000000E+00  0.28070433472E+03  0.28070433472E+03  0.00000000000E+00 0.  1.
         -1   -1    0    0    0  501 -0.00000000000E+00 -0.00000000000E+00 -0.27459350512E+03  0.27459350512E+03  0.00000000000E+00 0.  1.
         23    2    1    2    0    0 -0.74931846435E+02 -0.45755878463E+02 -0.19207612907E+03  0.23037263859E+03  0.92032229292E+02 0.  0.
         23    2    1    2    0    0  0.65895387729E+02  0.12050735198E+03  0.18573989204E+03  0.24860764201E+03  0.91881598613E+02 0.  0.
        -11    1    4    4    0    0  0.12302859357E+02  0.69762050215E+02  0.31314199083E+02  0.77451165664E+02  0.00000000000E+00 0. -1.
         11    1    4    4    0    0  0.53592528372E+02  0.50745301770E+02  0.15442569296E+03  0.17115647635E+03  0.00000000000E+00 0.  1.
        -11    1    3    3    0    0 -0.37939012306E+02 -0.48736582425E+02 -0.18159135264E+03  0.19180730559E+03  0.00000000000E+00 0.  1.
         11    1    3    3    0    0 -0.36992834129E+02  0.29807039622E+01 -0.10484776426E+02  0.38565333004E+02  0.00000000000E+00 0. -1.
         -1    1    1    2    0  502  0.90364587065E+01 -0.74751473522E+02  0.12447066622E+02  0.76317559232E+02  0.00000000000E+00 0.  1.
<scales pt_clust_5="13000.00000" pt_clust_6="13000.00000" pt_clust_7="13000.00000" pt_clust_8="13000.00000" pt_clust_9="75.29569"></scales>
<clustering>
<clus scale="   75.296">  1  9  2 -1</clus>
<clus scale="   91.882">  5  6 -1 -1</clus>
<clus scale="   92.032">  7  8 -1 -1</clus>
<clus scale="  128.967">  1  5  2 -1</clus>
<clus scale="   75.296">  1  5  2 -1</clus>
</clustering>
</event>
<event>
 9    1  0.1636528E-005  0.1787557E+03  0.7546771E-02  0.1169074E+00
         21   -1    0    0  501  502  0.00000000000E+00  0.00000000000E+00  0.49185048553E+03  0.49185048553E+03  0.00000000000E+00 0.  1.
         -1   -1    0    0    0  501 -0.00000000000E+00 -0.00000000000E+00 -0.12779206566E+03  0.12779206566E+03  0.00000000000E+00 0.  1.
         23    2    1    2    0    0 -0.14693315652E+03  0.12242786974E+03  0.38602812857E+02  0.21554330392E+03  0.91601326039E+02 0.  0.
         23    2    1    2    0    0  0.82716463407E+02 -0.66034556562E+02  0.13009298921E+03  0.19086101927E+03  0.91110739511E+02 0.  0.
        -11    1    3    3    0    0 -0.64095946356E+02  0.40943208174E+02 -0.28665524085E+02  0.81279449469E+02  0.00000000000E+00 0.  1.
         11    1    3    3    0    0 -0.82837210163E+02  0.81484661563E+02  0.67268336943E+02  0.13426385445E+03  0.00000000000E+00 0. -1.
        -11    1    4    4    0    0  0.37723139567E+01 -0.31057472467E+02  0.90718101473E+02  0.95961298884E+02  0.00000000000E+00 0.  1.
         11    1    4    4    0    0  0.78944149451E+02 -0.34977084095E+02  0.39374887741E+02  0.94899720384E+02  0.00000000000E+00 0. -1.
         -1    1    1    2    0  502  0.64216693112E+02 -0.56393313175E+02  0.19536261780E+03  0.21323822800E+03  0.00000000000E+00 0.  1.
<scales pt_clust_5="13000.00000" pt_clust_6="13000.00000" pt_clust_7="13000.00000" pt_clust_8="13000.00000" pt_clust_9="85.46338"></scales>
<clustering>
<clus scale="   85.463">  1  9  2 -1</clus>
<clus scale="   91.111">  7  8 -1 -1</clus>
<clus scale="   91.601">  5  6 -1 -1</clus>
<clus scale="  178.505">  1  7  2 -1</clus>
<clus scale="   85.463">  1  5  2 -1</clus>
</clustering>
</event>
<event>
 9    1  0.1636528E-005  0.1406208E+03  0.7546771E-02  0.1213022E+00
          2   -1    0    0  502    0 -0.00000000000E+00  0.00000000000E+00  0.82090190682E+03  0.82090190682E+03  0.00000000000E+00 0. -1.
         21   -1    0    0  501  502  0.00000000000E+00 -0.00000000000E+00 -0.17156750397E+03  0.17156750397E+03  0.00000000000E+00 0.  1.
         23    2    1    2    0    0 -0.22879298250E+02  0.11108276982E+03  0.61415152795E+03  0.63110383878E+03  0.90813611301E+02 0.  0.
         23    2    1    2    0    0  0.10331179298E+03 -0.47690188158E+02  0.14823804232E+03  0.20882221261E+03  0.93190764948E+02 0.  0.
        -11    1    4    4    0    0  0.42706924257E+02 -0.63697307163E+02  0.47604642522E+02  0.90263117102E+02  0.00000000000E+00 0.  1.
         11    1    4    4    0    0  0.60604868723E+02  0.16007119005E+02  0.10063339980E+03  0.11855909551E+03  0.00000000000E+00 0. -1.
        -11    1    3    3    0    0  0.28969508338E+02  0.36610556078E+02  0.12141896469E+03  0.13008508837E+03  0.00000000000E+00 0.  1.
         11    1    3    3    0    0 -0.51848806588E+02  0.74472213747E+02  0.49273256326E+03  0.50101875041E+03  0.00000000000E+00 0. -1.
          2    1    1    2  501    0 -0.80432494731E+02 -0.63392581666E+02 -0.11305516742E+03  0.15254335941E+03  0.00000000000E+00 0. -1.
<scales pt_clust_5="13000.00000" pt_clust_6="13000.00000" pt_clust_7="13000.00000" pt_clust_8="13000.00000" pt_clust_9="102.41096"></scales>
<clustering>
<clus scale="   90.814">  7  8 -1 -1</clus>
<clus scale="   93.191">  5  6 -1 -1</clus>
<clus scale="  102.411">  2  9  1 -1</clus>
<clus scale="  139.057">  1  7  2 -1</clus>
<clus scale="  102.411">  2  5  1 -1</clus>
</clustering>
</event>
<event>
 9    1  0.1636528E-005  0.1098245E+03  0.7546771E-02  0.1261371E+00
         21   -1    0    0  501  502  0.00000000000E+00  0.00000000000E+00  0.89222325949E+02  0.89222325949E+02  0.00000000000E+00 0.  1.
          2   -1    0    0  502    0 -0.00000000000E+00 -0.00000000000E+00 -0.26706729601E+03  0.26706729601E+03  0.00000000000E+00 0. -1.
         23    2    1    2    0    0 -0.57950231486E+02 -0.17089954553E+01 -0.16806926472E+03  0.19990790079E+03  0.91404272661E+02 0.  0.
         23    2    1    2    0    0  0.71863722552E+02 -0.27984627309E+02  0.82863841176E+01  0.11894463338E+03  0.90175538056E+02 0.  0.
        -13    1    4    4    0    0  0.18511138862E+02 -0.93330901697E+01 -0.39710160014E+02  0.44795821707E+02  0.00000000000E+00 0. -1.
         13    1    4    4    0    0  0.53352583690E+02 -0.18651537139E+02  0.47996544131E+02  0.74148811674E+02  0.00000000000E+00 0.  1.
        -13    1    3    3    0    0  0.16335824488E+02 -0.21584425215E+02 -0.22193232034E+02  0.35004087214E+02  0.00000000000E+00 0.  1.
         13    1    3    3    0    0 -0.74286055974E+02  0.19875429760E+02 -0.14587603268E+03  0.16490381357E+03  0.00000000000E+00 0. -1.
          2    1    1    2  501    0 -0.13913491066E+02  0.29693622764E+02 -0.18062089466E+02  0.37437087792E+02  0.00000000000E+00 0. -1.
<scales pt_clust_5="13000.00000" pt_clust_6="13000.00000" pt_clust_7="13000.00000" pt_clust_8="13000.00000" pt_clust_9="32.79171"></scales>
<clustering>
<clus scale="   32.792">  1  9  2 -1</clus>
<clus scale="   90.176">  5  6 -1 -1</clus>
<clus scale="   91.404">  7  8 -1 -1</clus>
<clus scale="  108.804">  1  5  2 -1</clus>
<clus scale="   32.792">  1  5  2 -1</clus>
</clustering>
</event>
<event>
 9    1  0.1636528E-005  0.1097433E+03  0.7546771E-02  0.1261853E+00
         21   -1    0    0  501  502  0.00000000000E+00  0.00000000000E+00  0.19452952140E+03  0.19452952140E+03  0.00000000000E+00 0.  1.
         -2   -1    0    0    0  501 -0.00000000000E+00 -0.00000000000E+00 -0.11252214173E+03  0.11252214173E+03  0.00000000000E+00 0.  1.
         23    2    1    2    0    0  0.45331599120E+02 -0.20792320885E+02 -0.82708907096E+01  0.10111171964E+03  0.87566533155E+02 0.  0.
         23    2    1    2    0    0 -0.90645266443E+02  0.29480121462E+02  0.32575283523E+02  0.13205868053E+03  0.85397330847E+02 0.  0.
        -11    1    4    4    0    0 -0.64153071426E+02 -0.23307109766E+02  0.10770921486E+02  0.69100294418E+02  0.00000000000E+00 0.  1.
         11    1    4    4    0    0 -0.26492195017E+02  0.52787231228E+02  0.21804362037E+02  0.62958386108E+02  0.00000000000E+00 0. -1.
        -13    1    3    3    0    0 -0.80879951867E+01 -0.42304862267E+02 -0.11692908080E+01  0.43086938608E+02  0.00000000000E+00 0.  1.
         13    1    3    3    0    0  0.53419594307E+02  0.21512541383E+02 -0.71015999016E+01  0.58024781032E+02  0.00000000000E+00 0. -1.
         -2    1    1    2    0  502  0.45313667323E+02 -0.86878005773E+01  0.57702986853E+02  0.73881262963E+02  0.00000000000E+00 0.  1.
<scales pt_clust_5="13000.00000" pt_clust_6="13000.00000" pt_clust_7="13000.00000" pt_clust_8="13000.00000" pt_clust_9="46.13899"></scales>
<clustering>
<clus scale="   46.139">  1  9  2 -1</clus>
<clus scale="   85.397">  5  6 -1 -1</clus>
<clus scale="   87.567">  7  8 -1 -1</clus>
<clus scale="  108.020">  1  5  2 -1</clus>
<clus scale="   46.139">  1  5  2 -1</clus>
</clustering>
</event>
<event>
 9    1  0.1636528E-005  0.1114834E+03  0.7546771E-02  0.1262564E+00
         21   -1    0    0  501  502  0.00000000000E+00  0.00000000000E+00  0.10358244953E+03  0.10358244953E+03  0.00000000000E+00 0. -1.
          2   -1    0    0  502    0 -0.00000000000E+00 -0.00000000000E+00 -0.53567980822E+03  0.53567980822E+03  0.00000000000E+00 0. -1.
         23    2    1    2    0    0  0.49203432366E+02  0.47495621440E+02 -0.41441288891E+03  0.43121975582E+03  0.97650517183E+02 0.  0.
         23    2    1    2    0    0  0.28022084940E+02 -0.34880690695E+02 -0.64743899380E+02  0.11673255222E+03  0.86213783194E+02 0.  0.
        -11    1    3    3    0    0  0.52767121192E+02  0.73070451485E+02 -0.35810495434E+03  0.36927336525E+03  0.00000000000E+00 0. -1.
         11    1    3    3    0    0 -0.35636888259E+01 -0.25574830045E+02 -0.56307934570E+02  0.61946390576E+02  0.00000000000E+00 0.  1.
        -11    1    4    4    0    0  0.42706531891E+02  0.95882357470E+01 -0.52452221886E+02  0.68315574444E+02  0.00000000000E+00 0. -1.
         11    1    4    4    0    0 -0.14684446950E+02 -0.44468926442E+02 -0.12291677494E+02  0.48416977774E+02  0.00000000000E+00 0.  1.
          2    1    1    2  501    0 -0.77225517306E+02 -0.12614930745E+02  0.47059429597E+02  0.91309949704E+02  0.00000000000E+00 0. -1.
<scales pt_clust_5="13000.00000" pt_clust_6="13000.00000" pt_clust_7="13000.00000" pt_clust_8="13000.00000" pt_clust_9="78.24907"></scales>
<clustering>
<clus scale="   78.249">  1  9  2 -1</clus>
<clus scale="   86.214">  7  8 -1 -1</clus>
<clus scale="   97.651">  5  6 -1 -1</clus>
<clus scale="  101.616">  1  7  2 -1</clus>
<clus scale="   78.249">  1  5  2 -1</clus>
</clustering>
</event>
<event>
 9    1  0.1636528E-005  0.1041372E+03  0.7546771E-02  0.1273576E+00
         21   -1    0    0  501  502  0.00000000000E+00  0.00000000000E+00  0.47024829928E+02  0.47024829928E+02  0.00000000000E+00 0.  1.
         -4   -1    0    0    0  501 -0.00000000000E+00 -0.00000000000E+00 -0.39279505926E+03  0.39279505926E+03  0.00000000000E+00 0.  1.
         23    2    1    2    0    0 -0.28014094634E+02 -0.44126977669E+02 -0.28850266351E+03  0.30641754178E+03  0.89027767581E+02 0.  0.
         23    2    1    2    0    0  0.15502400904E+02  0.25416922005E+02 -0.50747089284E+02  0.10996892518E+03  0.92906151990E+02 0.  0.
        -11    1    4    4    0    0 -0.36151068392E+02 -0.47072488535E+01 -0.10673084987E+02  0.37986480237E+02  0.00000000000E+00 0.  1.
         11    1    4    4    0    0  0.51653469296E+02  0.30124170858E+02 -0.40074004296E+02  0.71982444947E+02  0.00000000000E+00 0. -1.
        -13    1    3    3    0    0  0.21770291601E+02 -0.36177845546E+02 -0.20138652313E+03  0.20576519094E+03  0.00000000000E+00 0. -1.
         13    1    3    3    0    0 -0.49784386235E+02 -0.79491321230E+01 -0.87116140383E+02  0.10065235084E+03  0.00000000000E+00 0.  1.
         -4    1    1    2    0  502  0.12511693730E+02  0.18710055665E+02 -0.65204765403E+01  0.23433422227E+02  0.00000000000E+00 0.  1.
<scales pt_clust_5="13000.00000" pt_clust_6="13000.00000" pt_clust_7="13000.00000" pt_clust_8="13000.00000" pt_clust_9="22.50797"></scales>
<clustering>
<clus scale="   22.508">  1  9  2 -1</clus>
<clus scale="   89.028">  7  8 -1 -1</clus>
<clus scale="   92.906">  5  6 -1 -1</clus>
<clus scale="  100.692">  2  7  1 -1</clus>
<clus scale="   22.508">  1  5  2 -1</clus>
</clustering>
</event>
<event>
 9    1  0.1636528E-005  0.1083672E+03  0.7546771E-02  0.1263630E+00
          1   -1    0    0  502    0 -0.00000000000E+00  0.00000000000E+00  0.83978939522E+03  0.83978939522E+03  0.00000000000E+00 0. -1.
         21   -1    0    0  501  502  0.00000000000E+00 -0.00000000000E+00 -0.36268410101E+02  0.36268410101E+02  0.00000000000E+00 0.  1.
         23    2    1    2    0    0  0.48417163795E+02 -0.82226917519E+01  0.30109870748E+03  0.31843085854E+03  0.91246619743E+02 0.  0.
         23    2    1    2    0    0 -0.35955012803E+02  0.10280455130E+03  0.24678144812E+03  0.28476568702E+03  0.91262668451E+02 0.  0.
        -11    1    4    4    0    0 -0.33647990046E+02  0.33211165814E+01  0.26191103972E+02  0.42769042270E+02  0.00000000000E+00 0.  1.
         11    1    4    4    0    0 -0.23070227570E+01  0.99483434718E+02  0.22059034415E+03  0.24199664475E+03  0.00000000000E+00 0. -1.
        -13    1    3    3    0    0 -0.17790323513E+02 -0.23550091012E+02  0.47831793347E+02  0.56204829438E+02  0.00000000000E+00 0.  1.
         13    1    3    3    0    0  0.66207487308E+02  0.15327399261E+02  0.25326691413E+03  0.26222602910E+03  0.00000000000E+00 0. -1.
          1    1    1    2  501    0 -0.12462150992E+02 -0.94581859547E+02  0.25564082952E+03  0.27286125977E+03  0.00000000000E+00 0. -1.
<scales pt_clust_5="13000.00000" pt_clust_6="13000.00000" pt_clust_7="13000.00000" pt_clust_8="13000.00000" pt_clust_9="95.39938"></scales>
<clustering>
<clus scale="   91.247">  7  8 -1 -1</clus>
<clus scale="   91.263">  5  6 -1 -1</clus>
<clus scale="   95.399">  2  9  1 -1</clus>
<clus scale="  108.354">  1  7  2 -1</clus>
<clus scale="   95.399">  2  5  1 -1</clus>
</clustering>
</event>
<event>
 9    1  0.1825987E-005  0.1554458E+03  0.7546771E-02  0.1195182E+00
          2   -1    0    0  502    0 -0.00000000000E+00  0.00000000000E+00  0.57450784824E+03  0.57450784824E+03  0.00000000000E+00 0. -1.
         21   -1    0    0  501  502  0.00000000000E+00 -0.00000000000E+00 -0.20167699313E+03  0.20167699313E+03  0.00000000000E+00 0. -1.
         23    2    1    2    0    0 -0.12072003901E+03 -0.38644245079E+02  0.49196500371E+03  0.51719635406E+03  0.96931926034E+02 0.  0.
         23    2    1    2    0    0  0.47989682066E+02  0.93521133228E+02 -0.64084222541E+02  0.15253816072E+03  0.90066036620E+02 0.  0.
        -11    1    4    4    0    0 -0.20122015213E+02  0.40148829903E+02 -0.82660101130E-01  0.44909140177E+02  0.00000000000E+00 0.  1.
         11    1    4    4    0    0  0.68111697279E+02  0.53372303325E+02 -0.64001562440E+02  0.10762902054E+03  0.00000000000E+00 0. -1.
        -13    1    3    3    0    0 -0.21847483820E+02 -0.68978801493E+01  0.11495150719E+02  0.25632631349E+02  0.00000000000E+00 0.  1.
         13    1    3    3    0    0 -0.98872555191E+02 -0.31746364930E+02  0.48046985299E+03  0.49156372271E+03  0.00000000000E+00 0. -1.
          2    1    1    2  501    0  0.72730356945E+02 -0.54876888149E+02 -0.55049926053E+02  0.10645032660E+03  0.00000000000E+00 0. -1.
<scales pt_clust_5="13000.00000" pt_clust_6="13000.00000" pt_clust_7="13000.00000" pt_clust_8="13000.00000" pt_clust_9="91.11080"></scales>
<clustering>
<clus scale="   90.066">  5  6 -1 -1</clus>
<clus scale="   91.111">  2  9  1 -1</clus>
<clus scale="   96.932">  7  8 -1 -1</clus>
<clus scale="  151.260">  2  5  1 -1</clus>
<clus scale="   91.111">  2  5  1 -1</clus>
</clustering>
</event>
<event>
 9    1  0.1636528E-005  0.1127126E+03  0.7546771E-02  0.1259050E+00
         21   -1    0    0  501  502  0.00000000000E+00  0.00000000000E+00  0.45444297615E+03  0.45444297615E+03  0.00000000000E+00 0. -1.
          2   -1    0    0  502    0 -0.00000000000E+00 -0.00000000000E+00 -0.17800885036E+03  0.17800885036E+03  0.00000000000E+00 0. -1.
         23    2    1    2    0    0  0.39489996623E+02 -0.54191297802E+02 -0.13374815999E+03  0.17175351830E+03  0.84347757277E+02 0.  0.
         23    2    1    2    0    0  0.12626606164E+01  0.48247997059E+02  0.91489090967E+02  0.13935510490E+03  0.93381625404E+02 0.  0.
        -11    1    3    3    0    0  0.17664310714E+02 -0.26435134768E+02 -0.13267112673E+03  0.13642753421E+03  0.00000000000E+00 0. -1.
         11    1    3    3    0    0  0.21825685909E+02 -0.27756163034E+02 -0.10770332676E+01  0.35325984097E+02  0.00000000000E+00 0.  1.
        -11    1    4    4    0    0 -0.80239881124E+01  0.75651655376E+02  0.69042567049E+02  0.10273477216E+03  0.00000000000E+00 0.  1.
         11    1    4    4    0    0  0.92866487288E+01 -0.27403658316E+02  0.22446523918E+02  0.36620332737E+02  0.00000000000E+00 0. -1.
          2    1    1    2  501    0 -0.40752657240E+02  0.59433007425E+01  0.31869319481E+03  0.32134320331E+03  0.00000000000E+00 0. -1.
<scales pt_clust_5="13000.00000" pt_clust_6="13000.00000" pt_clust_7="13000.00000" pt_clust_8="13000.00000" pt_clust_9="41.18376"></scales>
<clustering>
<clus scale="   41.184">  1  9  2 -1</clus>
<clus scale="   84.348">  5  6 -1 -1</clus>
<clus scale="   93.382">  7  8 -1 -1</clus>
<clus scale="  105.350">  2  5  1 -1</clus>
<clus scale="   41.184">  1  5  2 -1</clus>
</clustering>
</event>
<event>
 9    1  0.1636528E-005  0.9291400E+02  0.7546771E-02  0.1296306E+00
         21   -1    0    0  501  502  0.00000000000E+00  0.00000000000E+00  0.15627812896E+03  0.15627812896E+03  0.00000000000E+00 0. -1.
          1   -1    0    0  502    0 -0.00000000000E+00 -0.00000000000E+00 -0.10935329792E+03  0.10935329792E+03  0.00000000000E+00 0. -1.
         23    2    1    2    0    0  0.77474645738E+01  0.29941508138E+02 -0.26180163504E+02  0.99786933957E+02  0.91189440784E+02 0.  0.
         23    2    1    2    0    0  0.10556018075E+02 -0.16440258417E+01  0.67659726915E+01  0.91435953087E+02  0.90557290109E+02 0.  0.
        -11    1    4    4    0    0 -0.46140110026E+01 -0.37434007803E+02 -0.21461687769E+02  0.43395830210E+02  0.00000000000E+00 0.  1.
         11    1    4    4    0    0  0.15170029077E+02  0.35789981961E+02  0.28227660461E+02  0.48040122877E+02  0.00000000000E+00 0. -1.
        -11    1    3    3    0    0  0.48196621537E+02  0.96002917793E+01 -0.38229358718E+01  0.49291934112E+02  0.00000000000E+00 0.  1.
         11    1    3    3    0    0 -0.40449156963E+02  0.20341216358E+02 -0.22357227632E+02  0.50494999845E+02  0.00000000000E+00 0. -1.
          1    1    1    2  501    0 -0.18303482649E+02 -0.28297482296E+02  0.66339021846E+02  0.74408539838E+02  0.00000000000E+00 0. -1.
<scales pt_clust_5="13000.00000" pt_clust_6="13000.00000" pt_clust_7="13000.00000" pt_clust_8="13000.00000" pt_clust_9="33.70111"></scales>
<clustering>
<clus scale="   33.701">  1  9  2 -1</clus>
<clus scale="   90.557">  5  6 -1 -1</clus>
<clus scale="   91.189">  7  8 -1 -1</clus>
<clus scale="   92.294">  1  5  2 -1</clus>
<clus scale="   33.701">  1  5  2 -1</clus>
</clustering>
</event>
<event>
 9    1  0.1636528E-005  0.9594791E+02  0.7546771E-02  0.1289188E+00
         -2   -1    0    0    0  501 -0.00000000000E+00  0.00000000000E+00  0.84330499202E+02  0.84330499202E+02  0.00000000000E+00 0.  1.
         21   -1    0    0  501  502  0.00000000000E+00 -0.00000000000E+00 -0.25325901415E+03  0.25325901415E+03  0.00000000000E+00 0. -1.
         23    2    1    2    0    0 -0.14809478487E+02  0.95835148354E+01  0.38503233637E+01  0.93601957087E+02  0.91844090560E+02 0.  0.
         23    2    1    2    0    0  0.47851933805E+02  0.45538206788E+01 -0.48557278900E+02  0.11467141678E+03  0.92093320280E+02 0.  0.
        -11    1    4    4    0    0  0.55561156450E+02  0.31817125329E+02 -0.56344751649E+02  0.85288349783E+02  0.00000000000E+00 0. -1.
         11    1    4    4    0    0 -0.77092226446E+01 -0.27263304650E+02  0.77874727494E+01  0.29383066996E+02  0.00000000000E+00 0.  1.
        -13    1    3    3    0    0 -0.50687211742E+02 -0.25346509421E+01  0.16988737292E+02  0.53518548975E+02  0.00000000000E+00 0.  1.
         13    1    3    3    0    0  0.35877733255E+02  0.12118165777E+02 -0.13138413928E+02  0.40083408112E+02  0.00000000000E+00 0. -1.
         -2    1    1    2    0  502 -0.33042455318E+02 -0.14137335514E+02 -0.12422155941E+03  0.12931613949E+03  0.00000000000E+00 0.  1.
<scales pt_clust_5="13000.00000" pt_clust_6="13000.00000" pt_clust_7="13000.00000" pt_clust_8="13000.00000" pt_clust_9="35.93978"></scales>
<clustering>
<clus scale="   35.940">  2  9  1 -1</clus>
<clus scale="   91.844">  7  8 -1 -1</clus>
<clus scale="   92.093">  5  6 -1 -1</clus>
<clus scale="   95.709">  1  7  2 -1</clus>
<clus scale="   35.940">  2  5  1 -1</clus>
</clustering>
</event>
<event>
 9    1  0.1636528E-005  0.1429910E+03  0.7546771E-02  0.1210232E+00
         -1   -1    0    0    0  501 -0.00000000000E+00  0.00000000000E+00  0.66435131634E+03  0.66435131634E+03  0.00000000000E+00 0.  1.
         21   -1    0    0  501  502  0.00000000000E+00 -0.00000000000E+00 -0.82994646561E+02  0.82994646561E+02  0.00000000000E+00 0. -1.
         23    2    1    2    0    0  0.71856555162E+02 -0.80510625428E+02  0.20486390221E+03  0.25073660858E+03  0.96199288601E+02 0.  0.
         23    2    1    2    0    0  0.31709577358E+02  0.13645268666E+03  0.97985969710E+02  0.19424947855E+03  0.92232188870E+02 0.  0.
        -11    1    4    4    0    0 -0.92931644441E+01  0.12470128248E+03  0.74494873665E+02  0.14555500321E+03  0.00000000000E+00 0. -1.
         11    1    4    4    0    0  0.41002741802E+02  0.11751404188E+02  0.23491096045E+02  0.48694475345E+02  0.00000000000E+00 0.  1.
        -11    1    3    3    0    0  0.69900566613E+02 -0.56573091972E+02  0.20791267154E+03  0.22652656122E+03  0.00000000000E+00 0. -1.
         11    1    3    3    0    0  0.19559885496E+01 -0.23937533457E+02 -0.30487693287E+01  0.24210047369E+02  0.00000000000E+00 0.  1.
         -1    1    1    2    0  502 -0.10356613252E+03 -0.55942061236E+02  0.27850679785E+03  0.30235987576E+03  0.00000000000E+00 0.  1.
<scales pt_clust_5="13000.00000" pt_clust_6="13000.00000" pt_clust_7="13000.00000" pt_clust_8="13000.00000" pt_clust_9="117.70927"></scales>
<clustering>
<clus scale="   92.232">  5  6 -1 -1</clus>
<clus scale="   96.199">  7  8 -1 -1</clus>
<clus scale="  117.709">  2  9  1 -1</clus>
<clus scale="  140.353">  2  5  1 -1</clus>
<clus scale="  117.709">  2  5  1 -1</clus>
</clustering>
</event>
<event>
 9    1  0.1636528E-005  0.9742695E+02  0.7546771E-02  0.1286260E+00
         21   -1    0    0  501  502  0.00000000000E+00  0.00000000000E+00  0.96973246401E+02  0.96973246401E+02  0.00000000000E+00 0.  1.
          1   -1    0    0  502    0 -0.00000000000E+00 -0.00000000000E+00 -0.22324495819E+03  0.22324495819E+03  0.00000000000E+00 0. -1.
         23    2    1    2    0    0  0.30090545615E+02 -0.23755184909E+01 -0.14590975108E+03  0.17461734951E+03  0.91052068983E+02 0.  0.
         23    2    1    2    0    0 -0.38027902072E+02 -0.21691447005E+02 -0.14739403714E+02  0.10289220205E+03  0.91939735756E+02 0.  0.
        -11    1    3    3    0    0  0.11491941518E+02 -0.42306625244E+02 -0.37828935693E+02  0.57904608064E+02  0.00000000000E+00 0. -1.
         11    1    3    3    0    0  0.18598604097E+02  0.39931106753E+02 -0.10808081539E+03  0.11671274145E+03  0.00000000000E+00 0.  1.
        -13    1    4    4    0    0 -0.23066415859E+02 -0.50691148757E+02 -0.33755825186E+02  0.65123788564E+02  0.00000000000E+00 0. -1.
         13    1    4    4    0    0 -0.14961486214E+02  0.28999701752E+02  0.19016421472E+02  0.37768413483E+02  0.00000000000E+00 0.  1.
          1    1    1    2  501    0  0.79373564573E+01  0.24066965496E+02  0.34377443010E+02  0.42708653030E+02  0.00000000000E+00 0. -1.
<scales pt_clust_5="13000.00000" pt_clust_6="13000.00000" pt_clust_7="13000.00000" pt_clust_8="13000.00000" pt_clust_9="25.34207"></scales>
<clustering>
<clus scale="   25.342">  1  9  2 -1</clus>
<clus scale="   91.052">  5  6 -1 -1</clus>
<clus scale="   91.940">  7  8 -1 -1</clus>
<clus scale="   96.590">  2  5  1 -1</clus>
<clus scale="   25.342">  1  5  2 -1</clus>
</clustering>
</event>
<event>
 9    1  0.1636528E-005  0.1072384E+03  0.7546771E-02  0.1266455E+00
          3   -1    0    0  502    0 -0.00000000000E+00  0.00000000000E+00  0.43370820533E+02  0.43370820533E+02  0.00000000000E+00 0. -1.
         21   -1    0    0  501  502  0.00000000000E+00 -0.00000000000E+00 -0.56439832470E+03  0.56439832470E+03  0.00000000000E+00 0. -1.
         23    2    1    2    0    0  0.37103204215E+02  0.63420426047E+02 -0.82688495475E+02  0.14152621711E+03  0.88280715004E+02 0.  0.
         23    2    1    2    0    0  0.10975668128E+02 -0.36309042287E+02 -0.21417166479E+03  0.23538019148E+03  0.89975111578E+02 0.  0.
        -11    1    4    4    0    0  0.26019219919E+02 -0.59053038422E+02 -0.10843664836E+03  0.12618545027E+03  0.00000000000E+00 0.  1.
         11    1    4    4    0    0 -0.15043551791E+02  0.22743996135E+02 -0.10573501642E+03  0.10919474121E+03  0.00000000000E+00 0. -1.
        -13    1    3    3    0    0 -0.16807456435E+02  0.56424829418E+02 -0.31111212533E+02  0.66589484995E+02  0.00000000000E+00 0.  1.
         13    1    3    3    0    0  0.53910660650E+02  0.69955966296E+01 -0.51577282942E+02  0.74936732112E+02  0.00000000000E+00 0. -1.
          3    1    1    2  501    0 -0.48078872343E+02 -0.27111383761E+02 -0.22416734391E+03  0.23086273664E+03  0.00000000000E+00 0. -1.
<scales pt_clust_5="13000.00000" pt_clust_6="13000.00000" pt_clust_7="13000.00000" pt_clust_8="13000.00000" pt_clust_9="55.19606"></scales>
<clustering>
<clus scale="   55.196">  2  9  1 -1</clus>
<clus scale="   88.281">  7  8 -1 -1</clus>
<clus scale="   89.975">  5  6 -1 -1</clus>
<clus scale="  105.821">  1  7  2 -1</clus>
<clus scale="   55.196">  2  5  1 -1</clus>
</clustering>
</event>
<event>
 9    1  0.1636528E-005  0.9620228E+02  0.7546771E-02  0.1289039E+00
          3   -1    0    0  502    0 -0.00000000000E+00  0.00000000000E+00  0.24938814871E+03  0.24938814871E+03  0.00000000000E+00 0. -1.
         21   -1    0    0  501  502  0.00000000000E+00 -0.00000000000E+00 -0.39473723673E+03  0.39473723673E+03  0.00000000000E+00 0. -1.
         23    2    1    2    0    0  0.58583917305E+02  0.14644316571E+02  0.11460880699E+03  0.15884313781E+03  0.91920794246E+02 0.  0.
         23    2    1    2    0    0  0.30629738137E+02 -0.33154584446E+02  0.82578939926E+02  0.13083452282E+03  0.90889953864E+02 0.  0.
        -11    1    3    3    0    0  0.57678323521E+02  0.37450417476E+02  0.37297589107E+02  0.78233195809E+02  0.00000000000E+00 0. -1.
         11    1    3    3    0    0  0.90559378458E+00 -0.22806100905E+02  0.77311217888E+02  0.80609942004E+02  0.00000000000E+00 0.  1.
        -13    1    4    4    0    0 -0.22472194561E+02 -0.57829154823E+01 -0.60229907895E+01  0.23973277997E+02  0.00000000000E+00 0.  1.
         13    1    4    4    0    0  0.53101932698E+02 -0.27371668964E+02  0.88601930716E+02  0.10686124482E+03  0.00000000000E+00 0. -1.
          3    1    1    2  501    0 -0.89213655443E+02  0.18510267875E+02 -0.34253683494E+03  0.35444772482E+03  0.00000000000E+00 0. -1.
<scales pt_clust_5="13000.00000" pt_clust_6="13000.00000" pt_clust_7="13000.00000" pt_clust_8="13000.00000" pt_clust_9="91.11370"></scales>
<clustering>
<clus scale="   90.890">  7  8 -1 -1</clus>
<clus scale="   91.114">  2  9  1 -1</clus>
<clus scale="   91.921">  5  6 -1 -1</clus>
<clus scale="   95.218">  2  7  1 -1</clus>
<clus scale="   91.114">  2  5  1 -1</clus>
</clustering>
</event>
<event>
 9    1  0.1636528E-005  0.1027678E+03  0.7546771E-02  0.1276162E+00
         21   -1    0    0  501  502  0.00000000000E+00  0.00000000000E+00  0.83758693125E+02  0.83758693125E+02  0.00000000000E+00 0. -1.
          1   -1    0    0  502    0 -0.00000000000E+00 -0.00000000000E+00 -0.64827126200E+03  0.64827126200E+03  0.00000000000E+00 0. -1.
         23    2    1    2    0    0 -0.22253107330E+02 -0.70528526724E+02 -0.47025932055E+03  0.48477842379E+03  0.91634151574E+02 0.  0.
         23    2    1    2    0    0  0.12577155162E+02 -0.12086586931E+02 -0.12889820161E+03  0.15714518393E+03  0.88179317511E+02 0.  0.
        -11    1    4    4    0    0  0.75313733312E+01  0.33054257852E+02 -0.93813258767E+02  0.99750854968E+02  0.00000000000E+00 0.  1.
         11    1    4    4    0    0  0.50457818304E+01 -0.45140844784E+02 -0.35084942844E+02  0.57394328957E+02  0.00000000000E+00 0. -1.
        -13    1    3    3    0    0  0.35553417978E+02 -0.23447532434E+02 -0.19540308360E+03  0.19999049325E+03  0.00000000000E+00 0.  1.
         13    1    3    3    0    0 -0.57806525308E+02 -0.47080994290E+02 -0.27485623695E+03  0.28478793054E+03  0.00000000000E+00 0. -1.
          1    1    1    2  501    0  0.96759521683E+01  0.82615113656E+02  0.34644953293E+02  0.90106347409E+02  0.00000000000E+00 0. -1.
<scales pt_clust_5="13000.00000" pt_clust_6="13000.00000" pt_clust_7="13000.00000" pt_clust_8="13000.00000" pt_clust_9="83.17981"></scales>
<clustering>
<clus scale="   83.180">  1  9  2 -1</clus>
<clus scale="   88.179">  5  6 -1 -1</clus>
<clus scale="   91.634">  7  8 -1 -1</clus>
<clus scale="   99.699">  1  5  2 -1</clus>
<clus scale="   83.180">  1  5  2 -1</clus>
</clustering>
</event>
<event>
 9    1  0.1636528E-005  0.1013961E+03  0.7546771E-02  0.1277586E+00
         -3   -1    0    0    0  501 -0.00000000000E+00  0.00000000000E+00  0.33390606742E+03  0.33390606742E+03  0.00000000000E+00 0.  1.
         21   -1    0    0  501  502  0.00000000000E+00 -0.00000000000E+00 -0.91659539911E+02  0.91659539911E+02  0.00000000000E+00 0. -1.
         23    2    1    2    0    0 -0.33337439446E+02 -0.17572057935E+02  0.23035617715E+03  0.25065871101E+03  0.91354578219E+02 0.  0.
         23    2    1    2    0    0  0.53953010692E+02  0.39484395812E+02  0.52411477386E+02  0.12443795474E+03  0.90927975580E+02 0.  0.
        -11    1    4    4    0    0 -0.23394366042E+02 -0.14989178330E+01  0.20894644801E+02  0.31402695721E+02  0.00000000000E+00 0.  1.
         11    1    4    4    0    0  0.77347376733E+02  0.40983313645E+02  0.31516832585E+02  0.93035259021E+02  0.00000000000E+00 0. -1.
        -11    1    3    3    0    0  0.19410535504E+00 -0.42687231952E+02  0.51158840460E+02  0.66629305908E+02  0.00000000000E+00 0. -1.
         11    1    3    3    0    0 -0.33531544801E+02  0.25115174017E+02  0.17919733669E+03  0.18402940510E+03  0.00000000000E+00 0.  1.
         -3    1    1    2    0  502 -0.20615571246E+02 -0.21912337877E+02 -0.40521127029E+02  0.50468941585E+02  0.00000000000E+00 0.  1.
<scales pt_clust_5="13000.00000" pt_clust_6="13000.00000" pt_clust_7="13000.00000" pt_clust_8="13000.00000" pt_clust_9="30.08575"></scales>
<clustering>
<clus scale="   30.086">  2  9  1 -1</clus>
<clus scale="   90.928">  5  6 -1 -1</clus>
<clus scale="   91.355">  7  8 -1 -1</clus>
<clus scale="  101.012">  2  5  1 -1</clus>
<clus scale="   30.086">  2  5  1 -1</clus>
</clustering>
</event>
<event>
 9    1  0.1636528E-005  0.1895302E+03  0.7546771E-02  0.1188937E+00
         -2   -1    0    0    0  501 -0.00000000000E+00  0.00000000000E+00  0.14118298806E+03  0.14118298806E+03  0.00000000000E+00 0.  1.
         21   -1    0    0  501  502  0.00000000000E+00 -0.00000000000E+00 -0.51271724918E+03  0.51271724918E+03  0.00000000000E+00 0.  1.
         23    2    1    2    0    0  0.44757951678E+02  0.66027972371E+01  0.17157346220E+02  0.97273910910E+02  0.84385828459E+02 0.  0.
         23    2    1    2    0    0  0.12311124170E+03 -0.64957796082E+02 -0.47338829341E+02  0.17177948534E+03  0.88833179130E+02 0.  0.
        -11    1    3    3    0    0  0.65132084238E+02  0.22343645118E+01  0.31091438820E+02  0.72207051940E+02  0.00000000000E+00 0.  1.
         11    1    3    3    0    0 -0.20374132560E+02  0.43684327253E+01 -0.13934092600E+02  0.25066858970E+02  0.00000000000E+00 0. -1.
        -13    1    4    4    0    0  0.81438711810E+02 -0.85965143610E+02 -0.32161609488E+02  0.12270549630E+03  0.00000000000E+00 0. -1.
         13    1    4    4    0    0  0.41672529888E+02  0.21007347528E+02 -0.15177219853E+02  0.49073989036E+02  0.00000000000E+00 0.  1.
         -2    1    1    2    0  502 -0.16786919338E+03  0.58354998845E+02 -0.34135277800E+03  0.38484684099E+03  0.00000000000E+00 0.  1.
<scales pt_clust_5="13000.00000" pt_clust_6="13000.00000" pt_clust_7="13000.00000" pt_clust_8="13000.00000" pt_clust_9="167.42271"></scales>
<clustering>
<clus scale="   84.386">  5  6 -1 -1</clus>
<clus scale="   88.833">  7  8 -1 -1</clus>
<clus scale="   95.749">  1  5  2 -1</clus>
<clus scale="  167.423">  2  9  1 -1</clus>
<clus scale="  167.423">  2  5  1 -1</clus>
</clustering>
</event>
<event>
 9    1  0.1636528E-005  0.2397719E+03  0.7546771E-02  0.1119947E+00
         21   -1    0    0  501  502  0.00000000000E+00  0.00000000000E+00  0.37897781626E+03  0.37897781626E+03  0.00000000000E+00 0.  1.
         -1   -1    0    0    0  501 -0.00000000000E+00 -0.00000000000E+00 -0.79115175048E+03  0.79115175048E+03  0.00000000000E+00 0.  1.
         23    2    1    2    0    0 -0.19011100759E+03  0.12583052762E+03 -0.65729538612E+03  0.70155569188E+03  0.90375036961E+02 0.  0.
         23    2    1    2    0    0  0.12807379888E+03 -0.15274649203E+03  0.47852658072E+01  0.21890496060E+03  0.90344309273E+02 0.  0.
        -11    1    4    4    0    0  0.55119675083E+02 -0.94782801539E+01  0.14693317142E+02  0.57826550516E+02  0.00000000000E+00 0. -1.
         11    1    4    4    0    0  0.72954123801E+02 -0.14326821187E+03 -0.99080513347E+01  0.16107841008E+03  0.00000000000E+00 0.  1.
        -13    1    3    3    0    0 -0.16708401734E+03  0.80403662451E+02 -0.58060223658E+03  0.60949222711E+03  0.00000000000E+00 0.  1.
         13    1    3    3    0    0 -0.23026990252E+02  0.45426865170E+02 -0.76693149546E+02  0.92063464776E+02  0.00000000000E+00 0. -1.
         -1    1    1    2    0  502  0.62037208706E+02  0.26915964408E+02  0.24033618609E+03  0.24966891426E+03  0.00000000000E+00 0.  1.
<scales pt_clust_5="13000.00000" pt_clust_6="13000.00000" pt_clust_7="13000.00000" pt_clust_8="13000.00000" pt_clust_9="67.62458"></scales>
<clustering>
<clus scale="   67.625">  1  9  2 -1</clus>
<clus scale="   90.344">  5  6 -1 -1</clus>
<clus scale="   90.375">  7  8 -1 -1</clus>
<clus scale="  239.760">  1  5  2 -1</clus>
<clus scale="   67.625">  1  5  2 -1</clus>
</clustering>
</event>
<event>
 9    1  0.1636528E-005  0.1393077E+03  0.7546771E-02  0.1214383E+00
         21   -1    0    0  501  502  0.00000000000E+00  0.00000000000E+00  0.18522947380E+03  0.18522947380E+03  0.00000000000E+00 0. -1.
          1   -1    0    0  502    0 -0.00000000000E+00 -0.00000000000E+00 -0.36308628528E+03  0.36308628528E+03  0.00000000000E+00 0. -1.
         23    2    1    2    0    0  0.11034010298E+03  0.26966762200E+02 -0.27653681421E+03  0.31275683669E+03  0.91880817888E+02 0.  0.
         23    2    1    2    0    0 -0.72926188134E+02  0.48325980713E+02  0.38666347814E+02  0.13226111536E+03  0.91347068131E+02 0.  0.
        -13    1    4    4    0    0 -0.12375622822E+02 -0.27011564324E+02  0.67013507488E+01  0.30457983343E+02  0.00000000000E+00 0.  1.
         13    1    4    4    0    0 -0.60550565312E+02  0.75337545037E+02  0.31964997065E+02  0.10180313202E+03  0.00000000000E+00 0. -1.
        -13    1    3    3    0    0  0.97839219412E+02  0.48867119685E+02 -0.26137514778E+03  0.28333280099E+03  0.00000000000E+00 0. -1.
         13    1    3    3    0    0  0.12500883565E+02 -0.21900357486E+02 -0.15161666430E+02  0.29424035699E+02  0.00000000000E+00 0.  1.
          1    1    1    2  501    0 -0.37413914843E+02 -0.75292742913E+02  0.60013654917E+02  0.10329780702E+03  0.00000000000E+00 0. -1.
<scales pt_clust_5="13000.00000" pt_clust_6="13000.00000" pt_clust_7="13000.00000" pt_clust_8="13000.00000" pt_clust_9="84.07615"></scales>
<clustering>
<clus scale="   84.076">  1  9  2 -1</clus>
<clus scale="   91.347">  5  6 -1 -1</clus>
<clus scale="   91.881">  7  8 -1 -1</clus>
<clus scale="  138.956">  1  5  2 -1</clus>
<clus scale="   84.076">  1  5  2 -1</clus>
</clustering>
</event>
<event>
 9    1  0.1636528E-005  0.1265255E+03  0.7546771E-02  0.1233665E+00
         21   -1    0    0  501  502  0.00000000000E+00  0.00000000000E+00  0.11354069804E+04  0.11354069804E+04  0.00000000000E+00 0. -1.
         -1   -1    0    0    0  501 -0.00000000000E+00 -0.00000000000E+00 -0.20958890624E+02  0.20958890624E+02  0.00000000000E+00 0.  1.
         23    2    1    2    0    0 -0.73971328706E+02 -0.22170679205E+02  0.28720971591E+03  0.31203410897E+03  0.94406396827E+02 0.  0.
         23    2    1    2    0    0  0.10054912532E+03  0.51535493904E+01  0.61868211046E+03  0.63340125932E+03  0.91065448011E+02 0.  0.
        -11    1    4    4    0    0  0.71460946844E+02 -0.38307768897E+02  0.43144734954E+03  0.43899996299E+03  0.00000000000E+00 0. -1.
         11    1    4    4    0    0  0.29088178475E+02  0.43461318288E+02  0.18723476092E+03  0.19440129632E+03  0.00000000000E+00 0.  1.
        -13    1    3    3    0    0 -0.88792232970E+02  0.42393912570E+01  0.18194236388E+03  0.20249705392E+03  0.00000000000E+00 0.  1.
         13    1    3    3    0    0  0.14820904263E+02 -0.26410070462E+02  0.10526735203E+03  0.10953705505E+03  0.00000000000E+00 0. -1.
         -1    1    1    2    0  502 -0.26577796612E+02  0.17017129814E+02  0.20855626337E+03  0.21093050270E+03  0.00000000000E+00 0.  1.
<scales pt_clust_5="13000.00000" pt_clust_6="13000.00000" pt_clust_7="13000.00000" pt_clust_8="13000.00000" pt_clust_9="31.55887"></scales>
<clustering>
<clus scale="   31.559">  1  9  2 -1</clus>
<clus scale="   91.065">  5  6 -1 -1</clus>
<clus scale="   94.406">  7  8 -1 -1</clus>
<clus scale="  124.053">  1  5  2 -1</clus>
<clus scale="   31.559">  1  5  2 -1</clus>
</clustering>
</event>
<event>
 9    1  0.1636528E-005  0.9479371E+02  0.7546771E-02  0.1293636E+00
          3   -1    0    0  502    0 -0.00000000000E+00  0.00000000000E+00  0.30629291569E+03  0.30629291569E+03  0.00000000000E+00 0. -1.
         21   -1    0    0  501  502  0.00000000000E+00 -0.00000000000E+00 -0.15866251116E+03  0.15866251116E+03  0.00000000000E+00 0. -1.
         23    2    1    2    0    0  0.66610448002E+01  0.23025710539E+02  0.25417906383E+03  0.27038546247E+03  0.89032291681E+02 0.  0.
         23    2    1    2    0    0  0.36346965939E+02  0.30173407030E+01 -0.31758834889E+02  0.10445089126E+03  0.92580553110E+02 0.  0.
        -11    1    4    4    0    0  0.56451784531E+02 -0.11909813183E+02 -0.47621022249E+02  0.74809153095E+02  0.00000000000E+00 0. -1.
         11    1    4    4    0    0 -0.20104818592E+02  0.14927153886E+02  0.15862187360E+02  0.29641738168E+02  0.00000000000E+00 0.  1.
        -13    1    3    3    0    0 -0.16477828425E+02 -0.18240666738E+02  0.20625493434E+02  0.32088186799E+02  0.00000000000E+00 0.  1.
         13    1    3    3    0    0  0.23138873225E+02  0.41266377277E+02  0.23355357039E+03  0.23829727567E+03  0.00000000000E+00 0. -1.
          3    1    1    2  501    0 -0.43008010739E+02 -0.26043051242E+02 -0.74789824408E+02  0.90119073123E+02  0.00000000000E+00 0. -1.
<scales pt_clust_5="13000.00000" pt_clust_6="13000.00000" pt_clust_7="13000.00000" pt_clust_8="13000.00000" pt_clust_9="50.27852"></scales>
<clustering>
<clus scale="   50.279">  2  9  1 -1</clus>
<clus scale="   89.032">  7  8 -1 -1</clus>
<clus scale="   91.331">  1  7  2 -1</clus>
<clus scale="   92.581">  5  6 -1 -1</clus>
<clus scale="   50.279">  2  5  1 -1</clus>
</clustering>
</event>
<event>
 9    1  0.1636528E-005  0.1264425E+03  0.7546771E-02  0.1240365E+00
         21   -1    0    0  501  502  0.00000000000E+00  0.00000000000E+00  0.38729380256E+03  0.38729380256E+03  0.00000000000E+00 0.  1.
          3   -1    0    0  502    0 -0.00000000000E+00 -0.00000000000E+00 -0.52852534770E+02  0.52852534770E+02  0.00000000000E+00 0. -1.
         23    2    1    2    0    0 -0.68340257451E+02  0.34445140523E+02  0.12157148725E+03  0.18228980343E+03  0.11221892634E+03 0.  0.
         23    2    1    2    0    0  0.43276583193E+02 -0.40169977845E+01  0.12018357921E+03  0.15713517790E+03  0.91424135201E+02 0.  0.
        -11    1    4    4    0    0 -0.28892610428E+02  0.75443715503E+00  0.34409056685E+02  0.44937014751E+02  0.00000000000E+00 0.  1.
         11    1    4    4    0    0  0.72169193621E+02 -0.47714349395E+01  0.85774522523E+02  0.11219816315E+03  0.00000000000E+00 0. -1.
        -13    1    3    3    0    0 -0.68996368274E+02 -0.10317620935E+02  0.22053712996E+02  0.73166374748E+02  0.00000000000E+00 0.  1.
         13    1    3    3    0    0  0.65611082348E+00  0.44762761459E+02  0.99517774252E+02  0.10912342868E+03  0.00000000000E+00 0. -1.
          3    1    1    2  501    0  0.25063674258E+02 -0.30428142739E+02  0.92686201338E+02  0.10072135601E+03  0.00000000000E+00 0. -1.
<scales pt_clust_5="13000.00000" pt_clust_6="13000.00000" pt_clust_7="13000.00000" pt_clust_8="13000.00000" pt_clust_9="39.42156"></scales>
<clustering>
<clus scale="   39.422">  1  9  2 -1</clus>
<clus scale="   91.424">  5  6 -1 -1</clus>
<clus scale="  108.411">  1  5  2 -1</clus>
<clus scale="  112.219">  7  8 -1 -1</clus>
<clus scale="   39.422">  1  5  2 -1</clus>
</clustering>
</event>
<event>
 9    1  0.1636528E-005  0.1145832E+03  0.7546771E-02  0.1252854E+00
          2   -1    0    0  502    0 -0.00000000000E+00  0.00000000000E+00  0.36612914697E+03  0.36612914697E+03  0.00000000000E+00 0. -1.
         21   -1    0    0  501  502  0.00000000000E+00 -0.00000000000E+00 -0.82318312482E+02  0.82318312482E+02  0.00000000000E+00 0.  1.
         23    2    1    2    0    0 -0.99479988151E+01  0.70372840914E+02  0.24127000648E+03  0.26844955852E+03  0.93822438828E+02 0.  0.
         23    2    1    2    0    0 -0.29051543047E+02 -0.55156337743E+02  0.68472799257E+02  0.13075388234E+03  0.92313811332E+02 0.  0.
        -11    1    4    4    0    0 -0.51863583569E+02 -0.30345693092E+02  0.75329143709E+02  0.96359598804E+02  0.00000000000E+00 0. -1.
         11    1    4    4    0    0  0.22812040522E+02 -0.24810644651E+02 -0.68563444519E+01  0.34394283537E+02  0.00000000000E+00 0.  1.
        -11    1    3    3    0    0  0.69960588724E+00 -0.20627544149E+02  0.19067594339E+02  0.28099077918E+02  0.00000000000E+00 0. -1.
         11    1    3    3    0    0 -0.10647604702E+02  0.91000385063E+02  0.22220241214E+03  0.24035048060E+03  0.00000000000E+00 0.  1.
          2    1    1    2  501    0  0.38999541862E+02 -0.15216503171E+02 -0.25931971243E+02  0.49244018589E+02  0.00000000000E+00 0. -1.
<scales pt_clust_5="13000.00000" pt_clust_6="13000.00000" pt_clust_7="13000.00000" pt_clust_8="13000.00000" pt_clust_9="41.86295"></scales>
<clustering>
<clus scale="   41.863">  2  9  1 -1</clus>
<clus scale="   92.314">  5  6 -1 -1</clus>
<clus scale="   93.822">  7  8 -1 -1</clus>
<clus scale="  113.351">  2  5  1 -1</clus>
<clus scale="   41.863">  2  5  1 -1</clus>
</clustering>
</event>
<event>
 9    1  0.1636528E-005  0.1043874E+03  0.7546771E-02  0.1275986E+00
          1   -1    0    0  502    0 -0.00000000000E+00  0.00000000000E+00  0.29866098410E+03  0.29866098410E+03  0.00000000000E+00 0. -1.
         21   -1    0    0  501  502  0.00000000000E+00 -0.00000000000E+00 -0.61662096359E+02  0.61662096359E+02  0.00000000000E+00 0. -1.
         23    2    1    2    0    0 -0.21709740864E+02 -0.32777679092E+02  0.17499933788E+03  0.20332515688E+03  0.95763573790E+02 0.  0.
         23    2    1    2    0    0 -0.73062537600E+01  0.56585584627E+02  0.29337023107E+02  0.10724267297E+03  0.85936140526E+02 0.  0.
        -13    1    3    3    0    0  0.25192296345E+02  0.14030102062E+02  0.95884964749E+02  0.10012702944E+03  0.00000000000E+00 0.  1.
         13    1    3    3    0    0 -0.46902037209E+02 -0.46807781154E+02  0.79114373134E+02  0.10319812744E+03  0.00000000000E+00 0. -1.
        -13    1    4    4    0    0 -0.37044139223E+02  0.59645373215E+02  0.83304030020E+01  0.70705264379E+02  0.00000000000E+00 0. -1.
         13    1    4    4    0    0  0.29737885463E+02 -0.30597885870E+01  0.21006620105E+02  0.36537408587E+02  0.00000000000E+00 0.  1.
          1    1    1    2  501    0  0.29015994624E+02 -0.23807905535E+02  0.32662526752E+02  0.49755250615E+02  0.00000000000E+00 0. -1.
<scales pt_clust_5="13000.00000" pt_clust_6="13000.00000" pt_clust_7="13000.00000" pt_clust_8="13000.00000" pt_clust_9="37.53324"></scales>
<clustering>
<clus scale="   37.533">  2  9  1 -1</clus>
<clus scale="   85.936">  7  8 -1 -1</clus>
<clus scale="   95.452">  2  7  1 -1</clus>
<clus scale="   95.764">  5  6 -1 -1</clus>
<clus scale="   37.533">  2  5  1 -1</clus>
</clustering>
</event>
<event>
 9    1  0.1636528E-005  0.1006940E+03  0.7546771E-02  0.1279328E+00
         21   -1    0    0  501  502  0.00000000000E+00  0.00000000000E+00  0.10744095021E+03  0.10744095021E+03  0.00000000000E+00 0.  1.
          2   -1    0    0  502    0 -0.00000000000E+00 -0.00000000000E+00 -0.39075290487E+03  0.39075290487E+03  0.00000000000E+00 0. -1.
         23    2    1    2    0    0 -0.23823206728E+02 -0.22476989399E+02 -0.20762091504E+03  0.22942134136E+03  0.91950787261E+02 0.  0.
         23    2    1    2    0    0  0.89756309962E+02  0.27501657691E+02  0.37810734382E+02  0.13741394302E+03  0.92953772110E+02 0.  0.
        -13    1    3    3    0    0  0.25547471657E+02 -0.30628138794E+02 -0.13823776590E+03  0.14387646129E+03  0.00000000000E+00 0.  1.
         13    1    3    3    0    0 -0.49370678385E+02  0.81511493948E+01 -0.69383149144E+02  0.85544880068E+02  0.00000000000E+00 0. -1.
        -13    1    4    4    0    0  0.54308171065E+02  0.47986193124E+02 -0.11440057475E+02  0.73368433880E+02  0.00000000000E+00 0.  1.
         13    1    4    4    0    0  0.35448138897E+02 -0.20484535433E+02  0.49250791857E+02  0.64045509145E+02  0.00000000000E+00 0. -1.
          2    1    1    2  501    0 -0.65933103234E+02 -0.50246682916E+01 -0.11350177400E+03  0.13135857069E+03  0.00000000000E+00 0. -1.
<scales pt_clust_5="13000.00000" pt_clust_6="13000.00000" pt_clust_7="13000.00000" pt_clust_8="13000.00000" pt_clust_9="66.12432"></scales>
<clustering>
<clus scale="   66.124">  1  9  2 -1</clus>
<clus scale="   91.951">  5  6 -1 -1</clus>
<clus scale="   92.954">  7  8 -1 -1</clus>
<clus scale="   99.769">  2  5  1 -1</clus>
<clus scale="   66.124">  1  5  2 -1</clus>
</clustering>
</event>
<event>
 9    1  0.1636528E-005  0.9243999E+02  0.7546771E-02  0.1297219E+00
         21   -1    0    0  501  502  0.00000000000E+00  0.00000000000E+00  0.60715147204E+02  0.60715147204E+02  0.00000000000E+00 0. -1.
          2   -1    0    0  502    0 -0.00000000000E+00 -0.00000000000E+00 -0.25813108832E+03  0.25813108832E+03  0.00000000000E+00 0.  1.
         23    2    1    2    0    0  0.11401202499E+02  0.42239064295E+00 -0.17276875894E+03  0.19604817650E+03  0.91954758493E+02 0.  0.
         23    2    1    2    0    0  0.12707454035E+02  0.10038780356E+02 -0.23143280271E+02  0.96474587759E+02  0.92246832804E+02 0.  0.
        -11    1    4    4    0    0 -0.21395605607E+02 -0.31570605519E+02 -0.18746532614E+02  0.42495971069E+02  0.00000000000E+00 0.  1.
         11    1    4    4    0    0  0.34103059641E+02  0.41609385874E+02 -0.43967476567E+01  0.53978616689E+02  0.00000000000E+00 0. -1.
        -13    1    3    3    0    0  0.29564399298E+02 -0.34878739858E+02 -0.12945909890E+03  0.13729617070E+03  0.00000000000E+00 0.  1.
         13    1    3    3    0    0 -0.18163196799E+02  0.35301130501E+02 -0.43309660039E+02  0.58752005799E+02  0.00000000000E+00 0. -1.
          2    1    1    2  501    0 -0.24108656534E+02 -0.10461170999E+02 -0.15039019001E+01  0.26323471265E+02  0.00000000000E+00 0.  1.
<scales pt_clust_5="13000.00000" pt_clust_6="13000.00000" pt_clust_7="13000.00000" pt_clust_8="13000.00000" pt_clust_9="26.28048"></scales>
<clustering>
<clus scale="   26.280">  1  9  2 -1</clus>
<clus scale="   91.955">  7  8 -1 -1</clus>
<clus scale="   92.149">  2  7  1 -1</clus>
<clus scale="   92.247">  5  6 -1 -1</clus>
<clus scale="   26.280">  1  5  2 -1</clus>
</clustering>
</event>
<event>
 9    1  0.1636528E-005  0.1586010E+03  0.7546771E-02  0.1191657E+00
         -1   -1    0    0    0  501 -0.00000000000E+00  0.00000000000E+00  0.50250531263E+02  0.50250531263E+02  0.00000000000E+00 0.  1.
         21   -1    0    0  501  502  0.00000000000E+00 -0.00000000000E+00 -0.61904994333E+03  0.61904994333E+03  0.00000000000E+00 0. -1.
         23    2    1    2    0    0  0.10838648611E+03 -0.43767093636E+02 -0.21412566111E+03  0.26096226914E+03  0.92673180104E+02 0.  0.
         23    2    1    2    0    0 -0.13179925506E+03  0.52998407274E+02 -0.24281775202E+03  0.29368595123E+03  0.84327352891E+02 0.  0.
        -11    1    4    4    0    0 -0.38757148047E+02  0.45507051894E+02 -0.15251709855E+03  0.16381231226E+03  0.00000000000E+00 0. -1.
         11    1    4    4    0    0 -0.93042107010E+02  0.74913553799E+01 -0.90300653465E+02  0.12987363897E+03  0.00000000000E+00 0.  1.
        -13    1    3    3    0    0 -0.42514552768E+01 -0.21648624061E+02 -0.86676386365E+02  0.89440112640E+02  0.00000000000E+00 0. -1.
         13    1    3    3    0    0  0.11263794139E+03 -0.22118469575E+02 -0.12744927475E+03  0.17152215650E+03  0.00000000000E+00 0.  1.
         -1    1    1    2    0  502  0.23412768944E+02 -0.92313136379E+01 -0.11185599894E+03  0.11465225423E+03  0.00000000000E+00 0.  1.
<scales pt_clust_5="13000.00000" pt_clust_6="13000.00000" pt_clust_7="13000.00000" pt_clust_8="13000.00000" pt_clust_9="25.16694"></scales>
<clustering>
<clus scale="   25.167">  2  9  1 -1</clus>
<clus scale="   84.327">  5  6 -1 -1</clus>
<clus scale="   92.673">  7  8 -1 -1</clus>
<clus scale="  153.873">  2  5  1 -1</clus>
<clus scale="   25.167">  2  5  1 -1</clus>
</clustering>
</event>
<event>
 9    1  0.1636528E-005  0.1276676E+03  0.7546771E-02  0.1230998E+00
          4   -1    0    0  502    0 -0.00000000000E+00  0.00000000000E+00  0.19971556725E+03  0.19971556725E+03  0.00000000000E+00 0. -1.
         21   -1    0    0  501  502  0.00000000000E+00 -0.00000000000E+00 -0.13463441170E+03  0.13463441170E+03  0.00000000000E+00 0.  1.
         23    2    1    2    0    0  0.37619099748E+02  0.92007990813E+02  0.77613377777E+02  0.15688747955E+03  0.93322975689E+02 0.  0.
         23    2    1    2    0    0  0.12141587165E+02 -0.70510893976E+02 -0.28198904973E+02  0.12103824855E+03  0.93465903208E+02 0.  0.
        -11    1    3    3    0    0  0.63240663524E+02  0.52646328314E+02  0.72454813037E+02  0.10963903201E+03  0.00000000000E+00 0.  1.
         11    1    3    3    0    0 -0.25621563776E+02  0.39361662499E+02  0.51585647398E+01  0.47248447543E+02  0.00000000000E+00 0. -1.
        -11    1    4    4    0    0 -0.33174233651E+02 -0.39344348175E+02  0.12086070013E+02  0.52863792902E+02  0.00000000000E+00 0. -1.
         11    1    4    4    0    0  0.45315820816E+02 -0.31166545801E+02 -0.40284974986E+02  0.68174455649E+02  0.00000000000E+00 0.  1.
          4    1    1    2  501    0 -0.49760686912E+02 -0.21497096837E+02  0.15666682747E+02  0.56424250838E+02  0.00000000000E+00 0. -1.
<scales pt_clust_5="13000.00000" pt_clust_6="13000.00000" pt_clust_7="13000.00000" pt_clust_8="13000.00000" pt_clust_9="54.20566"></scales>
<clustering>
<clus scale="   54.206">  2  9  1 -1</clus>
<clus scale="   93.323">  5  6 -1 -1</clus>
<clus scale="   93.466">  7  8 -1 -1</clus>
<clus scale="  127.563">  1  5  2 -1</clus>
<clus scale="   54.206">  2  5  1 -1</clus>
</clustering>
</event>
<event>
 9    1  0.1636528E-005  0.2107098E+03  0.7546771E-02  0.1142766E+00
          1   -1    0    0  502    0 -0.00000000000E+00  0.00000000000E+00  0.40759287892E+03  0.40759287892E+03  0.00000000000E+00 0. -1.
         21   -1    0    0  501  502  0.00000000000E+00 -0.00000000000E+00 -0.38274469129E+03  0.38274469129E+03  0.00000000000E+00 0. -1.
         23    2    1    2    0    0  0.14717678886E+03  0.10198180889E+03  0.28777264774E+03  0.35090006750E+03  0.90865087172E+02 0.  0.
         23    2    1    2    0    0 -0.10843357091E+03 -0.16740324727E+03 -0.79290621655E+02  0.24068542558E+03  0.10890723075E+03 0.  0.
        -11    1    4    4    0    0 -0.15141085113E+02 -0.16896209481E+02  0.26129515139E+02  0.34604709429E+02  0.00000000000E+00 0. -1.
         11    1    4    4    0    0 -0.93292485800E+02 -0.15050703778E+03 -0.10542013679E+03  0.20608071616E+03  0.00000000000E+00 0.  1.
        -11    1    3    3    0    0  0.96411097488E+02  0.34008138932E+02  0.91995352111E+02  0.13753108028E+03  0.00000000000E+00 0.  1.
         11    1    3    3    0    0  0.50765691371E+02  0.67973669954E+02  0.19577729563E+03  0.21336898723E+03  0.00000000000E+00 0. -1.
          1    1    1    2  501    0 -0.38743217946E+02  0.65421438380E+02 -0.18363383845E+03  0.19875207712E+03  0.00000000000E+00 0. -1.
<scales pt_clust_5="13000.00000" pt_clust_6="13000.00000" pt_clust_7="13000.00000" pt_clust_8="13000.00000" pt_clust_9="76.03290"></scales>
<clustering>
<clus scale="   76.033">  2  9  1 -1</clus>
<clus scale="   90.865">  7  8 -1 -1</clus>
<clus scale="  108.907">  5  6 -1 -1</clus>
<clus scale="  201.976">  1  7  2 -1</clus>
<clus scale="   76.033">  2  5  1 -1</clus>
</clustering>
</event>
<event>
 9    1  0.1636528E-005  0.1039673E+03  0.7546771E-02  0.1273054E+00
          2   -1    0    0  502    0 -0.00000000000E+00  0.00000000000E+00  0.27099191091E+03  0.27099191091E+03  0.00000000000E+00 0. -1.
         21   -1    0    0  501  502  0.00000000000E+00 -0.00000000000E+00 -0.96415806860E+02  0.96415806860E+02  0.00000000000E+00 0. -1.
         23    2    1    2    0    0  0.35864048900E+02 -0.87556935323E+01  0.12121788853E+03  0.15487941156E+03  0.89055956873E+02 0.  0.
         23    2    1    2    0    0 -0.73720081557E+02 -0.10313982071E+02  0.96430038247E+02  0.15209724095E+03  0.91070246385E+02 0.  0.
        -11    1    3    3    0    0  0.21032199905E+01 -0.20098775410E+02  0.11732406481E+03  0.11905175551E+03  0.00000000000E+00 0. -1.
         11    1    3    3    0    0  0.33760828909E+02  0.11343081878E+02  0.38938237210E+01  0.35827656054E+02  0.00000000000E+00 0.  1.
        -11    1    4    4    0    0 -0.19672435671E+02  0.25399293164E+02  0.78592423100E+02  0.84905228267E+02  0.00000000000E+00 0.  1.
         11    1    4    4    0    0 -0.54047645886E+02 -0.35713275236E+02  0.17837615148E+02  0.67192012680E+02  0.00000000000E+00 0. -1.
          2    1    1    2  501    0  0.37856032657E+02  0.19069675604E+02 -0.43071822722E+02  0.60431065263E+02  0.00000000000E+00 0. -1.
<scales pt_clust_5="13000.00000" pt_clust_6="13000.00000" pt_clust_7="13000.00000" pt_clust_8="13000.00000" pt_clust_9="42.38787"></scales>
<clustering>
<clus scale="   42.388">  2  9  1 -1</clus>
<clus scale="   89.056">  5  6 -1 -1</clus>
<clus scale="   91.070">  7  8 -1 -1</clus>
<clus scale="  102.207">  1  5  2 -1</clus>
<clus scale="   42.388">  2  5  1 -1</clus>
</clustering>
</event>
<event>
 9    1  0.1636528E-005  0.1066378E+03  0.7546771E-02  0.1267179E+00
         21   -1    0    0  501  502  0.00000000000E+00  0.00000000000E+00  0.14674050359E+03  0.14674050359E+03  0.00000000000E+00 0. -1.
         -3   -1    0    0    0  501 -0.00000000000E+00 -0.00000000000E+00 -0.14660453078E+03  0.14660453078E+03  0.00000000000E+00 0.  1.
         23    2    1    2    0    0  0.64955251412E+02  0.30913594134E-02 -0.67722214616E+02  0.13234666963E+03  0.93328226785E+02 0.  0.
         23    2    1    2    0    0 -0.26756151406E+02 -0.90427930251E+01  0.19783450410E+02  0.98933336043E+02  0.92729479276E+02 0.  0.
        -11    1    4    4    0    0 -0.13719226183E+01  0.33321047724E+02 -0.16925006996E+02  0.37398265399E+02  0.00000000000E+00 0.  1.
         11    1    4    4    0    0 -0.25384228787E+02 -0.42363840749E+02  0.36708457405E+02  0.61535070644E+02  0.00000000000E+00 0. -1.
        -11    1    3    3    0    0  0.18955126601E+02  0.43569739440E+02 -0.14716828875E+02  0.49741371829E+02  0.00000000000E+00 0.  1.
         11    1    3    3    0    0  0.46000124812E+02 -0.43566648081E+02 -0.53005385741E+02  0.82605297804E+02  0.00000000000E+00 0. -1.
         -3    1    1    2    0  502 -0.38199100007E+02  0.90397016656E+01  0.48074737012E+02  0.62065028690E+02  0.00000000000E+00 0.  1.
<scales pt_clust_5="13000.00000" pt_clust_6="13000.00000" pt_clust_7="13000.00000" pt_clust_8="13000.00000" pt_clust_9="39.25414"></scales>
<clustering>
<clus scale="   39.254">  1  9  2 -1</clus>
<clus scale="   92.729">  5  6 -1 -1</clus>
<clus scale="   93.328">  7  8 -1 -1</clus>
<clus scale="  106.114">  1  5  2 -1</clus>
<clus scale="   39.254">  1  5  2 -1</clus>
</clustering>
</event>
<event>
 9    1  0.1636528E-005  0.1037149E+03  0.7546771E-02  0.1273757E+00
         21   -1    0    0  501  502  0.00000000000E+00  0.00000000000E+00  0.52073713380E+02  0.52073713380E+02  0.00000000000E+00 0. -1.
         -2   -1    0    0    0  501 -0.00000000000E+00 -0.00000000000E+00 -0.32091053615E+03  0.32091053615E+03  0.00000000000E+00 0.  1.
         23    2    1    2    0    0 -0.26121025713E+02  0.30231427273E+02 -0.18369562893E+03  0.21011619074E+03  0.93853515349E+02 0.  0.
         23    2    1    2    0    0  0.46855950139E+02 -0.26176668142E+02 -0.92257480577E+02  0.14057412016E+03  0.91481924549E+02 0.  0.
        -13    1    4    4    0    0  0.24687004015E+02 -0.60420752632E+02 -0.57090815871E+02  0.86714916668E+02  0.00000000000E+00 0.  1.
         13    1    4    4    0    0  0.22168946124E+02  0.34244084490E+02 -0.35166664705E+02  0.53859203497E+02  0.00000000000E+00 0. -1.
        -13    1    3    3    0    0 -0.55902527091E+02  0.30515975473E+02 -0.80156130318E+02  0.10237833033E+03  0.00000000000E+00 0. -1.
         13    1    3    3    0    0  0.29781501378E+02 -0.28454820016E+00 -0.10353949861E+03  0.10773786041E+03  0.00000000000E+00 0.  1.
         -2    1    1    2    0  502 -0.20734924427E+02 -0.40547591308E+01  0.71162867360E+01  0.22293938627E+02  0.00000000000E+00 0.  1.
<scales pt_clust_5="13000.00000" pt_clust_6="13000.00000" pt_clust_7="13000.00000" pt_clust_8="13000.00000" pt_clust_9="21.12766"></scales>
<clustering>
<clus scale="   21.128">  1  9  2 -1</clus>
<clus scale="   91.482">  5  6 -1 -1</clus>
<clus scale="   93.854">  7  8 -1 -1</clus>
<clus scale="  101.574">  1  5  2 -1</clus>
<clus scale="   21.128">  1  5  2 -1</clus>
</clustering>
</event>
<event>
 9    1  0.1636528E-005  0.9493602E+02  0.7546771E-02  0.1292629E+00
         21   -1    0    0  501  502  0.00000000000E+00  0.00000000000E+00  0.95307045227E+02  0.95307045227E+02  0.00000000000E+00 0. -1.
          3   -1    0    0  502    0 -0.00000000000E+00 -0.00000000000E+00 -0.31056659242E+03  0.31056659242E+03  0.00000000000E+00 0. -1.
         23    2    1    2    0    0 -0.38924462363E+01  0.23432624961E+02 -0.15699791775E+03  0.18402610889E+03  0.93021629337E+02 0.  0.
         23    2    1    2    0    0 -0.20362428058E+02 -0.10577506865E+02 -0.12124990386E+03  0.15313744432E+03  0.90680899533E+02 0.  0.
        -11    1    3    3    0    0  0.43443288505E+02  0.80478722000E+01 -0.55139858457E+02  0.70657565439E+02  0.00000000000E+00 0.  1.
         11    1    3    3    0    0 -0.47335734741E+02  0.15384752761E+02 -0.10185805929E+03  0.11336854345E+03  0.00000000000E+00 0. -1.
        -13    1    4    4    0    0  0.26247377606E+02  0.15443616658E+01 -0.94410565636E+02  0.98003391716E+02  0.00000000000E+00 0.  1.
         13    1    4    4    0    0 -0.46609805664E+02 -0.12121868530E+02 -0.26839338225E+02  0.55134052609E+02  0.00000000000E+00 0. -1.
          3    1    1    2  501    0  0.24254874294E+02 -0.12855118097E+02  0.62988274420E+02  0.68710084432E+02  0.00000000000E+00 0. -1.
<scales pt_clust_5="13000.00000" pt_clust_6="13000.00000" pt_clust_7="13000.00000" pt_clust_8="13000.00000" pt_clust_9="27.45092"></scales>
<clustering>
<clus scale="   27.451">  1  9  2 -1</clus>
<clus scale="   90.681">  7  8 -1 -1</clus>
<clus scale="   92.644">  1  7  2 -1</clus>
<clus scale="   93.022">  5  6 -1 -1</clus>
<clus scale="   27.451">  1  5  2 -1</clus>
</clustering>
</event>
<event>
 9    1  0.1636528E-005  0.1144066E+03  0.7546771E-02  0.1252871E+00
         21   -1    0    0  501  502  0.00000000000E+00  0.00000000000E+00  0.41216659443E+02  0.41216659443E+02  0.00000000000E+00 0.  1.
         -4   -1    0    0    0  501 -0.00000000000E+00 -0.00000000000E+00 -0.50784709213E+03  0.50784709213E+03  0.00000000000E+00 0.  1.
         23    2    1    2    0    0 -0.20832534560E+01 -0.73147562532E+02 -0.23432089433E+03  0.26185949560E+03  0.91154857611E+02 0.  0.
         23    2    1    2    0    0 -0.38931531043E+02  0.60039781495E+02 -0.20780460688E+03  0.23766116223E+03  0.90441328609E+02 0.  0.
        -11    1    4    4    0    0 -0.63473319768E+02  0.61317928237E+02 -0.18053594246E+03  0.20095267394E+03  0.00000000000E+00 0.  1.
         11    1    4    4    0    0  0.24541788726E+02 -0.12781467419E+01 -0.27268664424E+02  0.36708488288E+02  0.00000000000E+00 0. -1.
        -13    1    3    3    0    0 -0.22382468958E+02 -0.40919830409E+02 -0.21333245451E+03  0.21837157229E+03  0.00000000000E+00 0.  1.
         13    1    3    3    0    0  0.20299215502E+02 -0.32227732123E+02 -0.20988439826E+02  0.43487923313E+02  0.00000000000E+00 0. -1.
         -4    1    1    2    0  502  0.41014784499E+02  0.13107781036E+02 -0.24504931477E+02  0.49543093745E+02  0.00000000000E+00 0.  1.
<scales pt_clust_5="13000.00000" pt_clust_6="13000.00000" pt_clust_7="13000.00000" pt_clust_8="13000.00000" pt_clust_9="43.05841"></scales>
<clustering>
<clus scale="   43.058">  1  9  2 -1</clus>
<clus scale="   90.441">  5  6 -1 -1</clus>
<clus scale="   91.155">  7  8 -1 -1</clus>
<clus scale="  113.839">  1  5  2 -1</clus>
<clus scale="   43.058">  1  5  2 -1</clus>
</clustering>
</event>
<event>
 9    1  0.1636528E-005  0.1534983E+03  0.7546771E-02  0.1196433E+00
         21   -1    0    0  501  502  0.00000000000E+00  0.00000000000E+00  0.22672060782E+03  0.22672060782E+03  0.00000000000E+00 0. -1.
          1   -1    0    0  502    0 -0.00000000000E+00 -0.00000000000E+00 -0.42846512005E+03  0.42846512005E+03  0.00000000000E+00 0. -1.
         23    2    1    2    0    0  0.20509872339E+02 -0.11861891849E+03 -0.29865839197E+03  0.33461900924E+03  0.91005184251E+02 0.  0.
         23    2    1    2    0    0  0.73270437578E+01  0.13319463772E+03 -0.50546713619E+02  0.16979546115E+03  0.92092514794E+02 0.  0.
        -11    1    3    3    0    0  0.15390155424E+00 -0.10311900456E+03 -0.28970831483E+03  0.30751335007E+03  0.00000000000E+00 0. -1.
         11    1    3    3    0    0  0.20355970785E+02 -0.15499913923E+02 -0.89500771447E+01  0.27105659171E+02  0.00000000000E+00 0.  1.
        -13    1    4    4    0    0  0.36792560455E+02  0.14285535759E+02 -0.94940709693E+01  0.40594413660E+02  0.00000000000E+00 0. -1.
         13    1    4    4    0    0 -0.29465516698E+02  0.11890910196E+03 -0.41052642650E+02  0.12920104749E+03  0.00000000000E+00 0.  1.
          1    1    1    2  501    0 -0.27836916097E+02 -0.14575719237E+02  0.14746059336E+03  0.15077125748E+03  0.00000000000E+00 0. -1.
<scales pt_clust_5="13000.00000" pt_clust_6="13000.00000" pt_clust_7="13000.00000" pt_clust_8="13000.00000" pt_clust_9="31.42205"></scales>
<clustering>
<clus scale="   31.422">  1  9  2 -1</clus>
<clus scale="   91.005">  5  6 -1 -1</clus>
<clus scale="   92.093">  7  8 -1 -1</clus>
<clus scale="  152.848">  2  5  1 -1</clus>
<clus scale="   31.422">  1  5  2 -1</clus>
</clustering>
</event>
<event>
 9    1  0.1636528E-005  0.1008707E+03  0.7546771E-02  0.1279908E+00
         -1   -1    0    0    0  501 -0.00000000000E+00  0.00000000000E+00  0.14678851483E+03  0.14678851483E+03  0.00000000000E+00 0.  1.
         21   -1    0    0  501  502  0.00000000000E+00 -0.00000000000E+00 -0.35670938429E+03  0.35670938429E+03  0.00000000000E+00 0.  1.
         23    2    1    2    0    0  0.33271647502E+02  0.25628270294E+02  0.10110205137E+03  0.14203007402E+03  0.90482630203E+02 0.  0.
         23    2    1    2    0    0 -0.32270821135E+02  0.18067338921E+02 -0.86046851098E+02  0.13228549621E+03  0.93421396331E+02 0.  0.
        -11    1    3    3    0    0 -0.16886951567E+02  0.26801046881E+02  0.82751120910E+02  0.88607072285E+02  0.00000000000E+00 0. -1.
         11    1    3    3    0    0  0.50158599069E+02 -0.11727765871E+01  0.18350930465E+02  0.53423001735E+02  0.00000000000E+00 0.  1.
        -13    1    4    4    0    0  0.22107997982E+01  0.25863482974E+02 -0.92741056949E+02  0.96305301159E+02  0.00000000000E+00 0. -1.
         13    1    4    4    0    0 -0.34481620933E+02 -0.77961440537E+01  0.66942058512E+01  0.35980195056E+02  0.00000000000E+00 0.  1.
         -1    1    1    2    0  502 -0.10008263670E+01 -0.43695609215E+02 -0.22497606974E+03  0.22918232889E+03  0.00000000000E+00 0.  1.
<scales pt_clust_5="13000.00000" pt_clust_6="13000.00000" pt_clust_7="13000.00000" pt_clust_8="13000.00000" pt_clust_9="43.70707"></scales>
<clustering>
<clus scale="   43.707">  2  9  1 -1</clus>
<clus scale="   90.483">  5  6 -1 -1</clus>
<clus scale="   93.421">  7  8 -1 -1</clus>
<clus scale="   98.155">  1  5  2 -1</clus>
<clus scale="   43.707">  2  5  1 -1</clus>
</clustering>
</event>
<event>
 9    1  0.1636528E-005  0.1153286E+03  0.7546771E-02  0.1251439E+00
          1   -1    0    0  502    0 -0.00000000000E+00  0.00000000000E+00  0.25222509996E+02  0.25222509996E+02  0.00000000000E+00 0. -1.
         21   -1    0    0  501  502  0.00000000000E+00 -0.00000000000E+00 -0.85064959773E+03  0.85064959773E+03  0.00000000000E+00 0.  1.
         23    2    1    2    0    0  0.62114391825E+02 -0.26040761341E+02 -0.18769305742E+03  0.21903995517E+03  0.90628357779E+02 0.  0.
         23    2    1    2    0    0 -0.80681125939E+02 -0.35073916327E+01 -0.49151050355E+03  0.50650205997E+03  0.91869558439E+02 0.  0.
        -13    1    4    4    0    0 -0.10627511298E+02 -0.39884908579E+02 -0.12687463656E+03  0.13342010092E+03  0.00000000000E+00 0. -1.
         13    1    4    4    0    0 -0.70053614641E+02  0.36377516947E+02 -0.36463586699E+03  0.37308195904E+03  0.00000000000E+00 0.  1.
        -13    1    3    3    0    0  0.62865807168E+02 -0.50375872740E+02 -0.17238704576E+03  0.19028171696E+03  0.00000000000E+00 0. -1.
         13    1    3    3    0    0 -0.75141534222E+00  0.24335111398E+02 -0.15306011664E+02  0.28758238208E+02  0.00000000000E+00 0.  1.
          1    1    1    2  501    0  0.18566734114E+02  0.29548152974E+02 -0.14622352675E+03  0.15033009258E+03  0.00000000000E+00 0. -1.
<scales pt_clust_5="13000.00000" pt_clust_6="13000.00000" pt_clust_7="13000.00000" pt_clust_8="13000.00000" pt_clust_9="34.89723"></scales>
<clustering>
<clus scale="   34.897">  2  9  1 -1</clus>
<clus scale="   90.628">  7  8 -1 -1</clus>
<clus scale="   91.870">  5  6 -1 -1</clus>
<clus scale="  114.342">  1  7  2 -1</clus>
<clus scale="   34.897">  2  5  1 -1</clus>
</clustering>
</event>
<event>
 9    1  0.1636528E-005  0.9369560E+02  0.7546771E-02  0.1294567E+00
         21   -1    0    0  501  502  0.00000000000E+00  0.00000000000E+00  0.91641466509E+02  0.91641466509E+02  0.00000000000E+00 0.  1.
         -3   -1    0    0    0  501 -0.00000000000E+00 -0.00000000000E+00 -0.23991859243E+03  0.23991859243E+03  0.00000000000E+00 0.  1.
         23    2    1    2    0    0 -0.18739582112E+02  0.79407438159E+01 -0.14019978628E+03  0.16859881223E+03  0.91407614902E+02 0.  0.
         23    2    1    2    0    0  0.23082929191E+02  0.33088120300E+02 -0.43732101072E+02  0.10843148998E+03  0.90649026641E+02 0.  0.
        -11    1    3    3    0    0 -0.41392019587E+02 -0.70767383530E+01 -0.22180523729E+02  0.47490579531E+02  0.00000000000E+00 0. -1.
         11    1    3    3    0    0  0.22652437476E+02  0.15017482169E+02 -0.11801926255E+03  0.12110823270E+03  0.00000000000E+00 0.  1.
        -13    1    4    4    0    0 -0.11393680857E+02  0.50554385483E+02 -0.46577999081E+02  0.69678345656E+02  0.00000000000E+00 0. -1.
         13    1    4    4    0    0  0.34476610048E+02 -0.17466265182E+02  0.28458980092E+01  0.38753144328E+02  0.00000000000E+00 0.  1.
         -3    1    1    2    0  502 -0.43433470787E+01 -0.41028864116E+02  0.35654761438E+02  0.54529756718E+02  0.00000000000E+00 0.  1.
<scales pt_clust_5="13000.00000" pt_clust_6="13000.00000" pt_clust_7="13000.00000" pt_clust_8="13000.00000" pt_clust_9="41.25812"></scales>
<clustering>
<clus scale="   41.258">  1  9  2 -1</clus>
<clus scale="   90.649">  7  8 -1 -1</clus>
<clus scale="   91.408">  5  6 -1 -1</clus>
<clus scale="   92.956">  1  7  2 -1</clus>
<clus scale="   41.258">  1  5  2 -1</clus>
</clustering>
</event>
<event>
 9    1  0.1636528E-005  0.1106596E+03  0.7546771E-02  0.1262799E+00
         -1   -1    0    0    0  501 -0.00000000000E+00  0.00000000000E+00  0.21481135898E+02  0.21481135898E+02  0.00000000000E+00 0.  1.
         21   -1    0    0  501  502  0.00000000000E+00 -0.00000000000E+00 -0.85367577075E+03  0.85367577075E+03  0.00000000000E+00 0. -1.
         23    2    1    2    0    0  0.10190109070E+02 -0.65106327821E+02 -0.36866612556E+03  0.38726806824E+03  0.98585862586E+02 0.  0.
         23    2    1    2    0    0  0.23189422572E+02  0.34278246510E+02 -0.38014025423E+03  0.39292481989E+03  0.90391115140E+02 0.  0.
        -11    1    3    3    0    0 -0.41461137720E+02 -0.48089516284E+02 -0.17738851333E+03  0.18840995775E+03  0.00000000000E+00 0.  1.
         11    1    3    3    0    0  0.51651246790E+02 -0.17016811538E+02 -0.19127761223E+03  0.19885811049E+03  0.00000000000E+00 0. -1.
        -11    1    4    4    0    0  0.53635361217E+02  0.40228434067E+02 -0.28805592823E+03  0.29575546769E+03  0.00000000000E+00 0. -1.
         11    1    4    4    0    0 -0.30445938645E+02 -0.59501875568E+01 -0.92084326001E+02  0.97169352200E+02  0.00000000000E+00 0.  1.
         -1    1    1    2    0  502 -0.33379531642E+02  0.30828081311E+02 -0.83388255064E+02  0.94964018516E+02  0.00000000000E+00 0.  1.
<scales pt_clust_5="13000.00000" pt_clust_6="13000.00000" pt_clust_7="13000.00000" pt_clust_8="13000.00000" pt_clust_9="45.43749"></scales>
<clustering>
<clus scale="   45.437">  2  9  1 -1</clus>
<clus scale="   90.391">  7  8 -1 -1</clus>
<clus scale="   98.586">  5  6 -1 -1</clus>
<clus scale="  103.426">  2  7  1 -1</clus>
<clus scale="   45.437">  2  5  1 -1</clus>
</clustering>
</event>
<event>
 9    1  0.1636528E-005  0.1453960E+03  0.7546771E-02  0.1220263E+00
         -3   -1    0    0    0  501 -0.00000000000E+00  0.00000000000E+00  0.19610184284E+03  0.19610184284E+03  0.00000000000E+00 0.  1.
         21   -1    0    0  501  502  0.00000000000E+00 -0.00000000000E+00 -0.17746085402E+03  0.17746085402E+03  0.00000000000E+00 0.  1.
         23    2    1    2    0    0  0.54699563133E+02 -0.12143815858E+02  0.27266953739E+02  0.11135590297E+03  0.92288330196E+02 0.  0.
         23    2    1    2    0    0  0.51351899798E+02  0.81231270723E+02 -0.16257424410E+01  0.13544326472E+03  0.95429020556E+02 0.  0.
        -11    1    3    3    0    0 -0.14824248095E+02 -0.14180556093E+02 -0.18884659741E+02  0.27883272337E+02  0.00000000000E+00 0. -1.
         11    1    3    3    0    0  0.69523811228E+02  0.20367402350E+01  0.46151613480E+02  0.83472630636E+02  0.00000000000E+00 0.  1.
        -13    1    4    4    0    0  0.42359016884E+02  0.10326917923E+03 -0.64395362664E+00  0.11162089574E+03  0.00000000000E+00 0.  1.
         13    1    4    4    0    0  0.89928829139E+01 -0.22037908508E+02 -0.98178881441E+00  0.23822368979E+02  0.00000000000E+00 0. -1.
         -3    1    1    2    0  502 -0.10605146293E+03 -0.69087454865E+02 -0.70002224770E+01  0.12676352916E+03  0.00000000000E+00 0.  1.
<scales pt_clust_5="13000.00000" pt_clust_6="13000.00000" pt_clust_7="13000.00000" pt_clust_8="13000.00000" pt_clust_9="109.69647"></scales>
<clustering>
<clus scale="   92.288">  5  6 -1 -1</clus>
<clus scale="   95.429">  7  8 -1 -1</clus>
<clus scale="  107.966">  1  5  2 -1</clus>
<clus scale="  109.696">  2  9  1 -1</clus>
<clus scale="  109.696">  2  5  1 -1</clus>
</clustering>
</event>
<event>
 9    1  0.1636528E-005  0.1250563E+03  0.7546771E-02  0.1235318E+00
          3   -1    0    0  502    0 -0.00000000000E+00  0.00000000000E+00  0.58058955533E+02  0.58058955533E+02  0.00000000000E+00 0. -1.
         21   -1    0    0  501  502  0.00000000000E+00 -0.00000000000E+00 -0.54382044094E+03  0.54382044094E+03  0.00000000000E+00 0.  1.
         23    2    1    2    0    0  0.75467493812E+01 -0.79415666135E+02 -0.81742932891E+02  0.14620475405E+03  0.91269499699E+02 0.  0.
         23    2    1    2    0    0 -0.60768274592E+02  0.89519990861E+02 -0.35560342189E+03  0.38302030327E+03  0.92434555760E+02 0.  0.
        -11    1    3    3    0    0  0.14999612873E+01 -0.20033434191E+02 -0.84102726301E+02  0.86468820627E+02  0.00000000000E+00 0.  1.
         11    1    3    3    0    0  0.60467880939E+01 -0.59382231944E+02  0.23597934109E+01  0.59735933423E+02  0.00000000000E+00 0. -1.
        -13    1    4    4    0    0 -0.21182952722E+02 -0.22528862157E+01 -0.10527364538E+02  0.23761699991E+02  0.00000000000E+00 0. -1.
         13    1    4    4    0    0 -0.39585321870E+02  0.91772877077E+02 -0.34507605735E+03  0.35925860328E+03  0.00000000000E+00 0.  1.
          3    1    1    2  501    0  0.53221525211E+02 -0.10104324727E+02 -0.48415130632E+02  0.72654339155E+02  0.00000000000E+00 0. -1.
<scales pt_clust_5="13000.00000" pt_clust_6="13000.00000" pt_clust_7="13000.00000" pt_clust_8="13000.00000" pt_clust_9="54.17224"></scales>
<clustering>
<clus scale="   54.172">  2  9  1 -1</clus>
<clus scale="   91.269">  5  6 -1 -1</clus>
<clus scale="   92.435">  7  8 -1 -1</clus>
<clus scale="  124.198">  1  5  2 -1</clus>
<clus scale="   54.172">  2  5  1 -1</clus>
</clustering>
</event>
<event>
 9    1  0.1636528E-005  0.1234740E+03  0.7546771E-02  0.1247628E+00
         -2   -1    0    0    0  501 -0.00000000000E+00  0.00000000000E+00  0.24830474813E+03  0.24830474813E+03  0.00000000000E+00 0. -1.
         21   -1    0    0  501  502  0.00000000000E+00 -0.00000000000E+00 -0.80504695238E+02  0.80504695238E+02  0.00000000000E+00 0. -1.
         23    2    1    2    0    0  0.94077801914E+01  0.49274584389E+02  0.14101467942E+03  0.18913571957E+03  0.11563169812E+03 0.  0.
         23    2    1    2    0    0 -0.18224039112E+02 -0.24816371361E+02 -0.80938470122E+01  0.96170958050E+02  0.90748966516E+02 0.  0.
        -13    1    4    4    0    0  0.17737758484E+02 -0.12203747063E+02  0.33459556845E+02  0.39788207584E+02  0.00000000000E+00 0.  1.
         13    1    4    4    0    0 -0.35961797597E+02 -0.12612624298E+02 -0.41553403857E+02  0.56382750467E+02  0.00000000000E+00 0. -1.
        -13    1    3    3    0    0 -0.44146062806E+02  0.31963845885E+02  0.24533941095E+02  0.59770198014E+02  0.00000000000E+00 0. -1.
         13    1    3    3    0    0  0.53553842997E+02  0.17310738504E+02  0.11648073832E+03  0.12936552155E+03  0.00000000000E+00 0.  1.
         -2    1    1    2    0  502  0.88162589206E+01 -0.24458213028E+02  0.34879220483E+02  0.43502765744E+02  0.00000000000E+00 0. -1.
<scales pt_clust_5="13000.00000" pt_clust_6="13000.00000" pt_clust_7="13000.00000" pt_clust_8="13000.00000" pt_clust_9="25.99868"></scales>
<clustering>
<clus scale="   25.999">  2  9  1 -1</clus>
<clus scale="   90.749">  5  6 -1 -1</clus>
<clus scale="  100.551">  2  5  1 -1</clus>
<clus scale="  115.632">  7  8 -1 -1</clus>
<clus scale="   25.999">  2  5  1 -1</clus>
</clustering>
</event>
<event>
 9    1  0.1636528E-005  0.1001382E+03  0.7546771E-02  0.1280341E+00
         21   -1    0    0  501  502  0.00000000000E+00  0.00000000000E+00  0.71035073262E+02  0.71035073262E+02  0.00000000000E+00 0. -1.
          1   -1    0    0  502    0 -0.00000000000E+00 -0.00000000000E+00 -0.31576795220E+03  0.31576795220E+03  0.00000000000E+00 0. -1.
         23    2    1    2    0    0 -0.42400792671E+02  0.36274099072E+01 -0.17398077509E+03  0.20117455169E+03  0.91601882219E+02 0.  0.
         23    2    1    2    0    0  0.26460111720E+02 -0.40940023618E+02 -0.93407311846E+02  0.13915703199E+03  0.90903963610E+02 0.  0.
        -11    1    3    3    0    0 -0.65100946129E+02 -0.19533799717E+02 -0.12770824692E+03  0.14466892842E+03  0.00000000000E+00 0. -1.
         11    1    3    3    0    0  0.22700153459E+02  0.23161209624E+02 -0.46272528166E+02  0.56505623270E+02  0.00000000000E+00 0.  1.
        -13    1    4    4    0    0  0.55452965406E+02 -0.44168446856E+02 -0.80472308582E+02  0.10724586481E+03  0.00000000000E+00 0. -1.
         13    1    4    4    0    0 -0.28992853686E+02  0.32284232387E+01 -0.12935003264E+02  0.31911167182E+02  0.00000000000E+00 0.  1.
          1    1    1    2  501    0  0.15940680951E+02  0.37312613710E+02  0.22655208002E+02  0.46471441776E+02  0.00000000000E+00 0. -1.
<scales pt_clust_5="13000.00000" pt_clust_6="13000.00000" pt_clust_7="13000.00000" pt_clust_8="13000.00000" pt_clust_9="40.57507"></scales>
<clustering>
<clus scale="   40.575">  1  9  2 -1</clus>
<clus scale="   90.904">  7  8 -1 -1</clus>
<clus scale="   91.602">  5  6 -1 -1</clus>
<clus scale="   99.500">  1  7  2 -1</clus>
<clus scale="   40.575">  1  5  2 -1</clus>
</clustering>
</event>
<event>
 9    1  0.1636528E-005  0.1115453E+03  0.7546771E-02  0.1258698E+00
         21   -1    0    0  501  502  0.00000000000E+00  0.00000000000E+00  0.38206859929E+02  0.38206859929E+02  0.00000000000E+00 0.  1.
         -1   -1    0    0    0  501 -0.00000000000E+00 -0.00000000000E+00 -0.92565430099E+03  0.92565430099E+03  0.00000000000E+00 0.  1.
         23    2    1    2    0    0  0.94991655915E+02  0.17312715831E+02 -0.26958365515E+03  0.30066238298E+03  0.91648112877E+02 0.  0.
         23    2    1    2    0    0 -0.17053812320E+02  0.54329867051E+02 -0.16637794384E+03  0.19946778616E+03  0.94144625706E+02 0.  0.
        -11    1    4    4    0    0 -0.47740717037E+02  0.77511963733E+01 -0.45784915193E+02  0.66599666424E+02  0.00000000000E+00 0. -1.
         11    1    4    4    0    0  0.30686904717E+02  0.46578670678E+02 -0.12059302865E+03  0.13286811973E+03  0.00000000000E+00 0.  1.
        -13    1    3    3    0    0  0.79963174257E+02  0.38795042844E+02 -0.25629844130E+03  0.27127118461E+03  0.00000000000E+00 0.  1.
         13    1    3    3    0    0  0.15028481658E+02 -0.21482327013E+02 -0.13285213852E+02  0.29391198375E+02  0.00000000000E+00 0. -1.
         -1    1    1    2    0  502 -0.77937843594E+02 -0.71642582882E+02 -0.45148584207E+03  0.46373099178E+03  0.00000000000E+00 0.  1.
<scales pt_clust_5="13000.00000" pt_clust_6="13000.00000" pt_clust_7="13000.00000" pt_clust_8="13000.00000" pt_clust_9="105.86302"></scales>
<clustering>
<clus scale="   91.648">  7  8 -1 -1</clus>
<clus scale="   94.145">  5  6 -1 -1</clus>
<clus scale="  105.863">  1  9  2 -1</clus>
<clus scale="  109.446">  2  7  1 -1</clus>
<clus scale="  105.863">  1  5  2 -1</clus>
</clustering>
</event>
<event>
 9    1  0.1636528E-005  0.3101262E+03  0.7546771E-02  0.1080401E+00
         21   -1    0    0  501  502  0.00000000000E+00  0.00000000000E+00  0.17862929306E+03  0.17862929306E+03  0.00000000000E+00 0. -1.
          1   -1    0    0  502    0 -0.00000000000E+00 -0.00000000000E+00 -0.10290303661E+04  0.10290303661E+04  0.00000000000E+00 0. -1.
         23    2    1    2    0    0 -0.11354158577E+03 -0.25477015917E+03 -0.63446875001E+03  0.69864678828E+03  0.88075049465E+02 0.  0.
         23    2    1    2    0    0  0.11246387872E+03  0.34305065848E+03 -0.18105236416E+03  0.41408542731E+03  0.91405165293E+02 0.  0.
        -11    1    4    4    0    0  0.61403675463E+02  0.27044836190E+03 -0.16832946384E+03  0.32441876674E+03  0.00000000000E+00 0. -1.
         11    1    4    4    0    0  0.51060203257E+02  0.72602296576E+02 -0.12722900315E+02  0.89666660566E+02  0.00000000000E+00 0.  1.
        -13    1    3    3    0    0 -0.76576588191E+02 -0.70243558879E+02 -0.24331152121E+03  0.26457253784E+03  0.00000000000E+00 0. -1.
         13    1    3    3    0    0 -0.36964997581E+02 -0.18452660029E+03 -0.39115722880E+03  0.43407425044E+03  0.00000000000E+00 0.  1.
          1    1    1    2  501    0  0.10777070525E+01 -0.88280499315E+02 -0.34879958871E+02  0.94927443569E+02  0.00000000000E+00 0. -1.
<scales pt_clust_5="13000.00000" pt_clust_6="13000.00000" pt_clust_7="13000.00000" pt_clust_8="13000.00000" pt_clust_9="88.28708"></scales>
<clustering>
<clus scale="   88.075">  7  8 -1 -1</clus>
<clus scale="   88.287">  1  9  2 -1</clus>
<clus scale="   91.405">  5  6 -1 -1</clus>
<clus scale="  309.161">  2  7  1 -1</clus>
<clus scale="   88.287">  1  5  2 -1</clus>
</clustering>
</event>
<event>
 9    1  0.1636528E-005  0.9396226E+02  0.7546771E-02  0.1295296E+00
         -4   -1    0    0    0  501 -0.00000000000E+00  0.00000000000E+00  0.53835170437E+02  0.53835170437E+02  0.00000000000E+00 0.  1.
         21   -1    0    0  501  502  0.00000000000E+00 -0.00000000000E+00 -0.27503128484E+03  0.27503128484E+03  0.00000000000E+00 0.  1.
         23    2    1    2    0    0  0.16935890362E+02 -0.48613234169E+01 -0.44096080454E+02  0.99926949458E+02  0.87923114531E+02 0.  0.
         23    2    1    2    0    0 -0.58124711623E+01  0.45531637073E+02 -0.11292969788E+03  0.15215645496E+03  0.91057977839E+02 0.  0.
        -11    1    3    3    0    0 -0.11460658900E+02 -0.24772186406E+02  0.15193651088E+02  0.31238677232E+02  0.00000000000E+00 0. -1.
         11    1    3    3    0    0  0.28396549263E+02  0.19910862989E+02 -0.59289731543E+02  0.68688272226E+02  0.00000000000E+00 0.  1.
        -11    1    4    4    0    0 -0.81954634629E+01  0.65422500839E+02 -0.11443106712E+03  0.13206717366E+03  0.00000000000E+00 0.  1.
         11    1    4    4    0    0  0.23829923007E+01 -0.19890863766E+02  0.15013692362E+01  0.20089281302E+02  0.00000000000E+00 0. -1.
         -4    1    1    2    0  502 -0.11123419200E+02 -0.40670313656E+02 -0.64170336069E+02  0.76783050856E+02  0.00000000000E+00 0.  1.
<scales pt_clust_5="13000.00000" pt_clust_6="13000.00000" pt_clust_7="13000.00000" pt_clust_8="13000.00000" pt_clust_9="42.16402"></scales>
<clustering>
<clus scale="   42.164">  2  9  1 -1</clus>
<clus scale="   87.923">  5  6 -1 -1</clus>
<clus scale="   90.928">  1  5  2 -1</clus>
<clus scale="   91.058">  7  8 -1 -1</clus>
<clus scale="   42.164">  2  5  1 -1</clus>
</clustering>
</event>
<event>
 9    1  0.1636528E-005  0.9736296E+02  0.7546771E-02  0.1286575E+00
         21   -1    0    0  501  502  0.00000000000E+00  0.00000000000E+00  0.35950385445E+03  0.35950385445E+03  0.00000000000E+00 0. -1.
          1   -1    0    0  502    0 -0.00000000000E+00 -0.00000000000E+00 -0.10278099303E+03  0.10278099303E+03  0.00000000000E+00 0. -1.
         23    2    1    2    0    0  0.30105116388E+02  0.24549211370E+00 -0.57867679741E+02  0.11180253322E+03  0.90800659558E+02 0.  0.
         23    2    1    2    0    0 -0.51790890168E+02  0.37826807842E+01  0.31058142890E+03  0.32806419787E+03  0.92025480018E+02 0.  0.
        -13    1    3    3    0    0  0.17295650240E+02  0.44730492665E+02 -0.19865038453E+02  0.51909307875E+02  0.00000000000E+00 0. -1.
         13    1    3    3    0    0  0.12809466148E+02 -0.44485000552E+02 -0.38002641288E+02  0.59893225343E+02  0.00000000000E+00 0.  1.
        -13    1    4    4    0    0  0.21477019775E+02  0.20362460962E+02  0.10879274149E+03  0.11274640924E+03  0.00000000000E+00 0.  1.
         13    1    4    4    0    0 -0.73267909943E+02 -0.16579780177E+02  0.20178868741E+03  0.21531778864E+03  0.00000000000E+00 0. -1.
          1    1    1    2  501    0  0.21685773780E+02 -0.40281728979E+01  0.40091122654E+01  0.22418116390E+02  0.00000000000E+00 0. -1.
<scales pt_clust_5="13000.00000" pt_clust_6="13000.00000" pt_clust_7="13000.00000" pt_clust_8="13000.00000" pt_clust_9="22.05673"></scales>
<clustering>
<clus scale="   22.057">  1  9  2 -1</clus>
<clus scale="   90.801">  5  6 -1 -1</clus>
<clus scale="   92.025">  7  8 -1 -1</clus>
<clus scale="   96.206">  2  5  1 -1</clus>
<clus scale="   22.057">  1  5  2 -1</clus>
</clustering>
</event>
<event>
 9    1  0.1636528E-005  0.1277872E+03  0.7546771E-02  0.1238209E+00
         21   -1    0    0  501  502  0.00000000000E+00  0.00000000000E+00  0.88914759140E+02  0.88914759140E+02  0.00000000000E+00 0.  1.
          2   -1    0    0  502    0 -0.00000000000E+00 -0.00000000000E+00 -0.29628102682E+03  0.29628102682E+03  0.00000000000E+00 0. -1.
         23    2    1    2    0    0 -0.84906762535E+02 -0.50137910709E+02 -0.21909819541E+03  0.25712770642E+03  0.91584222237E+02 0.  0.
         23    2    1    2    0    0  0.53218491227E+02  0.31723391354E+02  0.17982714032E+02  0.90888604142E+02  0.64021707189E+02 0.  0.
        -13    1    3    3    0    0  0.14275141371E+01  0.20530037811E+02 -0.54727615622E+02  0.58469070121E+02  0.00000000000E+00 0.  1.
         13    1    3    3    0    0 -0.86334276672E+02 -0.70667948520E+02 -0.16437057979E+03  0.19865863630E+03  0.00000000000E+00 0. -1.
        -13    1    4    4    0    0  0.17772663295E+02  0.27394659715E+02 -0.20368652799E+02  0.38486581536E+02  0.00000000000E+00 0. -1.
         13    1    4    4    0    0  0.35445827932E+02  0.43287316384E+01  0.38351366830E+02  0.52402022605E+02  0.00000000000E+00 0.  1.
          2    1    1    2  501    0  0.31688271308E+02  0.18414519355E+02 -0.62507863036E+01  0.37179475400E+02  0.00000000000E+00 0. -1.
<scales pt_clust_5="13000.00000" pt_clust_6="13000.00000" pt_clust_7="13000.00000" pt_clust_8="13000.00000" pt_clust_9="36.65025"></scales>
<clustering>
<clus scale="   36.650">  1  9  2 -1</clus>
<clus scale="   64.022">  7  8 -1 -1</clus>
<clus scale="   91.584">  5  6 -1 -1</clus>
<clus scale="  109.730">  1  7  2 -1</clus>
<clus scale="   36.650">  1  5  2 -1</clus>
</clustering>
</event>
<event>
 9    1  0.1636528E-005  0.1072797E+03  0.7546771E-02  0.1265805E+00
         21   -1    0    0  501  502  0.00000000000E+00  0.00000000000E+00  0.71399284502E+03  0.71399284502E+03  0.00000000000E+00 0.  1.
          2   -1    0    0  502    0 -0.00000000000E+00 -0.00000000000E+00 -0.29460583268E+02  0.29460583268E+02  0.00000000000E+00 0. -1.
         23    2    1    2    0    0 -0.26823969247E+02  0.24933301068E+02  0.20325198552E+03  0.22534718028E+03  0.90159787137E+02 0.  0.
         23    2    1    2    0    0  0.75918699765E+02 -0.58053280492E+02  0.35946462376E+03  0.38265781210E+03  0.89879658856E+02 0.  0.
        -11    1    3    3    0    0 -0.50505202660E+02 -0.13117087766E+02  0.11832685108E+03  0.12932160366E+03  0.00000000000E+00 0. -1.
         11    1    3    3    0    0  0.23681233412E+02  0.38050388834E+02  0.84925134441E+02  0.96025576625E+02  0.00000000000E+00 0.  1.
        -13    1    4    4    0    0  0.54736229316E+01  0.20373184621E+02  0.10713454609E+03  0.10919174953E+03  0.00000000000E+00 0. -1.
         13    1    4    4    0    0  0.70445076833E+02 -0.78426465113E+02  0.25233007767E+03  0.27346606257E+03  0.00000000000E+00 0.  1.
          2    1    1    2  501    0 -0.49094730517E+02  0.33119979424E+02  0.12181565248E+03  0.13544843591E+03  0.00000000000E+00 0. -1.
<scales pt_clust_5="13000.00000" pt_clust_6="13000.00000" pt_clust_7="13000.00000" pt_clust_8="13000.00000" pt_clust_9="59.22186"></scales>
<clustering>
<clus scale="   59.222">  1  9  2 -1</clus>
<clus scale="   89.880">  7  8 -1 -1</clus>
<clus scale="   90.160">  5  6 -1 -1</clus>
<clus scale="  107.044">  1  7  2 -1</clus>
<clus scale="   59.222">  1  5  2 -1</clus>
</clustering>
</event>
<event>
 9    1  0.1636528E-005  0.1024890E+03  0.7546771E-02  0.1278808E+00
         21   -1    0    0  501  502  0.00000000000E+00  0.00000000000E+00  0.26406497171E+03  0.26406497171E+03  0.00000000000E+00 0.  1.
         -3   -1    0    0    0  501 -0.00000000000E+00 -0.00000000000E+00 -0.80738767909E+02  0.80738767909E+02  0.00000000000E+00 0.  1.
         23    2    1    2    0    0 -0.94813219541E+01  0.16094486099E+02  0.91845566246E+01  0.93587890661E+02  0.91243680599E+02 0.  0.
         23    2    1    2    0    0 -0.25207413709E+02 -0.51480755503E+02  0.64591144404E+02  0.13097937736E+03  0.98477913594E+02 0.  0.
        -11    1    4    4    0    0  0.17408865910E+02  0.20583706659E+02  0.31724620450E+01  0.27144467347E+02  0.00000000000E+00 0. -1.
         11    1    4    4    0    0 -0.42616279618E+02 -0.72064462162E+02  0.61418682359E+02  0.10383491002E+03  0.00000000000E+00 0.  1.
        -11    1    3    3    0    0 -0.50428559878E+02  0.60389683742E+01  0.79393650701E+01  0.51405664164E+02  0.00000000000E+00 0.  1.
         11    1    3    3    0    0  0.40947237924E+02  0.10055517724E+02  0.12451915545E+01  0.42182226498E+02  0.00000000000E+00 0. -1.
         -3    1    1    2    0  502  0.34688735663E+02  0.35386269404E+02  0.10955050277E+03  0.12023647159E+03  0.00000000000E+00 0.  1.
<scales pt_clust_5="13000.00000" pt_clust_6="13000.00000" pt_clust_7="13000.00000" pt_clust_8="13000.00000" pt_clust_9="49.55297"></scales>
<clustering>
<clus scale="   49.553">  1  9  2 -1</clus>
<clus scale="   91.244">  7  8 -1 -1</clus>
<clus scale="   95.559">  2  7  1 -1</clus>
<clus scale="   98.478">  5  6 -1 -1</clus>
<clus scale="   49.553">  1  5  2 -1</clus>
</clustering>
</event>
<event>
 9    1  0.1636528E-005  0.1237280E+03  0.7546771E-02  0.1237880E+00
          2   -1    0    0  502    0 -0.00000000000E+00  0.00000000000E+00  0.29165477583E+03  0.29165477583E+03  0.00000000000E+00 0. -1.
         21   -1    0    0  501  502  0.00000000000E+00 -0.00000000000E+00 -0.96666134169E+02  0.96666134169E+02  0.00000000000E+00 0. -1.
         23    2    1    2    0    0 -0.94943648582E+02 -0.39437870241E+02  0.13093760124E+03  0.19112563119E+03  0.93886684172E+02 0.  0.
         23    2    1    2    0    0  0.23421052174E+02  0.60508266108E+02  0.37156354307E+02  0.11793136823E+03  0.91199873875E+02 0.  0.
        -11    1    4    4    0    0  0.43712391008E+02  0.81840237045E+01 -0.88731199806E+01  0.45348468880E+02  0.00000000000E+00 0.  1.
         11    1    4    4    0    0 -0.20291338833E+02  0.52324242404E+02  0.46029474288E+02  0.72582899350E+02  0.00000000000E+00 0. -1.
        -13    1    3    3    0    0 -0.23344260587E+02  0.24649874044E+02  0.68723061464E+02  0.76651353346E+02  0.00000000000E+00 0.  1.
         13    1    3    3    0    0 -0.71599387995E+02 -0.64087744285E+02  0.62214539774E+02  0.11447427784E+03  0.00000000000E+00 0. -1.
          2    1    1    2  501    0  0.71522596407E+02 -0.21070395867E+02  0.26894686116E+02  0.79263910578E+02  0.00000000000E+00 0. -1.
<scales pt_clust_5="13000.00000" pt_clust_6="13000.00000" pt_clust_7="13000.00000" pt_clust_8="13000.00000" pt_clust_9="74.56168"></scales>
<clustering>
<clus scale="   74.562">  2  9  1 -1</clus>
<clus scale="   91.200">  5  6 -1 -1</clus>
<clus scale="   93.887">  7  8 -1 -1</clus>
<clus scale="  121.702">  2  5  1 -1</clus>
<clus scale="   74.562">  2  5  1 -1</clus>
</clustering>
</event>
<event>
 9    1  0.1636528E-005  0.9624396E+02  0.7546771E-02  0.1288584E+00
         21   -1    0    0  501  502  0.00000000000E+00  0.00000000000E+00  0.25565937185E+02  0.25565937185E+02  0.00000000000E+00 0.  1.
          1   -1    0    0  502    0 -0.00000000000E+00 -0.00000000000E+00 -0.95837402486E+03  0.95837402486E+03  0.00000000000E+00 0. -1.
         23    2    1    2    0    0  0.51611092026E+01 -0.97173697023E+01 -0.53378321862E+03  0.54175305972E+03  0.91928172561E+02 0.  0.
         23    2    1    2    0    0 -0.42570977303E+02  0.45483127420E+02 -0.36150509225E+03  0.37826177966E+03  0.92276970244E+02 0.  0.
        -13    1    4    4    0    0 -0.72094712797E+02  0.31774792400E+02 -0.25552037909E+03  0.26739100429E+03  0.00000000000E+00 0.  1.
         13    1    4    4    0    0  0.29523735493E+02  0.13708335020E+02 -0.10598471316E+03  0.11087077537E+03  0.00000000000E+00 0. -1.
        -13    1    3    3    0    0 -0.42689100017E+02 -0.12989724172E+02 -0.25829593234E+03  0.26212188168E+03  0.00000000000E+00 0.  1.
         13    1    3    3    0    0  0.47850209220E+02  0.32723544698E+01 -0.27548728629E+03  0.27963117804E+03  0.00000000000E+00 0. -1.
          1    1    1    2  501    0  0.37409868101E+02 -0.35765757717E+02 -0.37519776792E+02  0.63925122659E+02  0.00000000000E+00 0. -1.
<scales pt_clust_5="13000.00000" pt_clust_6="13000.00000" pt_clust_7="13000.00000" pt_clust_8="13000.00000" pt_clust_9="51.75604"></scales>
<clustering>
<clus scale="   51.756">  1  9  2 -1</clus>
<clus scale="   91.928">  7  8 -1 -1</clus>
<clus scale="   92.277">  5  6 -1 -1</clus>
<clus scale="   95.910">  2  7  1 -1</clus>
<clus scale="   51.756">  1  5  2 -1</clus>
</clustering>
</event>
<event>
 9    1  0.1636528E-005  0.9849969E+02  0.7546771E-02  0.1283577E+00
          4   -1    0    0  502    0 -0.00000000000E+00  0.00000000000E+00  0.30861105314E+03  0.30861105314E+03  0.00000000000E+00 0. -1.
         21   -1    0    0  501  502  0.00000000000E+00 -0.00000000000E+00 -0.21399253701E+03  0.21399253701E+03  0.00000000000E+00 0. -1.
         23    2    1    2    0    0  0.14944054830E+02  0.48749210678E+01  0.13596250550E+03  0.16469306634E+03  0.91601929936E+02 0.  0.
         23    2    1    2    0    0 -0.64837965803E+02 -0.16046717121E+01  0.13439522342E+03  0.17519662779E+03  0.91789136236E+02 0.  0.
        -11    1    4    4    0    0  0.11715644377E+02  0.27164393855E+02  0.46738813102E+02  0.55314349556E+02  0.00000000000E+00 0.  1.
         11    1    4    4    0    0 -0.76553610180E+02 -0.28769065567E+02  0.87656410317E+02  0.11988227824E+03  0.00000000000E+00 0. -1.
        -11    1    3    3    0    0 -0.22068528457E+02 -0.31730893269E+02  0.40654802923E+02  0.56095298703E+02  0.00000000000E+00 0. -1.
         11    1    3    3    0    0  0.37012583287E+02  0.36605814337E+02  0.95307702581E+02  0.10859776764E+03  0.00000000000E+00 0.  1.
          4    1    1    2  501    0  0.49893910973E+02 -0.32702493557E+01 -0.17573921279E+03  0.18271389601E+03  0.00000000000E+00 0. -1.
<scales pt_clust_5="13000.00000" pt_clust_6="13000.00000" pt_clust_7="13000.00000" pt_clust_8="13000.00000" pt_clust_9="50.00097"></scales>
<clustering>
<clus scale="   50.001">  2  9  1 -1</clus>
<clus scale="   91.602">  7  8 -1 -1</clus>
<clus scale="   91.789">  5  6 -1 -1</clus>
<clus scale="   98.325">  1  7  2 -1</clus>
<clus scale="   50.001">  2  5  1 -1</clus>
</clustering>
</event>
<event>
 9    1  0.1636528E-005  0.9532035E+02  0.7546771E-02  0.1291082E+00
         21   -1    0    0  501  502  0.00000000000E+00  0.00000000000E+00  0.13573612230E+03  0.13573612230E+03  0.00000000000E+00 0.  1.
          2   -1    0    0  502    0 -0.00000000000E+00 -0.00000000000E+00 -0.13699465890E+03  0.13699465890E+03  0.00000000000E+00 0. -1.
         23    2    1    2    0    0  0.21823692353E+02 -0.21810541022E+02 -0.66057021564E+02  0.11783983546E+03  0.92578201946E+02 0.  0.
         23    2    1    2    0    0  0.12535687256E+02  0.15826905722E+02  0.16130382756E+02  0.95016451743E+02  0.91434689556E+02 0.  0.
        -11    1    3    3    0    0 -0.23500122971E+02  0.18888372399E+02 -0.43405657073E+02  0.52849573863E+02  0.00000000000E+00 0.  1.
         11    1    3    3    0    0  0.45323815323E+02 -0.40698913421E+02 -0.22651364491E+02  0.64990261597E+02  0.00000000000E+00 0. -1.
        -13    1    4    4    0    0  0.31799088311E+02  0.35010974786E+02  0.37562612729E+02  0.60397849696E+02  0.00000000000E+00 0.  1.
         13    1    4    4    0    0 -0.19263401055E+02 -0.19184069064E+02 -0.21432229973E+02  0.34618602047E+02  0.00000000000E+00 0. -1.
          2    1    1    2  501    0 -0.34359379609E+02  0.59836352999E+01  0.48668102213E+02  0.59874493998E+02  0.00000000000E+00 0. -1.
<scales pt_clust_5="13000.00000" pt_clust_6="13000.00000" pt_clust_7="13000.00000" pt_clust_8="13000.00000" pt_clust_9="34.87651"></scales>
<clustering>
<clus scale="   34.877">  1  9  2 -1</clus>
<clus scale="   91.435">  7  8 -1 -1</clus>
<clus scale="   92.578">  5  6 -1 -1</clus>
<clus scale="   94.210">  1  7  2 -1</clus>
<clus scale="   34.877">  1  5  2 -1</clus>
</clustering>
</event>
<event>
 9    1  0.1636528E-005  0.1603688E+03  0.7546771E-02  0.1213614E+00
          4   -1    0    0  502    0 -0.00000000000E+00  0.00000000000E+00  0.31469045477E+02  0.31469045477E+02  0.00000000000E+00 0. -1.
         21   -1    0    0  501  502  0.00000000000E+00 -0.00000000000E+00 -0.15782489038E+04  0.15782489038E+04  0.00000000000E+00 0.  1.
         23    2    1    2    0    0  0.12087373113E+02  0.12437472441E+02 -0.11231269013E+03  0.14555186053E+03  0.90941785943E+02 0.  0.
         23    2    1    2    0    0 -0.13510369407E+03  0.25778630007E+02 -0.81133407779E+03  0.82785772477E+03  0.90376328552E+02 0.  0.
        -13    1    3    3    0    0  0.47165795919E+02  0.81102256995E+01 -0.31353738160E+02  0.57214027669E+02  0.00000000000E+00 0. -1.
         13    1    3    3    0    0 -0.35078422806E+02  0.43272467412E+01 -0.80958951967E+02  0.88337832860E+02  0.00000000000E+00 0.  1.
        -13    1    4    4    0    0 -0.11071662889E+03  0.53083138523E+02 -0.69919225921E+03  0.70989140496E+03  0.00000000000E+00 0.  1.
         13    1    4    4    0    0 -0.24387065179E+02 -0.27304508516E+02 -0.11214181858E+03  0.11796631980E+03  0.00000000000E+00 0. -1.
          4    1    1    2  501    0  0.12301632095E+03 -0.38216102448E+02 -0.62313309040E+03  0.63630836397E+03  0.00000000000E+00 0. -1.
<scales pt_clust_5="13000.00000" pt_clust_6="13000.00000" pt_clust_7="13000.00000" pt_clust_8="13000.00000" pt_clust_9="132.47740"></scales>
<clustering>
<clus scale="   90.376">  7  8 -1 -1</clus>
<clus scale="   90.942">  5  6 -1 -1</clus>
<clus scale="   92.581">  1  5  2 -1</clus>
<clus scale="  132.477">  2  9  1 -1</clus>
<clus scale="  132.477">  2  5  1 -1</clus>
</clustering>
</event>
<event>
 9    1  0.1636528E-005  0.1044066E+03  0.7546771E-02  0.1271624E+00
          4   -1    0    0  502    0 -0.00000000000E+00  0.00000000000E+00  0.25733315547E+03  0.25733315547E+03  0.00000000000E+00 0. -1.
         21   -1    0    0  501  502  0.00000000000E+00 -0.00000000000E+00 -0.52046526965E+02  0.52046526965E+02  0.00000000000E+00 0. -1.
         23    2    1    2    0    0 -0.48804868727E+01 -0.46062548836E+02  0.99042886126E+02  0.14263614800E+03  0.91596942461E+02 0.  0.
         23    2    1    2    0    0 -0.14813441436E+02  0.54195020093E+02  0.93237501809E+02  0.14178055795E+03  0.90840280817E+02 0.  0.
        -11    1    3    3    0    0 -0.36485850111E+02 -0.36323415997E+02  0.96613685479E+02  0.10947516627E+03  0.00000000000E+00 0. -1.
         11    1    3    3    0    0  0.31605363238E+02 -0.97391328392E+01  0.24292006470E+01  0.33160981735E+02  0.00000000000E+00 0.  1.
        -13    1    4    4    0    0 -0.47906989937E+02  0.20124910623E+02  0.22611558154E+02  0.56668988650E+02  0.00000000000E+00 0.  1.
         13    1    4    4    0    0  0.33093548501E+02  0.34070109469E+02  0.70625943655E+02  0.85111569300E+02  0.00000000000E+00 0. -1.
          4    1    1    2  501    0  0.19693928309E+02 -0.81324712568E+01  0.13006240572E+02  0.24962976481E+02  0.00000000000E+00 0. -1.
<scales pt_clust_5="13000.00000" pt_clust_6="13000.00000" pt_clust_7="13000.00000" pt_clust_8="13000.00000" pt_clust_9="21.30699"></scales>
<clustering>
<clus scale="   21.307">  2  9  1 -1</clus>
<clus scale="   90.840">  7  8 -1 -1</clus>
<clus scale="   91.597">  5  6 -1 -1</clus>
<clus scale="  103.743">  2  7  1 -1</clus>
<clus scale="   21.307">  2  5  1 -1</clus>
</clustering>
</event>
<event>
 9    1  0.1636528E-005  0.1012278E+03  0.7546771E-02  0.1277955E+00
         21   -1    0    0  501  502  0.00000000000E+00  0.00000000000E+00  0.34642001936E+03  0.34642001936E+03  0.00000000000E+00 0. -1.
         -1   -1    0    0    0  501 -0.00000000000E+00 -0.00000000000E+00 -0.61065885408E+02  0.61065885408E+02  0.00000000000E+00 0.  1.
         23    2    1    2    0    0 -0.35468352611E+02  0.95691022386E+01  0.22013778266E+02  0.10053033032E+03  0.90951465771E+02 0.  0.
         23    2    1    2    0    0  0.58766709946E+02 -0.24274726859E+02  0.12942633975E+03  0.17023676626E+03  0.90479780071E+02 0.  0.
        -11    1    4    4    0    0 -0.19180953326E+02 -0.22964236754E+02  0.54149743744E+02  0.61866468201E+02  0.00000000000E+00 0.  1.
         11    1    4    4    0    0  0.77947663272E+02 -0.13104901053E+01  0.75276596008E+02  0.10837029805E+03  0.00000000000E+00 0. -1.
        -13    1    3    3    0    0 -0.37154766619E+02  0.45496350787E+02  0.74355894746E+00  0.58744765702E+02  0.00000000000E+00 0.  1.
         13    1    3    3    0    0  0.16864140083E+01 -0.35927248549E+02  0.21270219319E+02  0.41785564617E+02  0.00000000000E+00 0. -1.
         -1    1    1    2    0  502 -0.23298357335E+02  0.14705624620E+02  0.13391401594E+03  0.13671880820E+03  0.00000000000E+00 0.  1.
<scales pt_clust_5="13000.00000" pt_clust_6="13000.00000" pt_clust_7="13000.00000" pt_clust_8="13000.00000" pt_clust_9="27.55120"></scales>
<clustering>
<clus scale="   27.551">  1  9  2 -1</clus>
<clus scale="   90.480">  5  6 -1 -1</clus>
<clus scale="   90.951">  7  8 -1 -1</clus>
<clus scale="  100.804">  1  5  2 -1</clus>
<clus scale="   27.551">  1  5  2 -1</clus>
</clustering>
</event>
<event>
 9    1  0.1636528E-005  0.9728959E+02  0.7546771E-02  0.1286321E+00
          1   -1    0    0  502    0 -0.00000000000E+00  0.00000000000E+00  0.15985583006E+03  0.15985583006E+03  0.00000000000E+00 0. -1.
         21   -1    0    0  501  502  0.00000000000E+00 -0.00000000000E+00 -0.12255489482E+03  0.12255489482E+03  0.00000000000E+00 0.  1.
         23    2    1    2    0    0  0.94351060470E+01 -0.18908873201E+02  0.56818507693E+02  0.11015753267E+03  0.91977021451E+02 0.  0.
         23    2    1    2    0    0  0.73224950189E+01  0.46374265425E+02  0.34623197767E+02  0.10927392607E+03  0.92400398638E+02 0.  0.
        -11    1    3    3    0    0 -0.11201126357E+02 -0.38154195993E+02 -0.70029446873E+01  0.40376343790E+02  0.00000000000E+00 0.  1.
         11    1    3    3    0    0  0.20636232404E+02  0.19245322792E+02  0.63821452381E+02  0.69781188878E+02  0.00000000000E+00 0. -1.
        -11    1    4    4    0    0  0.42923487707E+02  0.30433524931E+01  0.31080455598E+02  0.53081847288E+02  0.00000000000E+00 0.  1.
         11    1    4    4    0    0 -0.35600992688E+02  0.43330912932E+02  0.35427421691E+01  0.56192078783E+02  0.00000000000E+00 0. -1.
          1    1    1    2  501    0 -0.16757601066E+02 -0.27465392224E+02 -0.54140770219E+02  0.62979266139E+02  0.00000000000E+00 0. -1.
<scales pt_clust_5="13000.00000" pt_clust_6="13000.00000" pt_clust_7="13000.00000" pt_clust_8="13000.00000" pt_clust_9="32.17398"></scales>
<clustering>
<clus scale="   32.174">  2  9  1 -1</clus>
<clus scale="   91.977">  5  6 -1 -1</clus>
<clus scale="   92.400">  7  8 -1 -1</clus>
<clus scale="   96.888">  1  5  2 -1</clus>
<clus scale="   32.174">  2  5  1 -1</clus>
</clustering>
</event>
<event>
 9    1  0.1636528E-005  0.1515263E+03  0.7546771E-02  0.1198889E+00
          1   -1    0    0  502    0 -0.00000000000E+00  0.00000000000E+00  0.86002509672E+03  0.86002509672E+03  0.00000000000E+00 0. -1.
         21   -1    0    0  501  502  0.00000000000E+00 -0.00000000000E+00 -0.57297197459E+02  0.57297197459E+02  0.00000000000E+00 0.  1.
         23    2    1    2    0    0  0.82526557579E+02  0.79877708517E+02  0.59678225457E+03  0.61483745102E+03  0.93193083379E+02 0.  0.
         23    2    1    2    0    0 -0.10218377115E+03 -0.10027929394E+03  0.11013062783E+03  0.20256913774E+03  0.91695367923E+02 0.  0.
        -11    1    4    4    0    0 -0.47593360881E+02  0.59161165336E+01  0.16118076642E+02  0.50595660184E+02  0.00000000000E+00 0.  1.
         11    1    4    4    0    0 -0.54590410267E+02 -0.10619541047E+03  0.94012551193E+02  0.15197347756E+03  0.00000000000E+00 0. -1.
        -13    1    3    3    0    0 -0.15684812101E+02  0.32470084678E+02  0.20560026416E+03  0.20873856460E+03  0.00000000000E+00 0.  1.
         13    1    3    3    0    0  0.98211369680E+02  0.47407623839E+02  0.39118199041E+03  0.40609888642E+03  0.00000000000E+00 0. -1.
          1    1    1    2  501    0  0.19657213569E+02  0.20401585423E+02  0.95815016853E+02  0.99915705410E+02  0.00000000000E+00 0. -1.
<scales pt_clust_5="13000.00000" pt_clust_6="13000.00000" pt_clust_7="13000.00000" pt_clust_8="13000.00000" pt_clust_9="28.33075"></scales>
<clustering>
<clus scale="   28.331">  2  9  1 -1</clus>
<clus scale="   91.695">  5  6 -1 -1</clus>
<clus scale="   93.193">  7  8 -1 -1</clus>
<clus scale="  150.610">  2  5  1 -1</clus>
<clus scale="   28.331">  2  5  1 -1</clus>
</clustering>
</event>
<event>
 9    1  0.1636528E-005  0.1039842E+03  0.7546771E-02  0.1273024E+00
         21   -1    0    0  501  502  0.00000000000E+00  0.00000000000E+00  0.11421518173E+03  0.11421518173E+03  0.00000000000E+00 0. -1.
          1   -1    0    0  502    0 -0.00000000000E+00 -0.00000000000E+00 -0.43490456492E+03  0.43490456492E+03  0.00000000000E+00 0. -1.
         23    2    1    2    0    0 -0.53055605515E+02  0.11302492491E+02 -0.36310056377E+03  0.37864822462E+03  0.92681254768E+02 0.  0.
         23    2    1    2    0    0  0.14168152002E+02  0.18477400824E+02 -0.15190683090E+02  0.94860340418E+02  0.90694963803E+02 0.  0.
        -11    1    4    4    0    0  0.42411880498E+02 -0.12138365413E+02  0.11245809610E+02  0.45525550585E+02  0.00000000000E+00 0.  1.
         11    1    4    4    0    0 -0.28243728496E+02  0.30615766237E+02 -0.26436492700E+02  0.49334789833E+02  0.00000000000E+00 0. -1.
        -13    1    3    3    0    0 -0.42150190528E+02 -0.31540684822E+02 -0.11288514364E+03  0.12455725196E+03  0.00000000000E+00 0. -1.
         13    1    3    3    0    0 -0.10905414988E+02  0.42843177313E+02 -0.25021542013E+03  0.25409097266E+03  0.00000000000E+00 0.  1.
          1    1    1    2  501    0  0.38887453513E+02 -0.29779893314E+02  0.57601863667E+02  0.75611181610E+02  0.00000000000E+00 0. -1.
<scales pt_clust_5="13000.00000" pt_clust_6="13000.00000" pt_clust_7="13000.00000" pt_clust_8="13000.00000" pt_clust_9="48.98036"></scales>
<clustering>
<clus scale="   48.980">  1  9  2 -1</clus>
<clus scale="   90.695">  5  6 -1 -1</clus>
<clus scale="   92.681">  7  8 -1 -1</clus>
<clus scale="  102.218">  1  5  2 -1</clus>
<clus scale="   48.980">  1  5  2 -1</clus>
</clustering>
</event>
<event>
 9    1  0.1636528E-005  0.2408898E+03  0.7546771E-02  0.1119279E+00
         21   -1    0    0  501  502  0.00000000000E+00  0.00000000000E+00  0.33169036177E+03  0.33169036177E+03  0.00000000000E+00 0. -1.
          1   -1    0    0  502    0 -0.00000000000E+00 -0.00000000000E+00 -0.91431178338E+03  0.91431178338E+03  0.00000000000E+00 0. -1.
         23    2    1    2    0    0 -0.11867773350E+03  0.18789550469E+03 -0.81286707800E+03  0.84770447275E+03  0.91982941474E+02 0.  0.
         23    2    1    2    0    0  0.15422949672E+03 -0.17394168454E+03  0.25173957563E+03  0.35447273053E+03  0.90750512263E+02 0.  0.
        -13    1    4    4    0    0  0.55531080643E+01 -0.35034551572E+02  0.69231045773E+01  0.36141197961E+02  0.00000000000E+00 0.  1.
         13    1    4    4    0    0  0.14867638865E+03 -0.13890713297E+03  0.24481647105E+03  0.31833153257E+03  0.00000000000E+00 0. -1.
        -13    1    3    3    0    0 -0.97413041474E+02  0.19384685692E+03 -0.70604841597E+03  0.73862728780E+03  0.00000000000E+00 0. -1.
         13    1    3    3    0    0 -0.21264692021E+02 -0.59513522304E+01 -0.10681866203E+03  0.10907718496E+03  0.00000000000E+00 0.  1.
          1    1    1    2  501    0 -0.35551763223E+02 -0.13953820146E+02 -0.21493919244E+02  0.43824941864E+02  0.00000000000E+00 0. -1.
<scales pt_clust_5="13000.00000" pt_clust_6="13000.00000" pt_clust_7="13000.00000" pt_clust_8="13000.00000" pt_clust_9="38.19213"></scales>
<clustering>
<clus scale="   38.192">  1  9  2 -1</clus>
<clus scale="   90.751">  5  6 -1 -1</clus>
<clus scale="   91.983">  7  8 -1 -1</clus>
<clus scale="  240.422">  1  5  2 -1</clus>
<clus scale="   38.192">  1  5  2 -1</clus>
</clustering>
</event>
<event>
 9    1  0.1636528E-005  0.9744039E+02  0.7546771E-02  0.1287670E+00
         21   -1    0    0  501  502  0.00000000000E+00  0.00000000000E+00  0.62643373496E+03  0.62643373496E+03  0.00000000000E+00 0.  1.
          1   -1    0    0  502    0 -0.00000000000E+00 -0.00000000000E+00 -0.18923385117E+02  0.18923385117E+02  0.00000000000E+00 0. -1.
         23    2    1    2    0    0 -0.20558119585E+02  0.11022310683E+02  0.22230292246E+03  0.24275240291E+03  0.94689028777E+02 0.  0.
         23    2    1    2    0    0  0.71586898457E+01 -0.26217633626E+02  0.28787640671E+03  0.30318756501E+03  0.91166127956E+02 0.  0.
        -13    1    3    3    0    0 -0.46288153890E+01 -0.34841241791E+02  0.15973825618E+03  0.16355931202E+03  0.00000000000E+00 0.  1.
         13    1    3    3    0    0 -0.15929304196E+02  0.45863552475E+02  0.62564666281E+02  0.79193090889E+02  0.00000000000E+00 0. -1.
        -13    1    4    4    0    0 -0.38427965083E+02 -0.29496830331E+02  0.16976593313E+03  0.17654246954E+03  0.00000000000E+00 0.  1.
         13    1    4    4    0    0  0.45586654928E+02  0.32791967053E+01  0.11811047358E+03  0.12664509548E+03  0.00000000000E+00 0. -1.
          1    1    1    2  501    0  0.13399429739E+02  0.15195322943E+02  0.97331020680E+02  0.99417152158E+02  0.00000000000E+00 0. -1.
<scales pt_clust_5="13000.00000" pt_clust_6="13000.00000" pt_clust_7="13000.00000" pt_clust_8="13000.00000" pt_clust_9="20.25938"></scales>
<clustering>
<clus scale="   20.259">  1  9  2 -1</clus>
<clus scale="   91.166">  7  8 -1 -1</clus>
<clus scale="   94.021">  1  7  2 -1</clus>
<clus scale="   94.689">  5  6 -1 -1</clus>
<clus scale="   20.259">  1  5  2 -1</clus>
</clustering>
</event>
<event>
 9    1  0.1636528E-005  0.2497726E+03  0.7546771E-02  0.1113488E+00
          1   -1    0    0  502    0 -0.00000000000E+00  0.00000000000E+00  0.99903835686E+03  0.99903835686E+03  0.00000000000E+00 0. -1.
         21   -1    0    0  501  502  0.00000000000E+00 -0.00000000000E+00 -0.21918431320E+03  0.21918431320E+03  0.00000000000E+00 0.  1.
         23    2    1    2    0    0 -0.49238451684E+02 -0.22811689812E+03  0.74530191850E+03  0.78632424819E+03  0.91482945093E+02 0.  0.
         23    2    1    2    0    0  0.77467999257E+02  0.21742249654E+03  0.16507002163E+03  0.29793499820E+03  0.90792721099E+02 0.  0.
        -11    1    4    4    0    0  0.60848064139E+02  0.12942573695E+03  0.48665787235E+02  0.15106908069E+03  0.00000000000E+00 0.  1.
         11    1    4    4    0    0  0.16619935117E+02  0.87996759591E+02  0.11640423439E+03  0.14686591751E+03  0.00000000000E+00 0. -1.
        -13    1    3    3    0    0 -0.64069089336E+02 -0.13435280697E+03  0.36124216408E+03  0.39070631689E+03  0.00000000000E+00 0.  1.
         13    1    3    3    0    0  0.14830637652E+02 -0.93764091153E+02  0.38405975442E+03  0.39561793130E+03  0.00000000000E+00 0. -1.
          1    1    1    2  501    0 -0.28229547573E+02  0.10694401583E+02 -0.13051789647E+03  0.13396342367E+03  0.00000000000E+00 0. -1.
<scales pt_clust_5="13000.00000" pt_clust_6="13000.00000" pt_clust_7="13000.00000" pt_clust_8="13000.00000" pt_clust_9="30.18737"></scales>
<clustering>
<clus scale="   30.187">  2  9  1 -1</clus>
<clus scale="   90.793">  5  6 -1 -1</clus>
<clus scale="   91.483">  7  8 -1 -1</clus>
<clus scale="  249.521">  2  5  1 -1</clus>
<clus scale="   30.187">  2  5  1 -1</clus>
</clustering>
</event>
<event>
 9    1  0.1636528E-005  0.2363779E+03  0.7546771E-02  0.1122308E+00
         21   -1    0    0  501  502  0.00000000000E+00  0.00000000000E+00  0.18577900766E+03  0.18577900766E+03  0.00000000000E+00 0. -1.
          4   -1    0    0  502    0 -0.00000000000E+00 -0.00000000000E+00 -0.41058221197E+03  0.41058221197E+03  0.00000000000E+00 0. -1.
         23    2    1    2    0    0  0.20631848760E+03  0.87490563087E+02 -0.15516624548E+03  0.28722926748E+03  0.90565840163E+02 0.  0.
         23    2    1    2    0    0 -0.18509721402E+03 -0.10270557009E+03 -0.11423946803E+03  0.25744807927E+03  0.91757532104E+02 0.  0.
        -11    1    4    4    0    0 -0.84150042902E+02 -0.97617311762E+02 -0.74326119791E+02  0.14877748942E+03  0.00000000000E+00 0.  1.
         11    1    4    4    0    0 -0.10094717112E+03 -0.50882583307E+01 -0.39913348235E+02  0.10867058985E+03  0.00000000000E+00 0. -1.
        -11    1    3    3    0    0  0.35302162007E+02  0.21470418901E+02  0.76809325842E+01  0.42026399507E+02  0.00000000000E+00 0.  1.
         11    1    3    3    0    0  0.17101632560E+03  0.66020144186E+02 -0.16284717806E+03  0.24520286797E+03  0.00000000000E+00 0. -1.
          4    1    1    2  501    0 -0.21221273578E+02  0.15215007007E+02  0.44602509193E+02  0.51683872889E+02  0.00000000000E+00 0. -1.
<scales pt_clust_5="13000.00000" pt_clust_6="13000.00000" pt_clust_7="13000.00000" pt_clust_8="13000.00000" pt_clust_9="26.11204"></scales>
<clustering>
<clus scale="   26.112">  1  9  2 -1</clus>
<clus scale="   90.566">  7  8 -1 -1</clus>
<clus scale="   91.758">  5  6 -1 -1</clus>
<clus scale="  235.918">  2  7  1 -1</clus>
<clus scale="   26.112">  1  5  2 -1</clus>
</clustering>
</event>
<event>
 9    1  0.1636528E-005  0.1189631E+03  0.7546771E-02  0.1245129E+00
         21   -1    0    0  501  502  0.00000000000E+00  0.00000000000E+00  0.85041879906E+02  0.85041879906E+02  0.00000000000E+00 0.  1.
         -3   -1    0    0    0  501 -0.00000000000E+00 -0.00000000000E+00 -0.43040902948E+03  0.43040902948E+03  0.00000000000E+00 0.  1.
         23    2    1    2    0    0 -0.27993556375E+02  0.76231535250E+02 -0.34031844441E+03  0.36125412704E+03  0.89961183485E+02 0.  0.
         23    2    1    2    0    0  0.12006570106E+02 -0.59130331130E+02 -0.36423085256E+02  0.11505107200E+03  0.90937089483E+02 0.  0.
        -11    1    3    3    0    0 -0.36691233901E+02  0.29521804254E+02 -0.28259242827E+03  0.28648955319E+03  0.00000000000E+00 0.  1.
         11    1    3    3    0    0  0.86976775258E+01  0.46709730995E+02 -0.57726016146E+02  0.74764573858E+02  0.00000000000E+00 0. -1.
        -13    1    4    4    0    0  0.26508671915E+02  0.16090781912E+02 -0.20242744631E+01  0.31076046022E+02  0.00000000000E+00 0.  1.
         13    1    4    4    0    0 -0.14502101809E+02 -0.75221113042E+02 -0.34398810793E+02  0.83975025979E+02  0.00000000000E+00 0. -1.
         -3    1    1    2    0  502  0.15986986270E+02 -0.17101204119E+02  0.31374380091E+02  0.39145710345E+02  0.00000000000E+00 0.  1.
<scales pt_clust_5="13000.00000" pt_clust_6="13000.00000" pt_clust_7="13000.00000" pt_clust_8="13000.00000" pt_clust_9="23.41015"></scales>
<clustering>
<clus scale="   23.410">  1  9  2 -1</clus>
<clus scale="   89.961">  5  6 -1 -1</clus>
<clus scale="   90.937">  7  8 -1 -1</clus>
<clus scale="  118.219">  2  5  1 -1</clus>
<clus scale="   23.410">  1  5  2 -1</clus>
</clustering>
</event>
<event>
 9    1  0.1636528E-005  0.1080226E+03  0.7546771E-02  0.1272096E+00
         21   -1    0    0  501  502  0.00000000000E+00  0.00000000000E+00  0.10345608677E+03  0.10345608677E+03  0.00000000000E+00 0. -1.
          1   -1    0    0  502    0 -0.00000000000E+00 -0.00000000000E+00 -0.32781819075E+03  0.32781819075E+03  0.00000000000E+00 0. -1.
         23    2    1    2    0    0  0.27502241738E+02  0.11503802249E+02 -0.22185863550E+03  0.24790238425E+03  0.10651585424E+03 0.  0.
         23    2    1    2    0    0  0.25036366093E+01  0.24883357911E+01 -0.65485062403E+02  0.11221844054E+03  0.91061654877E+02 0.  0.
        -11    1    4    4    0    0 -0.40902057990E+02  0.14128695234E+02 -0.18082681122E+02  0.46899698649E+02  0.00000000000E+00 0. -1.
         11    1    4    4    0    0  0.43405694599E+02 -0.11640359443E+02 -0.47402381281E+02  0.65318741895E+02  0.00000000000E+00 0.  1.
        -13    1    3    3    0    0  0.67506745772E+02 -0.41862412443E+01 -0.13511191734E+03  0.15109571651E+03  0.00000000000E+00 0.  1.
         13    1    3    3    0    0 -0.40004504034E+02  0.15690043493E+02 -0.86746718161E+02  0.96806667743E+02  0.00000000000E+00 0. -1.
          1    1    1    2  501    0 -0.30005878347E+02 -0.13992138040E+02  0.62981593924E+02  0.71153452731E+02  0.00000000000E+00 0. -1.
<scales pt_clust_5="13000.00000" pt_clust_6="13000.00000" pt_clust_7="13000.00000" pt_clust_8="13000.00000" pt_clust_9="33.10789"></scales>
<clustering>
<clus scale="   33.108">  1  9  2 -1</clus>
<clus scale="   91.062">  5  6 -1 -1</clus>
<clus scale="   92.820">  1  5  2 -1</clus>
<clus scale="  106.516">  7  8 -1 -1</clus>
<clus scale="   33.108">  1  5  2 -1</clus>
</clustering>
</event>
<event>
 9    1  0.1636528E-005  0.3500248E+03  0.7546771E-02  0.1087878E+00
          1   -1    0    0  502    0 -0.00000000000E+00  0.00000000000E+00  0.13195904665E+04  0.13195904665E+04  0.00000000000E+00 0. -1.
         21   -1    0    0  501  502  0.00000000000E+00 -0.00000000000E+00 -0.29060491660E+03  0.29060491660E+03  0.00000000000E+00 0. -1.
         23    2    1    2    0    0  0.14905617262E+03  0.11997789698E+02  0.86543037530E+03  0.88316172372E+03  0.92968845279E+02 0.  0.
         23    2    1    2    0    0  0.26248989661E+03  0.68116303804E+02  0.99994036169E+02  0.30297180850E+03  0.90842351412E+02 0.  0.
        -11    1    4    4    0    0  0.21515071501E+03  0.33174975095E+02  0.10898578258E+03  0.24345083681E+03  0.00000000000E+00 0. -1.
         11    1    4    4    0    0  0.47339181607E+02  0.34941328709E+02 -0.89917464142E+01  0.59520971689E+02  0.00000000000E+00 0.  1.
        -11    1    3    3    0    0  0.50045419710E+02  0.49305715772E+02  0.33855363877E+03  0.34576605381E+03  0.00000000000E+00 0.  1.
         11    1    3    3    0    0  0.99010752914E+02 -0.37307926074E+02  0.52687673653E+03  0.53739566991E+03  0.00000000000E+00 0. -1.
          1    1    1    2  501    0 -0.41154606924E+03 -0.80114093502E+02  0.63561138468E+02  0.42406185092E+03  0.00000000000E+00 0. -1.
<scales pt_clust_5="13000.00000" pt_clust_6="13000.00000" pt_clust_7="13000.00000" pt_clust_8="13000.00000" pt_clust_9="338.03123"></scales>
<clustering>
<clus scale="   90.842">  5  6 -1 -1</clus>
<clus scale="   92.969">  7  8 -1 -1</clus>
<clus scale="  176.082">  1  7  2 -1</clus>
<clus scale="  338.031">  2  9  1 -1</clus>
<clus scale="  338.031">  2  5  1 -1</clus>
</clustering>
</event>
<event>
 9    1  0.1636528E-005  0.9403010E+02  0.7546771E-02  0.1293415E+00
         21   -1    0    0  501  502  0.00000000000E+00  0.00000000000E+00  0.12830686956E+03  0.12830686956E+03  0.00000000000E+00 0. -1.
          3   -1    0    0  502    0 -0.00000000000E+00 -0.00000000000E+00 -0.13779851281E+03  0.13779851281E+03  0.00000000000E+00 0. -1.
         23    2    1    2    0    0  0.12146165039E+01 -0.38392499849E+02 -0.32390435974E+02  0.10233216249E+03  0.89147472197E+02 0.  0.
         23    2    1    2    0    0  0.41408772828E+02  0.55960770629E+01 -0.12615587719E+02  0.99324559046E+02  0.89220022588E+02 0.  0.
        -11    1    3    3    0    0  0.35431101757E+02 -0.38983346372E+02  0.34320872078E+01  0.52790562496E+02  0.00000000000E+00 0. -1.
         11    1    3    3    0    0 -0.34216485253E+02  0.59084652336E+00 -0.35822523182E+02  0.49541599992E+02  0.00000000000E+00 0.  1.
        -11    1    4    4    0    0  0.63160638189E+02 -0.40259186773E+01 -0.29827250926E+02  0.69965270924E+02  0.00000000000E+00 0. -1.
         11    1    4    4    0    0 -0.21751865361E+02  0.96219957401E+01  0.17211663207E+02  0.29359288122E+02  0.00000000000E+00 0.  1.
          3    1    1    2  501    0 -0.42623389332E+02  0.32796422786E+02  0.35514380435E+02  0.64448660835E+02  0.00000000000E+00 0. -1.
<scales pt_clust_5="13000.00000" pt_clust_6="13000.00000" pt_clust_7="13000.00000" pt_clust_8="13000.00000" pt_clust_9="53.78065"></scales>
<clustering>
<clus scale="   53.781">  1  9  2 -1</clus>
<clus scale="   89.147">  5  6 -1 -1</clus>
<clus scale="   89.220">  7  8 -1 -1</clus>
<clus scale="   93.961">  2  5  1 -1</clus>
<clus scale="   53.781">  1  5  2 -1</clus>
</clustering>
</event>
<event>
 9    1  0.1636528E-005  0.1049211E+03  0.7546771E-02  0.1271520E+00
         21   -1    0    0  501  502  0.00000000000E+00  0.00000000000E+00  0.18003134172E+03  0.18003134172E+03  0.00000000000E+00 0. -1.
         -3   -1    0    0    0  501 -0.00000000000E+00 -0.00000000000E+00 -0.78049673148E+02  0.78049673148E+02  0.00000000000E+00 0.  1.
         23    2    1    2    0    0  0.50573178922E+02 -0.13639168868E+02  0.19848908263E+02  0.10613218659E+03  0.90146483672E+02 0.  0.
         23    2    1    2    0    0 -0.35884665971E+02  0.28569670548E+02  0.54042275504E+02  0.11690959841E+03  0.92969625851E+02 0.  0.
        -11    1    3    3    0    0  0.10230289667E+02  0.22406293799E+02 -0.25563019922E+02  0.35498856545E+02  0.00000000000E+00 0. -1.
         11    1    3    3    0    0  0.40342889255E+02 -0.36045462667E+02  0.45411928185E+02  0.70633330048E+02  0.00000000000E+00 0.  1.
        -11    1    4    4    0    0 -0.52201216280E+02  0.47054131355E+02  0.58999387769E+02  0.91760481777E+02  0.00000000000E+00 0. -1.
         11    1    4    4    0    0  0.16316550309E+02 -0.18484460806E+02 -0.49571122652E+01  0.25149116631E+02  0.00000000000E+00 0.  1.
         -3    1    1    2    0  502 -0.14688512950E+02 -0.14930501681E+02  0.28090484807E+02  0.35039229869E+02  0.00000000000E+00 0.  1.
<scales pt_clust_5="13000.00000" pt_clust_6="13000.00000" pt_clust_7="13000.00000" pt_clust_8="13000.00000" pt_clust_9="20.94451"></scales>
<clustering>
<clus scale="   20.945">  1  9  2 -1</clus>
<clus scale="   90.146">  5  6 -1 -1</clus>
<clus scale="   92.970">  7  8 -1 -1</clus>
<clus scale="  102.428">  2  5  1 -1</clus>
<clus scale="   20.945">  1  5  2 -1</clus>
</clustering>
</event>
<event>
 9    1  0.1636528E-005  0.1217594E+03  0.7546771E-02  0.1241539E+00
          1   -1    0    0  502    0 -0.00000000000E+00  0.00000000000E+00  0.47423068122E+03  0.47423068122E+03  0.00000000000E+00 0. -1.
         21   -1    0    0  501  502  0.00000000000E+00 -0.00000000000E+00 -0.78520464067E+02  0.78520464067E+02  0.00000000000E+00 0.  1.
         23    2    1    2    0    0 -0.41123362223E+02 -0.39528287613E+02  0.22931319453E+03  0.25472298505E+03  0.95108577336E+02 0.  0.
         23    2    1    2    0    0  0.72767833805E+02  0.87427440583E+02  0.18700571720E+03  0.23703291674E+03  0.90965654776E+02 0.  0.
        -11    1    3    3    0    0  0.13310072702E+02 -0.42487375779E+02  0.16251591655E+03  0.16850447551E+03  0.00000000000E+00 0.  1.
         11    1    3    3    0    0 -0.54433434925E+02  0.29590881652E+01  0.66797277982E+02  0.86218509534E+02  0.00000000000E+00 0. -1.
        -13    1    4    4    0    0  0.65080236190E+02  0.32055962011E+02  0.47422154962E+02  0.86671117589E+02  0.00000000000E+00 0.  1.
         13    1    4    4    0    0  0.76875976157E+01  0.55371478571E+02  0.13958356224E+03  0.15036179915E+03  0.00000000000E+00 0. -1.
          1    1    1    2  501    0 -0.31644471582E+02 -0.47899152969E+02 -0.20608694582E+02  0.60995243497E+02  0.00000000000E+00 0. -1.
<scales pt_clust_5="13000.00000" pt_clust_6="13000.00000" pt_clust_7="13000.00000" pt_clust_8="13000.00000" pt_clust_9="57.40820"></scales>
<clustering>
<clus scale="   57.408">  2  9  1 -1</clus>
<clus scale="   90.966">  7  8 -1 -1</clus>
<clus scale="   95.109">  5  6 -1 -1</clus>
<clus scale="  118.552">  2  7  1 -1</clus>
<clus scale="   57.408">  2  5  1 -1</clus>
</clustering>
</event>
<event>
 9    1  0.1636528E-005  0.1084785E+03  0.7546771E-02  0.1265303E+00
          1   -1    0    0  502    0 -0.00000000000E+00  0.00000000000E+00  0.55311211335E+03  0.55311211335E+03  0.00000000000E+00 0. -1.
         21   -1    0    0  501  502  0.00000000000E+00 -0.00000000000E+00 -0.62549192141E+02  0.62549192141E+02  0.00000000000E+00 0. -1.
         23    2    1    2    0    0 -0.31132877571E+02  0.40801435805E+02  0.43773289200E+03  0.44997369964E+03  0.90731650466E+02 0.  0.
         23    2    1    2    0    0  0.91168335425E+01 -0.60826087762E+02  0.68091192960E+02  0.13224218762E+03  0.95229491350E+02 0.  0.
        -13    1    3    3    0    0  0.63458724191E+01  0.59663708230E+02  0.30204555932E+03  0.30794731381E+03  0.00000000000E+00 0. -1.
         13    1    3    3    0    0 -0.37478749990E+02 -0.18862272424E+02  0.13568733269E+03  0.14202638584E+03  0.00000000000E+00 0.  1.
        -13    1    4    4    0    0 -0.27097850660E+02 -0.70735260611E+02  0.43310571171E+02  0.87255808857E+02  0.00000000000E+00 0. -1.
         13    1    4    4    0    0  0.36214684202E+02  0.99091728489E+01  0.24780621789E+02  0.44986378768E+02  0.00000000000E+00 0.  1.
          1    1    1    2  501    0  0.22016044029E+02  0.20024651956E+02 -0.15261163760E+02  0.33445418220E+02  0.00000000000E+00 0. -1.
<scales pt_clust_5="13000.00000" pt_clust_6="13000.00000" pt_clust_7="13000.00000" pt_clust_8="13000.00000" pt_clust_9="29.76059"></scales>
<clustering>
<clus scale="   29.761">  2  9  1 -1</clus>
<clus scale="   90.732">  5  6 -1 -1</clus>
<clus scale="   95.229">  7  8 -1 -1</clus>
<clus scale="  104.552">  1  5  2 -1</clus>
<clus scale="   29.761">  2  5  1 -1</clus>
</clustering>
</event>
<event>
 9    1  0.1636528E-005  0.2103051E+03  0.7546771E-02  0.1156440E+00
          1   -1    0    0  502    0 -0.00000000000E+00  0.00000000000E+00  0.18750970637E+03  0.18750970637E+03  0.00000000000E+00 0. -1.
         21   -1    0    0  501  502  0.00000000000E+00 -0.00000000000E+00 -0.52796816691E+03  0.52796816691E+03  0.00000000000E+00 0. -1.
         23    2    1    2    0    0 -0.11278168999E+03  0.13128260975E+02  0.43079675705E+01  0.14695320399E+03  0.93191334065E+02 0.  0.
         23    2    1    2    0    0  0.17905862919E+03  0.15268822829E+03 -0.11524723685E+03  0.27772095554E+03  0.92039751188E+02 0.  0.
        -11    1    3    3    0    0 -0.29187412534E+02 -0.37196660590E+02 -0.10026097058E+02  0.48332382847E+02  0.00000000000E+00 0.  1.
         11    1    3    3    0    0 -0.83594277452E+02  0.50324921565E+02  0.14334064628E+02  0.98620821138E+02  0.00000000000E+00 0. -1.
        -13    1    4    4    0    0  0.12601063685E+02  0.53872138748E+02 -0.46581409136E+02  0.72324420609E+02  0.00000000000E+00 0.  1.
         13    1    4    4    0    0  0.16645756550E+03  0.98816089541E+02 -0.68665827711E+02  0.20539653493E+03  0.00000000000E+00 0. -1.
          1    1    1    2  501    0 -0.66276939201E+02 -0.16581648926E+03 -0.22951919126E+03  0.29080371376E+03  0.00000000000E+00 0. -1.
<scales pt_clust_5="13000.00000" pt_clust_6="13000.00000" pt_clust_7="13000.00000" pt_clust_8="13000.00000" pt_clust_9="189.09497"></scales>
<clustering>
<clus scale="   92.040">  7  8 -1 -1</clus>
<clus scale="   93.191">  5  6 -1 -1</clus>
<clus scale="  146.890">  1  5  2 -1</clus>
<clus scale="  189.095">  2  9  1 -1</clus>
<clus scale="  189.095">  2  5  1 -1</clus>
</clustering>
</event>
<event>
 9    1  0.1636528E-005  0.1451509E+03  0.7546771E-02  0.1209067E+00
         21   -1    0    0  501  502  0.00000000000E+00  0.00000000000E+00  0.11872524393E+03  0.11872524393E+03  0.00000000000E+00 0. -1.
         -2   -1    0    0    0  501 -0.00000000000E+00 -0.00000000000E+00 -0.26411568455E+03  0.26411568455E+03  0.00000000000E+00 0.  1.
         23    2    1    2    0    0  0.72316658908E+02 -0.84024315056E+02 -0.13236072485E+03  0.20053804632E+03  0.10201157710E+03 0.  0.
         23    2    1    2    0    0 -0.69295486638E+02  0.63028215179E+02 -0.49927887847E+02  0.13974188130E+03  0.90887727589E+02 0.  0.
        -11    1    4    4    0    0 -0.81575552458E+02  0.17906676550E+02 -0.36025409406E+02  0.90956307900E+02  0.00000000000E+00 0.  1.
         11    1    4    4    0    0  0.12280065820E+02  0.45121538629E+02 -0.13902478441E+02  0.48785573396E+02  0.00000000000E+00 0. -1.
        -11    1    3    3    0    0 -0.82901636030E+01 -0.28518110496E+02 -0.88388070568E+02  0.93244090738E+02  0.00000000000E+00 0.  1.
         11    1    3    3    0    0  0.80606822511E+02 -0.55506204560E+02 -0.43972654283E+02  0.10729395558E+03  0.00000000000E+00 0. -1.
         -2    1    1    2    0  502 -0.30211722695E+01  0.20996099877E+02  0.36898172077E+02  0.42561000864E+02  0.00000000000E+00 0.  1.
<scales pt_clust_5="13000.00000" pt_clust_6="13000.00000" pt_clust_7="13000.00000" pt_clust_8="13000.00000" pt_clust_9="21.21235"></scales>
<clustering>
<clus scale="   21.212">  1  9  2 -1</clus>
<clus scale="   90.888">  5  6 -1 -1</clus>
<clus scale="  102.012">  7  8 -1 -1</clus>
<clus scale="  137.561">  1  5  2 -1</clus>
<clus scale="   21.212">  1  5  2 -1</clus>
</clustering>
</event>
<event>
 9    1  0.1636528E-005  0.1734322E+03  0.7546771E-02  0.1197472E+00
         -2   -1    0    0    0  501 -0.00000000000E+00  0.00000000000E+00  0.46267972658E+03  0.46267972658E+03  0.00000000000E+00 0.  1.
         21   -1    0    0  501  502  0.00000000000E+00 -0.00000000000E+00 -0.10772062137E+03  0.10772062137E+03  0.00000000000E+00 0.  1.
         23    2    1    2    0    0 -0.10481868345E+02 -0.47635675433E+02  0.30320338662E+02  0.10793900213E+03  0.91391892996E+02 0.  0.
         23    2    1    2    0    0  0.81452398964E+00  0.17686754238E+03  0.20761796136E+03  0.28785263519E+03  0.92038745725E+02 0.  0.
        -11    1    4    4    0    0  0.32947619120E+02  0.67837586587E+02  0.40105497582E+02  0.85416243748E+02  0.00000000000E+00 0. -1.
         11    1    4    4    0    0 -0.32133095130E+02  0.10902995579E+03  0.16751246378E+03  0.20243639145E+03  0.00000000000E+00 0.  1.
        -13    1    3    3    0    0  0.95459782367E+01 -0.55511279138E+02  0.52525341516E+02  0.77016487283E+02  0.00000000000E+00 0. -1.
         13    1    3    3    0    0 -0.20027846582E+02  0.78756037048E+01 -0.22205002854E+02  0.30922514843E+02  0.00000000000E+00 0.  1.
         -2    1    1    2    0  502  0.96673443558E+01 -0.12923186694E+03  0.11702080519E+03  0.17460871063E+03  0.00000000000E+00 0.  1.
<scales pt_clust_5="13000.00000" pt_clust_6="13000.00000" pt_clust_7="13000.00000" pt_clust_8="13000.00000" pt_clust_9="146.99525"></scales>
<clustering>
<clus scale="   91.392">  7  8 -1 -1</clus>
<clus scale="   92.039">  5  6 -1 -1</clus>
<clus scale="  103.593">  1  7  2 -1</clus>
<clus scale="  146.995">  2  9  1 -1</clus>
<clus scale="  146.995">  2  5  1 -1</clus>
</clustering>
</event>
<event>
 9    1  0.1636528E-005  0.1298542E+03  0.7546771E-02  0.1228934E+00
          2   -1    0    0  502    0 -0.00000000000E+00  0.00000000000E+00  0.64637297114E+03  0.64637297114E+03  0.00000000000E+00 0. -1.
         21   -1    0    0  501  502  0.00000000000E+00 -0.00000000000E+00 -0.45167103823E+02  0.45167103823E+02  0.00000000000E+00 0.  1.
         23    2    1    2    0    0  0.24381788577E+02  0.85430236709E+02  0.36194093148E+03  0.38333957033E+03  0.89750717767E+02 0.  0.
         23    2    1    2    0    0 -0.19519889499E+01 -0.91399706051E+02  0.25014506921E+03  0.28256639108E+03  0.94411297991E+02 0.  0.
        -11    1    3    3    0    0  0.26771855135E+02 -0.99289121752E+01  0.55792152039E+02  0.62674394720E+02  0.00000000000E+00 0.  1.
         11    1    3    3    0    0 -0.23900665575E+01  0.95359148884E+02  0.30614877944E+03  0.32066517561E+03  0.00000000000E+00 0. -1.
        -13    1    4    4    0    0 -0.24557015987E+02 -0.98546984447E+02  0.23011304687E+03  0.25152846662E+03  0.00000000000E+00 0.  1.
         13    1    4    4    0    0  0.22605027037E+02  0.71472783954E+01  0.20032022341E+02  0.31037924461E+02  0.00000000000E+00 0. -1.
          2    1    1    2  501    0 -0.22429799628E+02  0.59694693422E+01 -0.10880133377E+02  0.25634113557E+02  0.00000000000E+00 0. -1.
<scales pt_clust_5="13000.00000" pt_clust_6="13000.00000" pt_clust_7="13000.00000" pt_clust_8="13000.00000" pt_clust_9="23.21057"></scales>
<clustering>
<clus scale="   23.211">  2  9  1 -1</clus>
<clus scale="   89.751">  5  6 -1 -1</clus>
<clus scale="   94.411">  7  8 -1 -1</clus>
<clus scale="  126.506">  1  5  2 -1</clus>
<clus scale="   23.211">  2  5  1 -1</clus>
</clustering>
</event>
<event>
 9    1  0.1636528E-005  0.1458220E+03  0.7546771E-02  0.1206380E+00
          1   -1    0    0  502    0 -0.00000000000E+00  0.00000000000E+00  0.68735340012E+03  0.68735340012E+03  0.00000000000E+00 0. -1.
         21   -1    0    0  501  502  0.00000000000E+00 -0.00000000000E+00 -0.80634525732E+02  0.80634525732E+02  0.00000000000E+00 0.  1.
         23    2    1    2    0    0  0.99290276706E+02 -0.38986979204E+02  0.33170985084E+03  0.35992523682E+03  0.90200927713E+02 0.  0.
         23    2    1    2    0    0 -0.10161306840E+03  0.62071450999E+02  0.32190902195E+03  0.35573776142E+03  0.93519280302E+02 0.  0.
        -13    1    3    3    0    0  0.97423322439E+02 -0.59730705080E+02  0.23914307542E+03  0.26504428197E+03  0.00000000000E+00 0. -1.
         13    1    3    3    0    0  0.18669542670E+01  0.20743725876E+02  0.92566775418E+02  0.94880954847E+02  0.00000000000E+00 0.  1.
        -13    1    4    4    0    0 -0.74952920237E+02  0.82815767339E+02  0.19828324703E+03  0.22757995875E+03  0.00000000000E+00 0.  1.
         13    1    4    4    0    0 -0.26660148160E+02 -0.20744316340E+02  0.12362577491E+03  0.12815780266E+03  0.00000000000E+00 0. -1.
          1    1    1    2  501    0  0.23227916908E+01 -0.23084471796E+02 -0.46899998404E+02  0.52324927612E+02  0.00000000000E+00 0. -1.
<scales pt_clust_5="13000.00000" pt_clust_6="13000.00000" pt_clust_7="13000.00000" pt_clust_8="13000.00000" pt_clust_9="23.20104"></scales>
<clustering>
<clus scale="   23.201">  2  9  1 -1</clus>
<clus scale="   90.201">  5  6 -1 -1</clus>
<clus scale="   93.519">  7  8 -1 -1</clus>
<clus scale="  143.716">  1  5  2 -1</clus>
<clus scale="   23.201">  2  5  1 -1</clus>
</clustering>
</event>
<event>
 9    1  0.1636528E-005  0.1007321E+03  0.7546771E-02  0.1278881E+00
          1   -1    0    0  502    0 -0.00000000000E+00  0.00000000000E+00  0.36418519747E+03  0.36418519747E+03  0.00000000000E+00 0. -1.
         21   -1    0    0  501  502  0.00000000000E+00 -0.00000000000E+00 -0.86423745855E+02  0.86423745855E+02  0.00000000000E+00 0. -1.
         23    2    1    2    0    0 -0.59101822923E+02 -0.39698474395E+01  0.13858951380E+03  0.17659680305E+03  0.92035821025E+02 0.  0.
         23    2    1    2    0    0 -0.76582198679E+01 -0.66863335392E+02  0.13465692617E+03  0.17657175628E+03  0.92280785629E+02 0.  0.
        -13    1    4    4    0    0  0.40831445351E+02 -0.16984914792E+02  0.59894168560E+02  0.74451364577E+02  0.00000000000E+00 0. -1.
         13    1    4    4    0    0 -0.48489665219E+02 -0.49878420600E+02  0.74762757615E+02  0.10212039170E+03  0.00000000000E+00 0.  1.
        -13    1    3    3    0    0 -0.11355660597E+02 -0.27587258127E+02  0.18985277715E+01  0.29893347859E+02  0.00000000000E+00 0.  1.
         13    1    3    3    0    0 -0.47746162326E+02  0.23617410687E+02  0.13669098603E+03  0.14670345519E+03  0.00000000000E+00 0. -1.
          1    1    1    2  501    0  0.66760042791E+02  0.70833182832E+02  0.45150116426E+01  0.97440383998E+02  0.00000000000E+00 0. -1.
<scales pt_clust_5="13000.00000" pt_clust_6="13000.00000" pt_clust_7="13000.00000" pt_clust_8="13000.00000" pt_clust_9="97.33572"></scales>
<clustering>
<clus scale="   92.036">  7  8 -1 -1</clus>
<clus scale="   92.281">  5  6 -1 -1</clus>
<clus scale="   97.336">  2  9  1 -1</clus>
<clus scale="  100.508">  1  7  2 -1</clus>
<clus scale="   97.336">  2  5  1 -1</clus>
</clustering>
</event>
<event>
 9    1  0.2313966E-005  0.1011172E+03  0.7546771E-02  0.1279062E+00
         21   -1    0    0  501  502  0.00000000000E+00  0.00000000000E+00  0.25636609596E+03  0.25636609596E+03  0.00000000000E+00 0. -1.
          1   -1    0    0  502    0 -0.00000000000E+00 -0.00000000000E+00 -0.42087760766E+03  0.42087760766E+03  0.00000000000E+00 0. -1.
         23    2    1    2    0    0  0.35075072218E+02  0.20265479971E+01 -0.27941125096E+03  0.29594835259E+03  0.90996772736E+02 0.  0.
         23    2    1    2    0    0 -0.71033180309E+02  0.11238033992E+02 -0.10678585564E+03  0.15632104659E+03  0.88662531710E+02 0.  0.
        -11    1    3    3    0    0  0.55992700115E+02 -0.26568128399E+02 -0.17008286120E+03  0.18102272671E+03  0.00000000000E+00 0. -1.
         11    1    3    3    0    0 -0.20917627898E+02  0.28594676396E+02 -0.10932838976E+03  0.11492562588E+03  0.00000000000E+00 0.  1.
        -13    1    4    4    0    0 -0.21332581118E+02  0.63154902281E+01  0.13538367023E+02  0.26043268144E+02  0.00000000000E+00 0.  1.
         13    1    4    4    0    0 -0.49700599191E+02  0.49225437643E+01 -0.12032422266E+03  0.13027777844E+03  0.00000000000E+00 0. -1.
          1    1    1    2  501    0  0.35958108092E+02 -0.13264581990E+02  0.22168559490E+03  0.22497430444E+03  0.00000000000E+00 0. -1.
<scales pt_clust_5="13000.00000" pt_clust_6="13000.00000" pt_clust_7="13000.00000" pt_clust_8="13000.00000" pt_clust_9="38.32668"></scales>
<clustering>
<clus scale="   38.327">  1  9  2 -1</clus>
<clus scale="   88.663">  7  8 -1 -1</clus>
<clus scale="   90.997">  5  6 -1 -1</clus>
<clus scale="   99.022">  1  7  2 -1</clus>
<clus scale="   38.327">  1  5  2 -1</clus>
</clustering>
</event>
<event>
 9    1  0.1636528E-005  0.1088789E+03  0.7546771E-02  0.1262677E+00
         21   -1    0    0  501  502  0.00000000000E+00  0.00000000000E+00  0.36029761533E+03  0.36029761533E+03  0.00000000000E+00 0. -1.
          3   -1    0    0  502    0 -0.00000000000E+00 -0.00000000000E+00 -0.28414961956E+03  0.28414961956E+03  0.00000000000E+00 0. -1.
         23    2    1    2    0    0 -0.12497697832E+02  0.49876877958E+02 -0.23140500353E+03  0.25478500814E+03  0.93398229705E+02 0.  0.
         23    2    1    2    0    0  0.24875408168E+02 -0.10613668562E+03  0.10182260890E+03  0.17601914306E+03  0.93440425271E+02 0.  0.
        -13    1    4    4    0    0 -0.19476202079E+01 -0.10288073318E+03  0.10706396062E+03  0.14849555599E+03  0.00000000000E+00 0. -1.
         13    1    4    4    0    0  0.26823028376E+02 -0.32559524379E+01 -0.52413517197E+01  0.27523587074E+02  0.00000000000E+00 0.  1.
        -13    1    3    3    0    0  0.23636834749E+02  0.60892622033E+02 -0.17597236100E+03  0.18770424399E+03  0.00000000000E+00 0. -1.
         13    1    3    3    0    0 -0.36134532581E+02 -0.11015744075E+02 -0.55432642525E+02  0.67080764156E+02  0.00000000000E+00 0.  1.
          3    1    1    2  501    0 -0.12377710336E+02  0.56259807663E+02  0.20573039041E+03  0.21364308369E+03  0.00000000000E+00 0. -1.
<scales pt_clust_5="13000.00000" pt_clust_6="13000.00000" pt_clust_7="13000.00000" pt_clust_8="13000.00000" pt_clust_9="57.60533"></scales>
<clustering>
<clus scale="   57.605">  1  9  2 -1</clus>
<clus scale="   93.398">  7  8 -1 -1</clus>
<clus scale="   93.440">  5  6 -1 -1</clus>
<clus scale="  108.843">  2  7  1 -1</clus>
<clus scale="   57.605">  1  5  2 -1</clus>
</clustering>
</event>
<event>
 9    1  0.1636528E-005  0.1396971E+03  0.7546771E-02  0.1214119E+00
         21   -1    0    0  501  502  0.00000000000E+00  0.00000000000E+00  0.17686360151E+03  0.17686360151E+03  0.00000000000E+00 0. -1.
          1   -1    0    0  502    0 -0.00000000000E+00 -0.00000000000E+00 -0.44780664432E+03  0.44780664432E+03  0.00000000000E+00 0. -1.
         23    2    1    2    0    0  0.79816703908E+02 -0.24379570285E+02 -0.15895233273E+03  0.20175623995E+03  0.92057952444E+02 0.  0.
         23    2    1    2    0    0 -0.12088556276E+03  0.44789689070E+02 -0.23995319930E+03  0.28698158603E+03  0.90340784451E+02 0.  0.
        -11    1    4    4    0    0  0.83120472712E+00  0.24906865714E+02 -0.87006735102E+02  0.90505330307E+02  0.00000000000E+00 0. -1.
         11    1    4    4    0    0 -0.12171676749E+03  0.19882823357E+02 -0.15294646420E+03  0.19647625572E+03  0.00000000000E+00 0.  1.
        -11    1    3    3    0    0  0.88874325584E+02 -0.45750659933E+02 -0.13860467460E+03  0.17088892431E+03  0.00000000000E+00 0. -1.
         11    1    3    3    0    0 -0.90576216759E+01  0.21371089649E+02 -0.20347658138E+02  0.30867315641E+02  0.00000000000E+00 0.  1.
          1    1    1    2  501    0  0.41068858851E+02 -0.20410118786E+02  0.12796248923E+03  0.13593241985E+03  0.00000000000E+00 0. -1.
<scales pt_clust_5="13000.00000" pt_clust_6="13000.00000" pt_clust_7="13000.00000" pt_clust_8="13000.00000" pt_clust_9="45.86092"></scales>
<clustering>
<clus scale="   45.861">  1  9  2 -1</clus>
<clus scale="   90.341">  5  6 -1 -1</clus>
<clus scale="   92.058">  7  8 -1 -1</clus>
<clus scale="  138.572">  1  5  2 -1</clus>
<clus scale="   45.861">  1  5  2 -1</clus>
</clustering>
</event>
<event>
 9    1  0.1636528E-005  0.1405828E+03  0.7546771E-02  0.1215561E+00
          1   -1    0    0  502    0 -0.00000000000E+00  0.00000000000E+00  0.10761339686E+03  0.10761339686E+03  0.00000000000E+00 0. -1.
         21   -1    0    0  501  502  0.00000000000E+00 -0.00000000000E+00 -0.26250296475E+03  0.26250296475E+03  0.00000000000E+00 0.  1.
         23    2    1    2    0    0  0.73145284028E+02  0.29468703462E+02 -0.28013543271E+02  0.13316359497E+03  0.10358159759E+03 0.  0.
         23    2    1    2    0    0 -0.11362484479E+03 -0.32832720667E+02 -0.65162953319E+02  0.16307168232E+03  0.91419747259E+02 0.  0.
        -11    1    3    3    0    0  0.77833862710E+02  0.29050964513E+01 -0.54733121770E+02  0.95195926323E+02  0.00000000000E+00 0. -1.
         11    1    3    3    0    0 -0.46885786812E+01  0.26563607011E+02  0.26719578499E+02  0.37967668649E+02  0.00000000000E+00 0.  1.
        -13    1    4    4    0    0 -0.82045089843E+02 -0.63864518175E+02 -0.55093410082E+02  0.11766629629E+03  0.00000000000E+00 0.  1.
         13    1    4    4    0    0 -0.31579754944E+02  0.31031797507E+02 -0.10069543237E+02  0.45405386023E+02  0.00000000000E+00 0. -1.
          1    1    1    2  501    0  0.40479560759E+02  0.33640172056E+01 -0.61713071304E+02  0.73881084324E+02  0.00000000000E+00 0. -1.
<scales pt_clust_5="13000.00000" pt_clust_6="13000.00000" pt_clust_7="13000.00000" pt_clust_8="13000.00000" pt_clust_9="40.61910"></scales>
<clustering>
<clus scale="   40.619">  2  9  1 -1</clus>
<clus scale="   91.420">  7  8 -1 -1</clus>
<clus scale="  103.582">  5  6 -1 -1</clus>
<clus scale="  131.878">  2  7  1 -1</clus>
<clus scale="   40.619">  2  5  1 -1</clus>
</clustering>
</event>
<event>
 9    1  0.1636528E-005  0.1951363E+03  0.7546771E-02  0.1154279E+00
          1   -1    0    0  502    0 -0.00000000000E+00  0.00000000000E+00  0.14697264916E+03  0.14697264916E+03  0.00000000000E+00 0. -1.
         21   -1    0    0  501  502  0.00000000000E+00 -0.00000000000E+00 -0.55545933576E+03  0.55545933576E+03  0.00000000000E+00 0.  1.
         23    2    1    2    0    0 -0.89282456658E+02  0.14118555016E+03  0.36969115571E+02  0.19608631951E+03  0.95804032031E+02 0.  0.
         23    2    1    2    0    0  0.11725615514E+03 -0.13094565726E+03 -0.42416360621E+03  0.46972953751E+03  0.99173093654E+02 0.  0.
        -11    1    4    4    0    0  0.11242726080E+03 -0.57320228618E+02 -0.23610486572E+03  0.26771440977E+03  0.00000000000E+00 0.  1.
         11    1    4    4    0    0  0.48288943384E+01 -0.73625428644E+02 -0.18805874049E+03  0.20201512774E+03  0.00000000000E+00 0. -1.
        -13    1    3    3    0    0 -0.52921403361E+02  0.55521967278E+02 -0.29013553883E+02  0.82007012462E+02  0.00000000000E+00 0.  1.
         13    1    3    3    0    0 -0.36361053297E+02  0.85663582877E+02  0.65982669454E+02  0.11407930705E+03  0.00000000000E+00 0. -1.
          1    1    1    2  501    0 -0.27973698482E+02 -0.10239892893E+02 -0.21292195959E+02  0.36616127895E+02  0.00000000000E+00 0. -1.
<scales pt_clust_5="13000.00000" pt_clust_6="13000.00000" pt_clust_7="13000.00000" pt_clust_8="13000.00000" pt_clust_9="29.78899"></scales>
<clustering>
<clus scale="   29.789">  2  9  1 -1</clus>
<clus scale="   95.804">  7  8 -1 -1</clus>
<clus scale="   99.173">  5  6 -1 -1</clus>
<clus scale="  193.446">  1  7  2 -1</clus>
<clus scale="   29.789">  2  5  1 -1</clus>
</clustering>
</event>
<event>
 9    1  0.1636528E-005  0.1018174E+03  0.7546771E-02  0.1281217E+00
          2   -1    0    0  502    0 -0.00000000000E+00  0.00000000000E+00  0.11882764572E+03  0.11882764572E+03  0.00000000000E+00 0. -1.
         21   -1    0    0  501  502  0.00000000000E+00 -0.00000000000E+00 -0.22030662218E+03  0.22030662218E+03  0.00000000000E+00 0. -1.
         23    2    1    2    0    0  0.31431610786E+02 -0.13219592200E+02  0.27166264882E+02  0.10874880203E+03  0.99627266453E+02 0.  0.
         23    2    1    2    0    0  0.59309341371E+01 -0.53729493735E+02 -0.39314716673E+02  0.11266510863E+03  0.90695894502E+02 0.  0.
        -13    1    4    4    0    0 -0.30131109379E+02 -0.60080225512E+02 -0.35044559245E+02  0.75799989332E+02  0.00000000000E+00 0. -1.
         13    1    4    4    0    0  0.36062043516E+02  0.63507317777E+01 -0.42701574286E+01  0.36865119302E+02  0.00000000000E+00 0.  1.
        -13    1    3    3    0    0  0.77240581681E+01  0.37924005943E+02 -0.11518739462E+02  0.40380349926E+02  0.00000000000E+00 0.  1.
         13    1    3    3    0    0  0.23707552618E+02 -0.51143598143E+02  0.38685004343E+02  0.68368452105E+02  0.00000000000E+00 0. -1.
          2    1    1    2  501    0 -0.37362544924E+02  0.66949085934E+02 -0.89330524663E+02  0.11772035723E+03  0.00000000000E+00 0. -1.
<scales pt_clust_5="13000.00000" pt_clust_6="13000.00000" pt_clust_7="13000.00000" pt_clust_8="13000.00000" pt_clust_9="76.66903"></scales>
<clustering>
<clus scale="   76.669">  2  9  1 -1</clus>
<clus scale="   90.696">  5  6 -1 -1</clus>
<clus scale="   93.096">  2  5  1 -1</clus>
<clus scale="   99.627">  7  8 -1 -1</clus>
<clus scale="   76.669">  2  5  1 -1</clus>
</clustering>
</event>
<event>
 9    1  0.1636528E-005  0.1333218E+03  0.7546771E-02  0.1233340E+00
         21   -1    0    0  501  502  0.00000000000E+00  0.00000000000E+00  0.11477888485E+03  0.11477888485E+03  0.00000000000E+00 0. -1.
         -2   -1    0    0    0  501 -0.00000000000E+00 -0.00000000000E+00 -0.25787161435E+03  0.25787161435E+03  0.00000000000E+00 0.  1.
         23    2    1    2    0    0 -0.36568209365E+01  0.45776031177E+02 -0.15993978710E+03  0.20583439644E+03  0.12115381088E+03 0.  0.
         23    2    1    2    0    0  0.16609651862E+01 -0.86081582971E+02  0.16797984931E+02  0.12646113586E+03  0.91090333481E+02 0.  0.
        -11    1    4    4    0    0  0.17790754970E+02  0.11060475784E+02  0.18538648876E+02  0.27973676718E+02  0.00000000000E+00 0.  1.
         11    1    4    4    0    0 -0.16129789784E+02 -0.97142058756E+02 -0.17406639455E+01  0.98487459144E+02  0.00000000000E+00 0. -1.
        -13    1    3    3    0    0 -0.27554112151E+02 -0.35326455153E+02 -0.49858427845E+02  0.67030219731E+02  0.00000000000E+00 0. -1.
         13    1    3    3    0    0  0.23897291214E+02  0.81102486331E+02 -0.11008135926E+03  0.13880417671E+03  0.00000000000E+00 0.  1.
         -2    1    1    2    0  502  0.19958557503E+01  0.40305551794E+02  0.49072673434E-01  0.40354966903E+02  0.00000000000E+00 0.  1.
<scales pt_clust_5="13000.00000" pt_clust_6="13000.00000" pt_clust_7="13000.00000" pt_clust_8="13000.00000" pt_clust_9="40.35494"></scales>
<clustering>
<clus scale="   40.355">  1  9  2 -1</clus>
<clus scale="   91.090">  5  6 -1 -1</clus>
<clus scale="  106.742">  1  5  2 -1</clus>
<clus scale="  121.154">  7  8 -1 -1</clus>
<clus scale="   40.355">  1  5  2 -1</clus>
</clustering>
</event>
<event>
 9    1  0.1636528E-005  0.1221218E+03  0.7546771E-02  0.1240031E+00
          4   -1    0    0  502    0 -0.00000000000E+00  0.00000000000E+00  0.21578398803E+03  0.21578398803E+03  0.00000000000E+00 0. -1.
         21   -1    0    0  501  502  0.00000000000E+00 -0.00000000000E+00 -0.11917520272E+03  0.11917520272E+03  0.00000000000E+00 0. -1.
         23    2    1    2    0    0 -0.82964793224E+02 -0.37965977049E+02  0.11430997705E+03  0.17070614454E+03  0.88029793844E+02 0.  0.
         23    2    1    2    0    0  0.52401263962E+02  0.55885387224E+02  0.14239395971E+02  0.11655151872E+03  0.86674258862E+02 0.  0.
        -11    1    3    3    0    0 -0.18949205736E+02 -0.12465459514E+02 -0.12855110330E+02  0.26071324104E+02  0.00000000000E+00 0.  1.
         11    1    3    3    0    0 -0.64015587488E+02 -0.25500517535E+02  0.12716508738E+03  0.14463482044E+03  0.00000000000E+00 0. -1.
        -13    1    4    4    0    0  0.45989157147E+02 -0.89032877412E+01  0.20527371960E+02  0.51143368165E+02  0.00000000000E+00 0.  1.
         13    1    4    4    0    0  0.64121068152E+01  0.64788674965E+02 -0.62879759887E+01  0.65408150559E+02  0.00000000000E+00 0. -1.
          4    1    1    2  501    0  0.30563529262E+02 -0.17919410174E+02 -0.31940587707E+02  0.47701527491E+02  0.00000000000E+00 0. -1.
<scales pt_clust_5="13000.00000" pt_clust_6="13000.00000" pt_clust_7="13000.00000" pt_clust_8="13000.00000" pt_clust_9="35.42929"></scales>
<clustering>
<clus scale="   35.429">  2  9  1 -1</clus>
<clus scale="   86.674">  7  8 -1 -1</clus>
<clus scale="   88.030">  5  6 -1 -1</clus>
<clus scale="  121.148">  2  7  1 -1</clus>
<clus scale="   35.429">  2  5  1 -1</clus>
</clustering>
</event>
<event>
 9    1  0.1636528E-005  0.9280175E+02  0.7546771E-02  0.1300740E+00
          3   -1    0    0  502    0 -0.00000000000E+00  0.00000000000E+00  0.18687076035E+03  0.18687076035E+03  0.00000000000E+00 0. -1.
         21   -1    0    0  501  502  0.00000000000E+00 -0.00000000000E+00 -0.58119487516E+02  0.58119487516E+02  0.00000000000E+00 0.  1.
         23    2    1    2    0    0  0.47934429849E+00 -0.27816271292E+02  0.67498761589E+02  0.11078233436E+03  0.83322674414E+02 0.  0.
         23    2    1    2    0    0  0.91446635731E+01  0.41728815833E+01  0.36086975124E+02  0.98361914945E+02  0.90949209592E+02 0.  0.
        -11    1    4    4    0    0 -0.31817117416E+02 -0.58336157580E+01  0.44846589349E+02  0.55295357940E+02  0.00000000000E+00 0. -1.
         11    1    4    4    0    0  0.40961780989E+02  0.10006497341E+02 -0.87596142249E+01  0.43066557005E+02  0.00000000000E+00 0.  1.
        -13    1    3    3    0    0 -0.26112245990E+02  0.10623066508E+02  0.55927597235E+02  0.62630624020E+02  0.00000000000E+00 0. -1.
         13    1    3    3    0    0  0.26591590288E+02 -0.38439337800E+02  0.11571164355E+02  0.48151710344E+02  0.00000000000E+00 0.  1.
          3    1    1    2  501    0 -0.96240078716E+01  0.23643389709E+02  0.25165536122E+02  0.35845998560E+02  0.00000000000E+00 0. -1.
<scales pt_clust_5="13000.00000" pt_clust_6="13000.00000" pt_clust_7="13000.00000" pt_clust_8="13000.00000" pt_clust_9="25.52708"></scales>
<clustering>
<clus scale="   25.527">  2  9  1 -1</clus>
<clus scale="   83.323">  7  8 -1 -1</clus>
<clus scale="   85.341">  1  7  2 -1</clus>
<clus scale="   90.949">  5  6 -1 -1</clus>
<clus scale="   25.527">  2  5  1 -1</clus>
</clustering>
</event>
<event>
 9    1  0.1636528E-005  0.2324967E+03  0.7546771E-02  0.1126389E+00
         21   -1    0    0  501  502  0.00000000000E+00  0.00000000000E+00  0.26587458103E+03  0.26587458103E+03  0.00000000000E+00 0.  1.
          1   -1    0    0  502    0 -0.00000000000E+00 -0.00000000000E+00 -0.31481227595E+03  0.31481227595E+03  0.00000000000E+00 0. -1.
         23    2    1    2    0    0 -0.59396495914E+02  0.17463658279E+03 -0.66647222654E+02  0.22206291230E+03  0.10413551246E+03 0.  0.
         23    2    1    2    0    0  0.43379557773E+02 -0.23571372088E+03 -0.57657226090E+02  0.26030249897E+03  0.83607960174E+02 0.  0.
        -13    1    3    3    0    0 -0.82187745525E+02  0.15534650419E+03 -0.36237853422E+02  0.17944509996E+03  0.00000000000E+00 0.  1.
         13    1    3    3    0    0  0.22791249611E+02  0.19290078596E+02 -0.30409369231E+02  0.42617812334E+02  0.00000000000E+00 0. -1.
        -13    1    4    4    0    0 -0.21219091109E+02 -0.49531313165E+02 -0.28896419779E+02  0.61144123899E+02  0.00000000000E+00 0.  1.
         13    1    4    4    0    0  0.64598648883E+02 -0.18618240772E+03 -0.28760806311E+02  0.19915837507E+03  0.00000000000E+00 0. -1.
          1    1    1    2  501    0  0.16016938141E+02  0.61077138094E+02  0.75366753826E+02  0.98321445715E+02  0.00000000000E+00 0. -1.
<scales pt_clust_5="13000.00000" pt_clust_6="13000.00000" pt_clust_7="13000.00000" pt_clust_8="13000.00000" pt_clust_9="63.14237"></scales>
<clustering>
<clus scale="   63.142">  1  9  2 -1</clus>
<clus scale="   83.608">  7  8 -1 -1</clus>
<clus scale="  104.136">  5  6 -1 -1</clus>
<clus scale="  224.055">  1  7  2 -1</clus>
<clus scale="   63.142">  1  5  2 -1</clus>
</clustering>
</event>
<event>
 9    1  0.1636528E-005  0.1842343E+03  0.7546771E-02  0.1178500E+00
         21   -1    0    0  501  502  0.00000000000E+00  0.00000000000E+00  0.66272497135E+02  0.66272497135E+02  0.00000000000E+00 0. -1.
          1   -1    0    0  502    0 -0.00000000000E+00 -0.00000000000E+00 -0.11688749611E+04  0.11688749611E+04  0.00000000000E+00 0. -1.
         23    2    1    2    0    0 -0.86564766651E+02  0.38893028472E+02 -0.50727075063E+03  0.52406622937E+03  0.91190305575E+02 0.  0.
         23    2    1    2    0    0  0.22320699235E+03 -0.28906523608E+02 -0.44907327099E+03  0.51067573971E+03  0.92010650800E+02 0.  0.
        -13    1    3    3    0    0 -0.94231722257E+02  0.60601575455E+01 -0.42058014814E+03  0.43104988574E+03  0.00000000000E+00 0.  1.
         13    1    3    3    0    0  0.76669556063E+01  0.32832870926E+02 -0.86690602491E+02  0.93016343628E+02  0.00000000000E+00 0. -1.
        -13    1    4    4    0    0  0.18962032251E+03 -0.58434291920E+02 -0.36837346839E+03  0.41841300816E+03  0.00000000000E+00 0. -1.
         13    1    4    4    0    0  0.33586669842E+02  0.29527768312E+02 -0.80699802601E+02  0.92262731546E+02  0.00000000000E+00 0.  1.
          1    1    1    2  501    0 -0.13664222570E+03 -0.99865048641E+01 -0.14625844230E+03  0.20040548912E+03  0.00000000000E+00 0. -1.
<scales pt_clust_5="13000.00000" pt_clust_6="13000.00000" pt_clust_7="13000.00000" pt_clust_8="13000.00000" pt_clust_9="159.61302"></scales>
<clustering>
<clus scale="   91.190">  5  6 -1 -1</clus>
<clus scale="   92.011">  7  8 -1 -1</clus>
<clus scale="  131.612">  2  5  1 -1</clus>
<clus scale="  159.613">  1  9  2 -1</clus>
<clus scale="  159.613">  1  5  2 -1</clus>
</clustering>
</event>
<event>
 9    1  0.1636528E-005  0.1120631E+03  0.7546771E-02  0.1259473E+00
         21   -1    0    0  501  502  0.00000000000E+00  0.00000000000E+00  0.12788926898E+03  0.12788926898E+03  0.00000000000E+00 0. -1.
          1   -1    0    0  502    0 -0.00000000000E+00 -0.00000000000E+00 -0.33829786868E+03  0.33829786868E+03  0.00000000000E+00 0. -1.
         23    2    1    2    0    0  0.41308673188E+02 -0.58431964092E+02 -0.19307238143E+03  0.22552270335E+03  0.91993719054E+02 0.  0.
         23    2    1    2    0    0 -0.51641344861E+02 -0.28720397504E+02 -0.73531068507E+02  0.13645234562E+03  0.98593787115E+02 0.  0.
        -11    1    3    3    0    0  0.21111373059E+02  0.12349856715E+02 -0.70304116303E+01  0.25448688001E+02  0.00000000000E+00 0.  1.
         11    1    3    3    0    0  0.20197300129E+02 -0.70781820807E+02 -0.18604196980E+03  0.20007401535E+03  0.00000000000E+00 0. -1.
        -13    1    4    4    0    0 -0.45798118869E+02  0.19981306225E+02 -0.23694666943E+01  0.50023341179E+02  0.00000000000E+00 0.  1.
         13    1    4    4    0    0 -0.58432259925E+01 -0.48701703729E+02 -0.71161601813E+02  0.86429004441E+02  0.00000000000E+00 0. -1.
          1    1    1    2  501    0  0.10332671673E+02  0.87152361596E+02  0.56194850236E+02  0.10421208869E+03  0.00000000000E+00 0. -1.
<scales pt_clust_5="13000.00000" pt_clust_6="13000.00000" pt_clust_7="13000.00000" pt_clust_8="13000.00000" pt_clust_9="87.76274"></scales>
<clustering>
<clus scale="   87.763">  1  9  2 -1</clus>
<clus scale="   91.994">  5  6 -1 -1</clus>
<clus scale="   98.594">  7  8 -1 -1</clus>
<clus scale="  106.303">  2  5  1 -1</clus>
<clus scale="   87.763">  1  5  2 -1</clus>
</clustering>
</event>
<event>
 9    1  0.1636528E-005  0.1043564E+03  0.7546771E-02  0.1273077E+00
         21   -1    0    0  501  502  0.00000000000E+00  0.00000000000E+00  0.35408705913E+03  0.35408705913E+03  0.00000000000E+00 0. -1.
         -1   -1    0    0    0  501 -0.00000000000E+00 -0.00000000000E+00 -0.51854668236E+02  0.51854668236E+02  0.00000000000E+00 0.  1.
         23    2    1    2    0    0  0.48350224997E+02  0.22081895342E+02  0.45592868508E+02  0.11592603278E+03  0.92383878779E+02 0.  0.
         23    2    1    2    0    0 -0.18656296139E+02 -0.40591138136E+02  0.20330294568E+03  0.22622610379E+03  0.88602846628E+02 0.  0.
        -11    1    3    3    0    0  0.14118812093E+02 -0.36045976164E+02  0.11762802100E+02  0.40460063838E+02  0.00000000000E+00 0.  1.
         11    1    3    3    0    0  0.34231412904E+02  0.58127871506E+02  0.33830066408E+02  0.75465968943E+02  0.00000000000E+00 0. -1.
        -13    1    4    4    0    0  0.20170880439E+02 -0.50825744095E+02  0.82953269245E+02  0.99354746032E+02  0.00000000000E+00 0.  1.
         13    1    4    4    0    0 -0.38827176578E+02  0.10234605959E+02  0.12034967644E+03  0.12687135776E+03  0.00000000000E+00 0. -1.
         -1    1    1    2    0  502 -0.29693928858E+02  0.18509242794E+02  0.53336576702E+02  0.63789590798E+02  0.00000000000E+00 0.  1.
<scales pt_clust_5="13000.00000" pt_clust_6="13000.00000" pt_clust_7="13000.00000" pt_clust_8="13000.00000" pt_clust_9="34.99031"></scales>
<clustering>
<clus scale="   34.990">  1  9  2 -1</clus>
<clus scale="   88.603">  7  8 -1 -1</clus>
<clus scale="   92.384">  5  6 -1 -1</clus>
<clus scale="  101.024">  1  7  2 -1</clus>
<clus scale="   34.990">  1  5  2 -1</clus>
</clustering>
</event>
<event>
 9    1  0.1636528E-005  0.1805380E+03  0.7546771E-02  0.1167402E+00
         21   -1    0    0  501  502  0.00000000000E+00  0.00000000000E+00  0.37882632706E+02  0.37882632706E+02  0.00000000000E+00 0.  1.
          2   -1    0    0  502    0 -0.00000000000E+00 -0.00000000000E+00 -0.19168685171E+04  0.19168685171E+04  0.00000000000E+00 0. -1.
         23    2    1    2    0    0  0.26469201802E+02  0.15594619163E+03 -0.95775736117E+03  0.97500094744E+03  0.91147415322E+02 0.  0.
         23    2    1    2    0    0  0.84714868517E+01 -0.15521279383E+03 -0.92706213773E+03  0.94431828656E+03  0.90166743661E+02 0.  0.
        -11    1    3    3    0    0  0.46738657384E+02  0.15464124516E+03 -0.87492375435E+03  0.88971343292E+03  0.00000000000E+00 0.  1.
         11    1    3    3    0    0 -0.20269455582E+02  0.13049464713E+01 -0.82833606819E+02  0.85287514523E+02  0.00000000000E+00 0. -1.
        -11    1    4    4    0    0  0.34876937275E+02 -0.17898598471E+02 -0.17117371350E+03  0.17560524131E+03  0.00000000000E+00 0.  1.
         11    1    4    4    0    0 -0.26405450424E+02 -0.13731419536E+03 -0.75588842423E+03  0.76871304525E+03  0.00000000000E+00 0. -1.
          2    1    1    2  501    0 -0.34940688654E+02 -0.73339780390E+00  0.58336145416E+01  0.35431915762E+02  0.00000000000E+00 0. -1.
<scales pt_clust_5="13000.00000" pt_clust_6="13000.00000" pt_clust_7="13000.00000" pt_clust_8="13000.00000" pt_clust_9="34.94838"></scales>
<clustering>
<clus scale="   34.948">  1  9  2 -1</clus>
<clus scale="   90.167">  7  8 -1 -1</clus>
<clus scale="   91.147">  5  6 -1 -1</clus>
<clus scale="  180.045">  1  7  2 -1</clus>
<clus scale="   34.948">  1  5  2 -1</clus>
</clustering>
</event>
<event>
 9    1  0.1636528E-005  0.9209669E+02  0.7546771E-02  0.1297870E+00
         21   -1    0    0  501  502  0.00000000000E+00  0.00000000000E+00  0.15648410422E+03  0.15648410422E+03  0.00000000000E+00 0.  1.
          2   -1    0    0  502    0 -0.00000000000E+00 -0.00000000000E+00 -0.17829128497E+03  0.17829128497E+03  0.00000000000E+00 0. -1.
         23    2    1    2    0    0 -0.15801927858E+02  0.57955124208E+01 -0.87854020185E+02  0.12770245863E+03  0.91138906007E+02 0.  0.
         23    2    1    2    0    0  0.80695686281E+01  0.17921864142E+02 -0.37573007383E+02  0.10049255721E+03  0.91108243422E+02 0.  0.
        -13    1    4    4    0    0  0.34330242835E+01  0.52794018212E+02 -0.38287267167E+02  0.65306269545E+02  0.00000000000E+00 0. -1.
         13    1    4    4    0    0  0.46365443446E+01 -0.34872154070E+02  0.71425978373E+00  0.35186287670E+02  0.00000000000E+00 0.  1.
        -13    1    3    3    0    0 -0.40405513345E+02 -0.28733539598E+02 -0.39487519328E+02  0.63383641338E+02  0.00000000000E+00 0.  1.
         13    1    3    3    0    0  0.24603585487E+02  0.34529052019E+02 -0.48366500857E+02  0.64318817288E+02  0.00000000000E+00 0. -1.
          2    1    1    2  501    0  0.77323592301E+01 -0.23717376563E+02  0.10361984681E+03  0.10658037335E+03  0.00000000000E+00 0. -1.
<scales pt_clust_5="13000.00000" pt_clust_6="13000.00000" pt_clust_7="13000.00000" pt_clust_8="13000.00000" pt_clust_9="24.94601"></scales>
<clustering>
<clus scale="   24.946">  1  9  2 -1</clus>
<clus scale="   91.108">  5  6 -1 -1</clus>
<clus scale="   91.139">  7  8 -1 -1</clus>
<clus scale="   92.066">  1  5  2 -1</clus>
<clus scale="   24.946">  1  5  2 -1</clus>
</clustering>
</event>
<event>
 9    1  0.1636528E-005  0.1515748E+03  0.7546771E-02  0.1199983E+00
          1   -1    0    0  502    0 -0.00000000000E+00  0.00000000000E+00  0.39905781411E+03  0.39905781411E+03  0.00000000000E+00 0. -1.
         21   -1    0    0  501  502  0.00000000000E+00 -0.00000000000E+00 -0.21298151459E+03  0.21298151459E+03  0.00000000000E+00 0.  1.
         23    2    1    2    0    0  0.86140854798E+02  0.50329027389E+02  0.18205259065E+03  0.22664735320E+03  0.90953939383E+02 0.  0.
         23    2    1    2    0    0 -0.13679614715E+03 -0.17300199722E+03  0.57080140146E+02  0.24245982001E+03  0.82980389261E+02 0.  0.
        -11    1    4    4    0    0 -0.43746758113E+02 -0.23462738121E+02 -0.15441767651E+02  0.51987759268E+02  0.00000000000E+00 0.  1.
         11    1    4    4    0    0 -0.93049389041E+02 -0.14953925910E+03  0.72521907796E+02  0.19047206074E+03  0.00000000000E+00 0. -1.
        -13    1    3    3    0    0  0.89572205194E+02  0.13793083609E+02  0.15985841205E+03  0.18376109763E+03  0.00000000000E+00 0. -1.
         13    1    3    3    0    0 -0.34313503961E+01  0.36535943780E+02  0.22194178594E+02  0.42886255571E+02  0.00000000000E+00 0.  1.
          1    1    1    2  501    0  0.50655292355E+02  0.12267296983E+03 -0.53056431276E+02  0.14293215548E+03  0.00000000000E+00 0. -1.
<scales pt_clust_5="13000.00000" pt_clust_6="13000.00000" pt_clust_7="13000.00000" pt_clust_8="13000.00000" pt_clust_9="132.72007"></scales>
<clustering>
<clus scale="   82.980">  5  6 -1 -1</clus>
<clus scale="   90.954">  7  8 -1 -1</clus>
<clus scale="  132.720">  2  9  1 -1</clus>
<clus scale="  146.929">  2  5  1 -1</clus>
<clus scale="  132.720">  2  5  1 -1</clus>
</clustering>
</event>
<event>
 9    1  0.1636528E-005  0.2324554E+03  0.7546771E-02  0.1157837E+00
         21   -1    0    0  501  502  0.00000000000E+00  0.00000000000E+00  0.16367392913E+03  0.16367392913E+03  0.00000000000E+00 0. -1.
          1   -1    0    0  502    0 -0.00000000000E+00 -0.00000000000E+00 -0.48820633487E+03  0.48820633487E+03  0.00000000000E+00 0. -1.
         23    2    1    2    0    0 -0.44794990139E+02  0.28700721129E+02 -0.11127068347E+03  0.15317991551E+03  0.90843816417E+02 0.  0.
         23    2    1    2    0    0  0.12942870602E+03  0.17126108964E+03 -0.95437694615E+02  0.25165765354E+03  0.90227879647E+02 0.  0.
        -11    1    4    4    0    0  0.12044803877E+03  0.13220763022E+03 -0.10888825674E+03  0.20938777421E+03  0.00000000000E+00 0. -1.
         11    1    4    4    0    0  0.89806672418E+01  0.39053459419E+02  0.13450562128E+02  0.42269879327E+02  0.00000000000E+00 0.  1.
        -11    1    3    3    0    0  0.24935010524E+02  0.18530270564E+02 -0.54318417677E+02  0.62574884546E+02  0.00000000000E+00 0.  1.
         11    1    3    3    0    0 -0.69730000663E+02  0.10170450565E+02 -0.56952265793E+02  0.90605030965E+02  0.00000000000E+00 0. -1.
          1    1    1    2  501    0 -0.84633715876E+02 -0.19996181077E+03 -0.11782402765E+03  0.24704269494E+03  0.00000000000E+00 0. -1.
<scales pt_clust_5="13000.00000" pt_clust_6="13000.00000" pt_clust_7="13000.00000" pt_clust_8="13000.00000" pt_clust_9="214.22997"></scales>
<clustering>
<clus scale="   90.228">  5  6 -1 -1</clus>
<clus scale="   90.844">  7  8 -1 -1</clus>
<clus scale="  105.275">  2  7  1 -1</clus>
<clus scale="  214.230">  1  9  2 -1</clus>
<clus scale="  214.230">  1  5  2 -1</clus>
</clustering>
</event>
<event>
 9    1  0.1636528E-005  0.1088430E+03  0.7546771E-02  0.1263963E+00
         -2   -1    0    0    0  501 -0.00000000000E+00  0.00000000000E+00  0.17500846530E+03  0.17500846530E+03  0.00000000000E+00 0.  1.
         21   -1    0    0  501  502  0.00000000000E+00 -0.00000000000E+00 -0.12235072789E+03  0.12235072789E+03  0.00000000000E+00 0.  1.
         23    2    1    2    0    0  0.32509488760E+02 -0.41537048349E+02  0.50362519344E+02  0.11648068862E+03  0.90824964746E+02 0.  0.
         23    2    1    2    0    0 -0.62801349825E+02  0.32829259659E+02  0.50293084326E+02  0.12345710093E+03  0.87695448047E+02 0.  0.
        -11    1    3    3    0    0 -0.17514151416E+02 -0.27870712888E+02  0.55335567754E+02  0.64385923891E+02  0.00000000000E+00 0. -1.
         11    1    3    3    0    0  0.50023640176E+02 -0.13666335461E+02 -0.49730484093E+01  0.52094764726E+02  0.00000000000E+00 0.  1.
        -11    1    4    4    0    0 -0.81013609501E+02  0.42655687383E+02  0.36376465394E+02  0.98518829799E+02  0.00000000000E+00 0. -1.
         11    1    4    4    0    0  0.18212259675E+02 -0.98264277232E+01  0.13916618932E+02  0.24938271126E+02  0.00000000000E+00 0.  1.
         -2    1    1    2    0  502  0.30291861065E+02  0.87077886896E+01 -0.47997866260E+02  0.57421403642E+02  0.00000000000E+00 0.  1.
<scales pt_clust_5="13000.00000" pt_clust_6="13000.00000" pt_clust_7="13000.00000" pt_clust_8="13000.00000" pt_clust_9="31.51860"></scales>
<clustering>
<clus scale="   31.519">  2  9  1 -1</clus>
<clus scale="   87.695">  7  8 -1 -1</clus>
<clus scale="   90.825">  5  6 -1 -1</clus>
<clus scale="  106.246">  2  7  1 -1</clus>
<clus scale="   31.519">  2  5  1 -1</clus>
</clustering>
</event>
<event>
 9    1  0.1636528E-005  0.1369691E+03  0.7546771E-02  0.1232063E+00
         21   -1    0    0  501  502  0.00000000000E+00  0.00000000000E+00  0.46347921339E+03  0.46347921339E+03  0.00000000000E+00 0.  1.
         -3   -1    0    0    0  501 -0.00000000000E+00 -0.00000000000E+00 -0.73462663841E+02  0.73462663841E+02  0.00000000000E+00 0.  1.
         23    2    1    2    0    0  0.16141832834E+02 -0.23495054372E+02  0.34681232030E+02  0.10684285039E+03  0.96953754321E+02 0.  0.
         23    2    1    2    0    0 -0.17973566720E+02 -0.87848921403E+02  0.15334536568E+03  0.19944609095E+03  0.90683294649E+02 0.  0.
        -11    1    4    4    0    0 -0.31941528087E+02 -0.38421209806E+02  0.15455174846E+02  0.52300219971E+02  0.00000000000E+00 0.  1.
         11    1    4    4    0    0  0.13967961367E+02 -0.49427711596E+02  0.13789019084E+03  0.14714587098E+03  0.00000000000E+00 0. -1.
        -11    1    3    3    0    0 -0.38211737026E+02  0.43210456647E+01  0.22589728003E+02  0.44599373241E+02  0.00000000000E+00 0. -1.
         11    1    3    3    0    0  0.54353569861E+02 -0.27816100037E+02  0.12091504027E+02  0.62243477148E+02  0.00000000000E+00 0.  1.
         -3    1    1    2    0  502  0.18317338860E+01  0.11134397577E+03  0.20198995183E+03  0.23065293588E+03  0.00000000000E+00 0.  1.
<scales pt_clust_5="13000.00000" pt_clust_6="13000.00000" pt_clust_7="13000.00000" pt_clust_8="13000.00000" pt_clust_9="102.65021"></scales>
<clustering>
<clus scale="   90.683">  5  6 -1 -1</clus>
<clus scale="   96.954">  7  8 -1 -1</clus>
<clus scale="  101.057">  2  7  1 -1</clus>
<clus scale="  102.650">  1  9  2 -1</clus>
<clus scale="  102.650">  1  5  2 -1</clus>
</clustering>
</event>
<event>
 9    1  0.1636528E-005  0.1179649E+03  0.7546771E-02  0.1247148E+00
          1   -1    0    0  502    0 -0.00000000000E+00  0.00000000000E+00  0.62139523693E+03  0.62139523693E+03  0.00000000000E+00 0. -1.
         21   -1    0    0  501  502  0.00000000000E+00 -0.00000000000E+00 -0.10581744147E+03  0.10581744147E+03  0.00000000000E+00 0. -1.
         23    2    1    2    0    0  0.95268527698E+02  0.34541611594E+02  0.35473333460E+03  0.37962375905E+03  0.89494382278E+02 0.  0.
         23    2    1    2    0    0 -0.10410894042E+02 -0.73505204151E+02  0.21205382239E+03  0.24109301219E+03  0.87450644298E+02 0.  0.
        -11    1    3    3    0    0  0.10160522978E+03  0.26145875591E+01  0.24743029751E+03  0.26749245019E+03  0.00000000000E+00 0. -1.
         11    1    3    3    0    0 -0.63367020794E+01  0.31927024035E+02  0.10730303709E+03  0.11213130886E+03  0.00000000000E+00 0.  1.
        -13    1    4    4    0    0 -0.27855981711E+02 -0.25658274222E+02  0.20869168101E+02  0.43241472342E+02  0.00000000000E+00 0.  1.
         13    1    4    4    0    0  0.17445087669E+02 -0.47846929929E+02  0.19118465429E+03  0.19785153985E+03  0.00000000000E+00 0. -1.
          1    1    1    2  501    0 -0.84857633656E+02  0.38963592557E+02 -0.51209361521E+02  0.10649590716E+03  0.00000000000E+00 0. -1.
<scales pt_clust_5="13000.00000" pt_clust_6="13000.00000" pt_clust_7="13000.00000" pt_clust_8="13000.00000" pt_clust_9="93.37548"></scales>
<clustering>
<clus scale="   87.451">  7  8 -1 -1</clus>
<clus scale="   89.494">  5  6 -1 -1</clus>
<clus scale="   93.375">  2  9  1 -1</clus>
<clus scale="  116.422">  2  7  1 -1</clus>
<clus scale="   93.375">  2  5  1 -1</clus>
</clustering>
</event>
<event>
 9    1  0.1636528E-005  0.1134210E+03  0.7546771E-02  0.1254895E+00
         -1   -1    0    0    0  501 -0.00000000000E+00  0.00000000000E+00  0.31130324292E+03  0.31130324292E+03  0.00000000000E+00 0.  1.
         21   -1    0    0  501  502  0.00000000000E+00 -0.00000000000E+00 -0.87988214249E+02  0.87988214249E+02  0.00000000000E+00 0. -1.
         23    2    1    2    0    0  0.31635389097E+02 -0.58846142931E+02  0.17613769826E+03  0.20903138066E+03  0.90586770401E+02 0.  0.
         23    2    1    2    0    0 -0.21472112041E+01  0.69929453220E+02  0.83168161579E+02  0.14242983157E+03  0.92057454225E+02 0.  0.
        -11    1    3    3    0    0 -0.25888946102E+02 -0.28615168900E+02  0.29283896098E+02  0.48441841337E+02  0.00000000000E+00 0.  1.
         11    1    3    3    0    0  0.57524335199E+02 -0.30230974031E+02  0.14685380216E+03  0.16058953932E+03  0.00000000000E+00 0. -1.
        -13    1    4    4    0    0 -0.42249839964E+02  0.38584583931E+02  0.68916963524E+02  0.89573249106E+02  0.00000000000E+00 0.  1.
         13    1    4    4    0    0  0.40102628760E+02  0.31344869289E+02  0.14251198055E+02  0.52856582468E+02  0.00000000000E+00 0. -1.
         -1    1    1    2    0  502 -0.29488177893E+02 -0.11083310288E+02 -0.35990831166E+02  0.47830244934E+02  0.00000000000E+00 0.  1.
<scales pt_clust_5="13000.00000" pt_clust_6="13000.00000" pt_clust_7="13000.00000" pt_clust_8="13000.00000" pt_clust_9="31.50226"></scales>
<clustering>
<clus scale="   31.502">  2  9  1 -1</clus>
<clus scale="   90.587">  5  6 -1 -1</clus>
<clus scale="   92.057">  7  8 -1 -1</clus>
<clus scale="  112.231">  1  5  2 -1</clus>
<clus scale="   31.502">  2  5  1 -1</clus>
</clustering>
</event>
<event>
 9    1  0.1636528E-005  0.9315429E+02  0.7546771E-02  0.1295802E+00
         21   -1    0    0  501  502  0.00000000000E+00  0.00000000000E+00  0.12144822935E+03  0.12144822935E+03  0.00000000000E+00 0.  1.
         -2   -1    0    0    0  501 -0.00000000000E+00 -0.00000000000E+00 -0.98376304202E+02  0.98376304202E+02  0.00000000000E+00 0.  1.
         23    2    1    2    0    0  0.12302258258E+02 -0.19950099403E+02 -0.15503306718E+02  0.96249398823E+02  0.92055647464E+02 0.  0.
         23    2    1    2    0    0  0.41840028661E+00  0.23017259722E+01  0.16993562363E+02  0.92931233261E+02  0.91334330634E+02 0.  0.
        -13    1    4    4    0    0  0.46082242347E+01  0.42365925857E+02  0.28221289618E+02  0.51113096091E+02  0.00000000000E+00 0. -1.
         13    1    4    4    0    0 -0.41898239481E+01 -0.40064199884E+02 -0.11227727255E+02  0.41818137170E+02  0.00000000000E+00 0.  1.
        -13    1    3    3    0    0  0.49912436530E+02 -0.26794264417E+02 -0.69297540011E+01  0.57071931950E+02  0.00000000000E+00 0.  1.
         13    1    3    3    0    0 -0.37610178271E+02  0.68441650145E+01 -0.85735527173E+01  0.39177466873E+02  0.00000000000E+00 0. -1.
         -2    1    1    2    0  502 -0.12720658545E+02  0.17648373431E+02  0.21581669502E+02  0.30643901466E+02  0.00000000000E+00 0.  1.
<scales pt_clust_5="13000.00000" pt_clust_6="13000.00000" pt_clust_7="13000.00000" pt_clust_8="13000.00000" pt_clust_9="21.75500"></scales>
<clustering>
<clus scale="   21.755">  1  9  2 -1</clus>
<clus scale="   91.334">  5  6 -1 -1</clus>
<clus scale="   92.056">  7  8 -1 -1</clus>
<clus scale="   92.442">  1  5  2 -1</clus>
<clus scale="   21.755">  1  5  2 -1</clus>
</clustering>
</event>
<event>
 9    1  0.1636528E-005  0.1215457E+03  0.7546771E-02  0.1241022E+00
          4   -1    0    0  502    0 -0.00000000000E+00  0.00000000000E+00  0.14094929664E+03  0.14094929664E+03  0.00000000000E+00 0. -1.
         21   -1    0    0  501  502  0.00000000000E+00 -0.00000000000E+00 -0.19833272894E+03  0.19833272894E+03  0.00000000000E+00 0. -1.
         23    2    1    2    0    0  0.41637297300E+02 -0.52900006946E+02  0.41321301640E+02  0.12092973733E+03  0.91566785137E+02 0.  0.
         23    2    1    2    0    0 -0.73331160921E+02  0.85073725449E+02 -0.51215378433E+02  0.15281689293E+03  0.90083238474E+02 0.  0.
        -13    1    4    4    0    0 -0.74353395039E+01  0.73287890760E+02 -0.10349956236E+02  0.74387638755E+02  0.00000000000E+00 0.  1.
         13    1    4    4    0    0 -0.65895821417E+02  0.11785834689E+02 -0.40865422197E+02  0.78429254178E+02  0.00000000000E+00 0. -1.
        -13    1    3    3    0    0 -0.27908645745E+02 -0.25761465247E+02  0.21691527710E+02  0.43738632505E+02  0.00000000000E+00 0.  1.
         13    1    3    3    0    0  0.69545943045E+02 -0.27138541698E+02  0.19629773930E+02  0.77191104825E+02  0.00000000000E+00 0. -1.
          4    1    1    2  501    0  0.31693863621E+02 -0.32173718503E+02 -0.47489355508E+02  0.65535395323E+02  0.00000000000E+00 0. -1.
<scales pt_clust_5="13000.00000" pt_clust_6="13000.00000" pt_clust_7="13000.00000" pt_clust_8="13000.00000" pt_clust_9="45.16248"></scales>
<clustering>
<clus scale="   45.162">  2  9  1 -1</clus>
<clus scale="   90.083">  5  6 -1 -1</clus>
<clus scale="   91.567">  7  8 -1 -1</clus>
<clus scale="  120.432">  2  5  1 -1</clus>
<clus scale="   45.162">  2  5  1 -1</clus>
</clustering>
</event>
<event>
 9    1  0.1636528E-005  0.1497712E+03  0.7546771E-02  0.1219780E+00
          1   -1    0    0  502    0 -0.00000000000E+00  0.00000000000E+00  0.24773441622E+03  0.24773441622E+03  0.00000000000E+00 0. -1.
         21   -1    0    0  501  502  0.00000000000E+00 -0.00000000000E+00 -0.14743875493E+03  0.14743875493E+03  0.00000000000E+00 0. -1.
         23    2    1    2    0    0 -0.13890606776E+02 -0.33427023367E+02  0.20368483203E+02  0.10184088325E+03  0.92985888960E+02 0.  0.
         23    2    1    2    0    0  0.59639631224E+02 -0.84202201205E+02  0.93084994042E+02  0.16643573226E+03  0.91592251625E+02 0.  0.
        -11    1    4    4    0    0  0.40055934354E+02 -0.88448960799E+02  0.10508759779E+03  0.14307725100E+03  0.00000000000E+00 0. -1.
         11    1    4    4    0    0  0.19583696869E+02  0.42467595946E+01 -0.12002603751E+02  0.23358481263E+02  0.00000000000E+00 0.  1.
        -13    1    3    3    0    0 -0.53067941026E+01  0.27259043582E+02  0.28759440583E+02  0.39979031295E+02  0.00000000000E+00 0.  1.
         13    1    3    3    0    0 -0.85838126730E+01 -0.60686066949E+02 -0.83909573796E+01  0.61861851957E+02  0.00000000000E+00 0. -1.
          1    1    1    2  501    0 -0.45749024448E+02  0.11762922457E+03 -0.13157815964E+02  0.12689655564E+03  0.00000000000E+00 0. -1.
<scales pt_clust_5="13000.00000" pt_clust_6="13000.00000" pt_clust_7="13000.00000" pt_clust_8="13000.00000" pt_clust_9="118.50005"></scales>
<clustering>
<clus scale="   91.592">  5  6 -1 -1</clus>
<clus scale="   92.986">  7  8 -1 -1</clus>
<clus scale="   99.783">  1  7  2 -1</clus>
<clus scale="  118.500">  2  9  1 -1</clus>
<clus scale="  118.500">  2  5  1 -1</clus>
</clustering>
</event>
<event>
 9    1  0.1636528E-005  0.1476379E+03  0.7546771E-02  0.1203557E+00
          2   -1    0    0  502    0 -0.00000000000E+00  0.00000000000E+00  0.10464599890E+04  0.10464599890E+04  0.00000000000E+00 0. -1.
         21   -1    0    0  501  502  0.00000000000E+00 -0.00000000000E+00 -0.27985357630E+02  0.27985357630E+02  0.00000000000E+00 0. -1.
         23    2    1    2    0    0  0.11070814748E+03  0.27556452092E+02  0.59104649810E+03  0.60889914678E+03  0.91687273177E+02 0.  0.
         23    2    1    2    0    0 -0.10511685327E+03 -0.55156973273E+02  0.39448268044E+03  0.42220506231E+03  0.92459098697E+02 0.  0.
        -11    1    4    4    0    0 -0.64458728639E+02 -0.77959653952E+02  0.30452762131E+03  0.32088893325E+03  0.00000000000E+00 0. -1.
         11    1    4    4    0    0 -0.40658124633E+02  0.22802680678E+02  0.89955059127E+02  0.10131612906E+03  0.00000000000E+00 0.  1.
        -13    1    3    3    0    0  0.62684975716E+01 -0.27519452775E+02  0.10692713559E+03  0.11058945098E+03  0.00000000000E+00 0.  1.
         13    1    3    3    0    0  0.10443964990E+03  0.55075904867E+02  0.48411936251E+03  0.49830969580E+03  0.00000000000E+00 0. -1.
          2    1    1    2  501    0 -0.55912942029E+01  0.27600521181E+02  0.32945452801E+02  0.43341137509E+02  0.00000000000E+00 0. -1.
<scales pt_clust_5="13000.00000" pt_clust_6="13000.00000" pt_clust_7="13000.00000" pt_clust_8="13000.00000" pt_clust_9="28.16117"></scales>
<clustering>
<clus scale="   28.161">  2  9  1 -1</clus>
<clus scale="   91.687">  7  8 -1 -1</clus>
<clus scale="   92.459">  5  6 -1 -1</clus>
<clus scale="  147.156">  1  7  2 -1</clus>
<clus scale="   28.161">  2  5  1 -1</clus>
</clustering>
</event>
<event>
 9    1  0.1636528E-005  0.9267831E+02  0.7546771E-02  0.1299266E+00
         -1   -1    0    0    0  501 -0.00000000000E+00  0.00000000000E+00  0.12557289449E+03  0.12557289449E+03  0.00000000000E+00 0.  1.
         21   -1    0    0  501  502  0.00000000000E+00 -0.00000000000E+00 -0.89474344911E+02  0.89474344911E+02  0.00000000000E+00 0.  1.
         23    2    1    2    0    0  0.29024803914E+02 -0.13619391784E+02  0.37943128282E+02  0.98329339685E+02  0.84859006500E+02 0.  0.
         23    2    1    2    0    0 -0.64633006125E+01  0.12573474011E+02  0.98244281590E+01  0.91295840471E+02  0.89657931022E+02 0.  0.
        -11    1    4    4    0    0  0.41087122369E+02 -0.12047476443E+01  0.18072049244E+01  0.41144489681E+02  0.00000000000E+00 0.  1.
         11    1    4    4    0    0 -0.47550422981E+02  0.13778221655E+02  0.80172232346E+01  0.50151350790E+02  0.00000000000E+00 0. -1.
        -13    1    3    3    0    0  0.20030806509E+02 -0.47155634312E+02  0.67916062329E+01  0.51681843737E+02  0.00000000000E+00 0. -1.
         13    1    3    3    0    0  0.89939974051E+01  0.33536242528E+02  0.31151522049E+02  0.46647495948E+02  0.00000000000E+00 0.  1.
         -1    1    1    2    0  502 -0.22561503302E+02  0.10459177729E+01 -0.11669006861E+02  0.25422059247E+02  0.00000000000E+00 0.  1.
<scales pt_clust_5="13000.00000" pt_clust_6="13000.00000" pt_clust_7="13000.00000" pt_clust_8="13000.00000" pt_clust_9="22.58573"></scales>
<clustering>
<clus scale="   22.586">  2  9  1 -1</clus>
<clus scale="   84.859">  7  8 -1 -1</clus>
<clus scale="   88.044">  1  7  2 -1</clus>
<clus scale="   89.658">  5  6 -1 -1</clus>
<clus scale="   22.586">  2  5  1 -1</clus>
</clustering>
</event>
<event>
 9    1  0.1636528E-005  0.9604797E+02  0.7546771E-02  0.1289950E+00
         -2   -1    0    0    0  501 -0.00000000000E+00  0.00000000000E+00  0.13091687605E+03  0.13091687605E+03  0.00000000000E+00 0.  1.
         21   -1    0    0  501  502  0.00000000000E+00 -0.00000000000E+00 -0.12516772626E+03  0.12516772626E+03  0.00000000000E+00 0.  1.
         23    2    1    2    0    0  0.24941274617E+02  0.95044255358E+01  0.38988285914E+02  0.10162101021E+03  0.89968561143E+02 0.  0.
         23    2    1    2    0    0 -0.29818075940E+02  0.29560320034E+02  0.26287977871E+01  0.10120623373E+03  0.92048144978E+02 0.  0.
        -13    1    3    3    0    0 -0.20533044062E+02  0.35820787576E+02  0.16234746329E+02  0.44365546423E+02  0.00000000000E+00 0.  1.
         13    1    3    3    0    0  0.45474318679E+02 -0.26316362040E+02  0.22753539585E+02  0.57255463792E+02  0.00000000000E+00 0. -1.
        -13    1    4    4    0    0 -0.13354465001E+02 -0.28679460892E+02  0.20982909795E+02  0.37962293344E+02  0.00000000000E+00 0. -1.
         13    1    4    4    0    0 -0.16463610939E+02  0.58239780926E+02 -0.18354112008E+02  0.63243940382E+02  0.00000000000E+00 0.  1.
         -2    1    1    2    0  502  0.48768013229E+01 -0.39064745570E+02 -0.35867933910E+02  0.53257358370E+02  0.00000000000E+00 0.  1.
<scales pt_clust_5="13000.00000" pt_clust_6="13000.00000" pt_clust_7="13000.00000" pt_clust_8="13000.00000" pt_clust_9="39.36798"></scales>
<clustering>
<clus scale="   39.368">  2  9  1 -1</clus>
<clus scale="   89.969">  5  6 -1 -1</clus>
<clus scale="   92.048">  7  8 -1 -1</clus>
<clus scale="   94.057">  1  5  2 -1</clus>
<clus scale="   39.368">  2  5  1 -1</clus>
</clustering>
</event>
<event>
 9    1  0.1636528E-005  0.1297359E+03  0.7546771E-02  0.1228203E+00
         21   -1    0    0  501  502  0.00000000000E+00  0.00000000000E+00  0.11768019288E+03  0.11768019288E+03  0.00000000000E+00 0. -1.
          2   -1    0    0  502    0 -0.00000000000E+00 -0.00000000000E+00 -0.51721710010E+03  0.51721710010E+03  0.00000000000E+00 0. -1.
         23    2    1    2    0    0 -0.10477141593E+03 -0.25950487210E+02 -0.38622590971E+03  0.41158108906E+03  0.92617828513E+02 0.  0.
         23    2    1    2    0    0  0.10631630462E+00  0.64072307244E+02 -0.60430864364E+01  0.11168789759E+03  0.91281957233E+02 0.  0.
        -11    1    3    3    0    0 -0.74900573850E+02 -0.83778428340E+01 -0.36082658796E+03  0.36861376913E+03  0.00000000000E+00 0. -1.
         11    1    3    3    0    0 -0.29870842078E+02 -0.17572644376E+02 -0.25399321758E+02  0.42967319938E+02  0.00000000000E+00 0.  1.
        -11    1    4    4    0    0  0.42038063881E+02  0.11235824065E+02  0.30689386831E+01  0.43621794346E+02  0.00000000000E+00 0.  1.
         11    1    4    4    0    0 -0.41931747577E+02  0.52836483179E+02 -0.91120251196E+01  0.68066103247E+02  0.00000000000E+00 0. -1.
          2    1    1    2  501    0  0.10466509962E+03 -0.38121820034E+02 -0.72679110737E+01  0.11162830633E+03  0.00000000000E+00 0. -1.
<scales pt_clust_5="13000.00000" pt_clust_6="13000.00000" pt_clust_7="13000.00000" pt_clust_8="13000.00000" pt_clust_9="111.39145"></scales>
<clustering>
<clus scale="   91.282">  7  8 -1 -1</clus>
<clus scale="   92.618">  5  6 -1 -1</clus>
<clus scale="  111.391">  1  9  2 -1</clus>
<clus scale="  128.786">  1  7  2 -1</clus>
<clus scale="  111.391">  1  5  2 -1</clus>
</clustering>
</event>
<event>
 9    1  0.1636528E-005  0.9555795E+02  0.7546771E-02  0.1290681E+00
         21   -1    0    0  501  502  0.00000000000E+00  0.00000000000E+00  0.48566953755E+02  0.48566953755E+02  0.00000000000E+00 0.  1.
         -1   -1    0    0    0  501 -0.00000000000E+00 -0.00000000000E+00 -0.71567135269E+03  0.71567135269E+03  0.00000000000E+00 0.  1.
         23    2    1    2    0    0 -0.11998606727E+02  0.10313132725E+02 -0.37780619102E+03  0.38924093793E+03  0.92307434788E+02 0.  0.
         23    2    1    2    0    0 -0.15028688099E+02 -0.45602614801E+02 -0.30952999746E+03  0.32615939641E+03  0.90915744494E+02 0.  0.
        -11    1    4    4    0    0 -0.52938046179E+02 -0.33637682484E+02 -0.20218221600E+03  0.21168745565E+03  0.00000000000E+00 0.  1.
         11    1    4    4    0    0  0.37909358080E+02 -0.11964932318E+02 -0.10734778147E+03  0.11447194076E+03  0.00000000000E+00 0. -1.
        -11    1    3    3    0    0  0.37934550802E+02  0.18241679879E+02 -0.14372936707E+03  0.14976621778E+03  0.00000000000E+00 0. -1.
         11    1    3    3    0    0 -0.49933157530E+02 -0.79285471535E+01 -0.23407682395E+03  0.23947472015E+03  0.00000000000E+00 0.  1.
         -1    1    1    2    0  502  0.27027294826E+02  0.35289482076E+02  0.20231789546E+02  0.48837972102E+02  0.00000000000E+00 0.  1.
<scales pt_clust_5="13000.00000" pt_clust_6="13000.00000" pt_clust_7="13000.00000" pt_clust_8="13000.00000" pt_clust_9="44.45022"></scales>
<clustering>
<clus scale="   44.450">  1  9  2 -1</clus>
<clus scale="   90.916">  5  6 -1 -1</clus>
<clus scale="   92.307">  7  8 -1 -1</clus>
<clus scale="   94.214">  1  5  2 -1</clus>
<clus scale="   44.450">  1  5  2 -1</clus>
</clustering>
</event>
<event>
 9    1  0.1636528E-005  0.1076190E+03  0.7546771E-02  0.1271110E+00
         21   -1    0    0  501  502  0.00000000000E+00  0.00000000000E+00  0.43451805062E+02  0.43451805062E+02  0.00000000000E+00 0. -1.
          1   -1    0    0  502    0 -0.00000000000E+00 -0.00000000000E+00 -0.34208263849E+03  0.34208263849E+03  0.00000000000E+00 0. -1.
         23    2    1    2    0    0  0.37286750642E+02 -0.17762350745E+02 -0.19559015836E+03  0.22475011556E+03  0.10271952842E+03 0.  0.
         23    2    1    2    0    0 -0.13418665533E+02  0.88056707335E+01 -0.56093773893E+02  0.10736224330E+03  0.90125131868E+02 0.  0.
        -13    1    3    3    0    0 -0.10700458195E+02  0.36312506662E+02 -0.78239780314E+02  0.86916978602E+02  0.00000000000E+00 0.  1.
         13    1    3    3    0    0  0.47987208837E+02 -0.54074857408E+02 -0.11735037805E+03  0.13783313696E+03  0.00000000000E+00 0. -1.
        -13    1    4    4    0    0 -0.58212705002E+01  0.40267548036E+02  0.21356462166E+01  0.40742159980E+02  0.00000000000E+00 0. -1.
         13    1    4    4    0    0 -0.75973950328E+01 -0.31461877303E+02 -0.58229420109E+02  0.66620083316E+02  0.00000000000E+00 0.  1.
          1    1    1    2  501    0 -0.23868085109E+02  0.89566800118E+01 -0.46946901171E+02  0.53422084695E+02  0.00000000000E+00 0. -1.
<scales pt_clust_5="13000.00000" pt_clust_6="13000.00000" pt_clust_7="13000.00000" pt_clust_8="13000.00000" pt_clust_9="25.49330"></scales>
<clustering>
<clus scale="   25.493">  1  9  2 -1</clus>
<clus scale="   90.125">  7  8 -1 -1</clus>
<clus scale="   95.672">  1  7  2 -1</clus>
<clus scale="  102.720">  5  6 -1 -1</clus>
<clus scale="   25.493">  1  5  2 -1</clus>
</clustering>
</event>
<event>
 9    1  0.1636528E-005  0.2144790E+03  0.7546771E-02  0.1138361E+00
         21   -1    0    0  501  502  0.00000000000E+00  0.00000000000E+00  0.84367900696E+03  0.84367900696E+03  0.00000000000E+00 0.  1.
         -3   -1    0    0    0  501 -0.00000000000E+00 -0.00000000000E+00 -0.20873894349E+03  0.20873894349E+03  0.00000000000E+00 0.  1.
         23    2    1    2    0    0 -0.14512663398E+02  0.17235522083E+03 -0.49085055088E+02  0.20270898234E+03  0.93619705955E+02 0.  0.
         23    2    1    2    0    0 -0.82939311390E+02 -0.29091826232E+03  0.29715453884E+03  0.43350838228E+03  0.90090692274E+02 0.  0.
        -13    1    4    4    0    0  0.17364279745E+02 -0.46985767067E+02  0.31569058459E+02  0.59209678009E+02  0.00000000000E+00 0. -1.
         13    1    4    4    0    0 -0.10030359113E+03 -0.24393249525E+03  0.26558548038E+03  0.37429870427E+03  0.00000000000E+00 0.  1.
        -13    1    3    3    0    0  0.30826598473E+02  0.31270896554E+02 -0.30260209165E+02  0.53327557635E+02  0.00000000000E+00 0.  1.
         13    1    3    3    0    0 -0.45339261871E+02  0.14108432428E+03 -0.18824845923E+02  0.14938142471E+03  0.00000000000E+00 0. -1.
         -3    1    1    2    0  502  0.97451974788E+02  0.11856304149E+03  0.38687057972E+03  0.41620058583E+03  0.00000000000E+00 0.  1.
<scales pt_clust_5="13000.00000" pt_clust_6="13000.00000" pt_clust_7="13000.00000" pt_clust_8="13000.00000" pt_clust_9="153.47339"></scales>
<clustering>
<clus scale="   90.091">  5  6 -1 -1</clus>
<clus scale="   93.620">  7  8 -1 -1</clus>
<clus scale="  153.473">  1  9  2 -1</clus>
<clus scale="  212.962">  1  5  2 -1</clus>
<clus scale="  153.473">  1  5  2 -1</clus>
</clustering>
</event>
<event>
 9    1  0.1636528E-005  0.2049658E+03  0.7546771E-02  0.1163253E+00
          2   -1    0    0  502    0 -0.00000000000E+00  0.00000000000E+00  0.74805224560E+03  0.74805224560E+03  0.00000000000E+00 0. -1.
         21   -1    0    0  501  502  0.00000000000E+00 -0.00000000000E+00 -0.16237631541E+03  0.16237631541E+03  0.00000000000E+00 0.  1.
         23    2    1    2    0    0  0.93269028309E+02  0.34305951411E+02  0.43126350923E+03  0.45201741862E+03  0.91953914537E+02 0.  0.
         23    2    1    2    0    0 -0.46610263856E+02  0.15829318785E+03  0.17766075247E+03  0.25888181205E+03  0.90703911862E+02 0.  0.
        -11    1    4    4    0    0  0.23133179609E+02  0.79867892285E+02  0.84442448115E+02  0.11850970956E+03  0.00000000000E+00 0.  1.
         11    1    4    4    0    0 -0.69743443465E+02  0.78425295565E+02  0.93218304350E+02  0.14037210249E+03  0.00000000000E+00 0. -1.
        -13    1    3    3    0    0  0.95655039937E+02 -0.36410710503E+01  0.33821181916E+03  0.35149733809E+03  0.00000000000E+00 0. -1.
         13    1    3    3    0    0 -0.23860116281E+01  0.37947022461E+02  0.93051690070E+02  0.10052008053E+03  0.00000000000E+00 0.  1.
          2    1    1    2  501    0 -0.46658764453E+02 -0.19259913926E+03 -0.23248331515E+02  0.19952933033E+03  0.00000000000E+00 0. -1.
<scales pt_clust_5="13000.00000" pt_clust_6="13000.00000" pt_clust_7="13000.00000" pt_clust_8="13000.00000" pt_clust_9="183.80369"></scales>
<clustering>
<clus scale="   90.704">  5  6 -1 -1</clus>
<clus scale="   91.954">  7  8 -1 -1</clus>
<clus scale="  135.394">  1  7  2 -1</clus>
<clus scale="  183.804">  2  9  1 -1</clus>
<clus scale="  183.804">  2  5  1 -1</clus>
</clustering>
</event>
<event>
 9    1  0.1636528E-005  0.1180940E+03  0.7546771E-02  0.1249571E+00
         21   -1    0    0  501  502  0.00000000000E+00  0.00000000000E+00  0.68894747578E+02  0.68894747578E+02  0.00000000000E+00 0. -1.
         -3   -1    0    0    0  501 -0.00000000000E+00 -0.00000000000E+00 -0.37258115337E+03  0.37258115337E+03  0.00000000000E+00 0.  1.
         23    2    1    2    0    0  0.15610728095E+02 -0.42773811488E+02 -0.24153009654E+03  0.26739829458E+03  0.10531745643E+03 0.  0.
         23    2    1    2    0    0 -0.11009015685E+02 -0.48531005425E+01 -0.51974575293E+02  0.12515760828E+03  0.11321801721E+03 0.  0.
        -11    1    4    4    0    0  0.49110357975E+02 -0.17446250429E+02 -0.19238784536E+02  0.55554745476E+02  0.00000000000E+00 0.  1.
         11    1    4    4    0    0 -0.60119373660E+02  0.12593149887E+02 -0.32735790756E+02  0.69602862799E+02  0.00000000000E+00 0. -1.
        -11    1    3    3    0    0  0.67626505691E+01 -0.77199999742E+02 -0.14293302380E+03  0.16258973737E+03  0.00000000000E+00 0.  1.
         11    1    3    3    0    0  0.88480775262E+01  0.34426188254E+02 -0.98597072733E+02  0.10480855721E+03  0.00000000000E+00 0. -1.
         -3    1    1    2    0  502 -0.46017124101E+01  0.47626912030E+02 -0.10181733958E+02  0.48919998089E+02  0.00000000000E+00 0.  1.
<scales pt_clust_5="13000.00000" pt_clust_6="13000.00000" pt_clust_7="13000.00000" pt_clust_8="13000.00000" pt_clust_9="47.84870"></scales>
<clustering>
<clus scale="   47.849">  1  9  2 -1</clus>
<clus scale="  105.317">  7  8 -1 -1</clus>
<clus scale="  110.542">  2  7  1 -1</clus>
<clus scale="  113.218">  5  6 -1 -1</clus>
<clus scale="   47.849">  1  5  2 -1</clus>
</clustering>
</event>
<event>
 9    1  0.1636528E-005  0.1831532E+03  0.7546771E-02  0.1166119E+00
         21   -1    0    0  501  502  0.00000000000E+00  0.00000000000E+00  0.39800161895E+02  0.39800161895E+02  0.00000000000E+00 0. -1.
          2   -1    0    0  502    0 -0.00000000000E+00 -0.00000000000E+00 -0.12038090818E+04  0.12038090818E+04  0.00000000000E+00 0. -1.
         23    2    1    2    0    0 -0.16019605418E+03  0.75368860671E+02 -0.72251307640E+03  0.74963230462E+03  0.92629399369E+02 0.  0.
         23    2    1    2    0    0  0.99397456690E+02 -0.86881047142E+02 -0.26531804867E+03  0.30724821796E+03  0.81114916905E+02 0.  0.
        -13    1    3    3    0    0 -0.28692449387E+02 -0.26789237150E+01 -0.35093559731E+02  0.45409153468E+02  0.00000000000E+00 0.  1.
         13    1    3    3    0    0 -0.13150360480E+03  0.78047784386E+02 -0.68741951667E+03  0.70422315115E+03  0.00000000000E+00 0. -1.
        -13    1    4    4    0    0  0.63542987307E+02 -0.90170135551E+02 -0.23709390688E+03  0.26149930260E+03  0.00000000000E+00 0. -1.
         13    1    4    4    0    0  0.35854469383E+02  0.32890884086E+01 -0.28224141788E+02  0.45748915364E+02  0.00000000000E+00 0.  1.
          2    1    1    2  501    0  0.60798597492E+02  0.11512186472E+02 -0.17617779488E+03  0.18672872115E+03  0.00000000000E+00 0. -1.
<scales pt_clust_5="13000.00000" pt_clust_6="13000.00000" pt_clust_7="13000.00000" pt_clust_8="13000.00000" pt_clust_9="61.87894"></scales>
<clustering>
<clus scale="   61.879">  1  9  2 -1</clus>
<clus scale="   81.115">  7  8 -1 -1</clus>
<clus scale="   92.629">  5  6 -1 -1</clus>
<clus scale="  177.608">  1  7  2 -1</clus>
<clus scale="   61.879">  1  5  2 -1</clus>
</clustering>
</event>
<event>
 9    1  0.1636528E-005  0.2740296E+03  0.7546771E-02  0.1099051E+00
          3   -1    0    0  502    0 -0.00000000000E+00  0.00000000000E+00  0.20477776473E+03  0.20477776473E+03  0.00000000000E+00 0. -1.
         21   -1    0    0  501  502  0.00000000000E+00 -0.00000000000E+00 -0.83029161229E+03  0.83029161229E+03  0.00000000000E+00 0. -1.
         23    2    1    2    0    0 -0.16216345955E+03 -0.27122236454E+03 -0.28711827505E+02  0.33050737893E+03  0.92478104697E+02 0.  0.
         23    2    1    2    0    0  0.89593010020E+02  0.15673874647E+03 -0.19689441767E+03  0.28230726526E+03  0.91301906980E+02 0.  0.
        -11    1    3    3    0    0 -0.11113719845E+03 -0.24562708138E+03 -0.39295553600E+02  0.27244867502E+03  0.00000000000E+00 0. -1.
         11    1    3    3    0    0 -0.51026261096E+02 -0.25595283158E+02  0.10583726095E+02  0.58058703908E+02  0.00000000000E+00 0.  1.
        -11    1    4    4    0    0  0.39454472763E+02  0.11366277923E+02 -0.14053420961E+02  0.43397538358E+02  0.00000000000E+00 0.  1.
         11    1    4    4    0    0  0.50138537257E+02  0.14537246854E+03 -0.18284099671E+03  0.23890972690E+03  0.00000000000E+00 0. -1.
          3    1    1    2  501    0  0.72570449525E+02  0.11448361807E+03 -0.39990760239E+03  0.42225473283E+03  0.00000000000E+00 0. -1.
<scales pt_clust_5="13000.00000" pt_clust_6="13000.00000" pt_clust_7="13000.00000" pt_clust_8="13000.00000" pt_clust_9="135.54693"></scales>
<clustering>
<clus scale="   91.302">  7  8 -1 -1</clus>
<clus scale="   92.478">  5  6 -1 -1</clus>
<clus scale="  135.547">  2  9  1 -1</clus>
<clus scale="  273.635">  2  7  1 -1</clus>
<clus scale="  135.547">  2  5  1 -1</clus>
</clustering>
</event>
<event>
 9    1  0.1636528E-005  0.1178951E+03  0.7546771E-02  0.1247265E+00
         21   -1    0    0  501  502  0.00000000000E+00  0.00000000000E+00  0.14852004291E+03  0.14852004291E+03  0.00000000000E+00 0. -1.
          2   -1    0    0  502    0 -0.00000000000E+00 -0.00000000000E+00 -0.14475356590E+03  0.14475356590E+03  0.00000000000E+00 0. -1.
         23    2    1    2    0    0 -0.88811122334E+02 -0.24657248362E+02 -0.35849326679E+02  0.13367464182E+03  0.89935200540E+02 0.  0.
         23    2    1    2    0    0  0.49912481156E+02 -0.60844086199E+01  0.31126548346E+02  0.10929766267E+03  0.91917578563E+02 0.  0.
        -11    1    4    4    0    0 -0.20757233998E+02  0.17295446760E+02  0.20906719964E+02  0.34162643070E+02  0.00000000000E+00 0. -1.
         11    1    4    4    0    0  0.70669715154E+02 -0.23379855380E+02  0.10219828382E+02  0.75135019596E+02  0.00000000000E+00 0.  1.
        -13    1    3    3    0    0 -0.56695629281E+02  0.12220869308E+02 -0.56151049752E+02  0.80725983516E+02  0.00000000000E+00 0.  1.
         13    1    3    3    0    0 -0.32115493052E+02 -0.36878117669E+02  0.20301723073E+02  0.52948658308E+02  0.00000000000E+00 0. -1.
          2    1    1    2  501    0  0.38898641178E+02  0.30741656982E+02  0.84892553447E+01  0.50301304315E+02  0.00000000000E+00 0. -1.
<scales pt_clust_5="13000.00000" pt_clust_6="13000.00000" pt_clust_7="13000.00000" pt_clust_8="13000.00000" pt_clust_9="49.57977"></scales>
<clustering>
<clus scale="   49.580">  1  9  2 -1</clus>
<clus scale="   89.935">  7  8 -1 -1</clus>
<clus scale="   91.918">  5  6 -1 -1</clus>
<clus scale="  116.356">  2  7  1 -1</clus>
<clus scale="   49.580">  1  5  2 -1</clus>
</clustering>
</event>
<event>
 9    1  0.1636528E-005  0.9750763E+02  0.7546771E-02  0.1287927E+00
         21   -1    0    0  501  502  0.00000000000E+00  0.00000000000E+00  0.30798619232E+03  0.30798619232E+03  0.00000000000E+00 0.  1.
         -2   -1    0    0    0  501 -0.00000000000E+00 -0.00000000000E+00 -0.71780901106E+02  0.71780901106E+02  0.00000000000E+00 0.  1.
         23    2    1    2    0    0  0.13121110254E+02  0.22226633701E+02  0.19108299374E+00  0.94792616636E+02  0.91210837492E+02 0.  0.
         23    2    1    2    0    0 -0.27947805963E+02  0.21748550224E+02  0.10617280842E+03  0.14708888360E+03  0.95437912466E+02 0.  0.
        -13    1    4    4    0    0 -0.53794232257E+02  0.42407050216E+02  0.75929908164E+02  0.10226205692E+03  0.00000000000E+00 0.  1.
         13    1    4    4    0    0  0.25846426294E+02 -0.20658499992E+02  0.30242900252E+02  0.44826826675E+02  0.00000000000E+00 0. -1.
        -13    1    3    3    0    0 -0.14299452772E+02  0.51388337533E+02 -0.79918682279E+01  0.53936124646E+02  0.00000000000E+00 0.  1.
         13    1    3    3    0    0  0.27420563026E+02 -0.29161703832E+02  0.81829512216E+01  0.40856491991E+02  0.00000000000E+00 0. -1.
         -2    1    1    2    0  502  0.14826695709E+02 -0.43975183925E+02  0.12984139981E+03  0.13788559319E+03  0.00000000000E+00 0.  1.
<scales pt_clust_5="13000.00000" pt_clust_6="13000.00000" pt_clust_7="13000.00000" pt_clust_8="13000.00000" pt_clust_9="46.40741"></scales>
<clustering>
<clus scale="   46.407">  1  9  2 -1</clus>
<clus scale="   91.211">  7  8 -1 -1</clus>
<clus scale="   93.374">  2  7  1 -1</clus>
<clus scale="   95.438">  5  6 -1 -1</clus>
<clus scale="   46.407">  1  5  2 -1</clus>
</clustering>
</event>
<event>
 9    1  0.1636528E-005  0.1387819E+03  0.7546771E-02  0.1215435E+00
         21   -1    0    0  501  502  0.00000000000E+00  0.00000000000E+00  0.41934557843E+02  0.41934557843E+02  0.00000000000E+00 0.  1.
          1   -1    0    0  502    0 -0.00000000000E+00 -0.00000000000E+00 -0.69264298271E+03  0.69264298271E+03  0.00000000000E+00 0. -1.
         23    2    1    2    0    0 -0.80703873082E+02 -0.72318453518E+02 -0.47565526197E+03  0.49622363344E+03  0.90812401621E+02 0.  0.
         23    2    1    2    0    0  0.58091685766E+02  0.72354031962E+02 -0.17070348523E+03  0.21532714059E+03  0.92824284053E+02 0.  0.
        -11    1    4    4    0    0  0.42975726878E+02  0.13962698695E+02 -0.14105863040E+03  0.14811957084E+03  0.00000000000E+00 0.  1.
         11    1    4    4    0    0  0.15115958888E+02  0.58391333267E+02 -0.29644854824E+02  0.67207569748E+02  0.00000000000E+00 0. -1.
        -13    1    3    3    0    0 -0.78804613686E+02 -0.10563542429E+02 -0.25873135195E+03  0.27067262154E+03  0.00000000000E+00 0.  1.
         13    1    3    3    0    0 -0.18992593960E+01 -0.61754911089E+02 -0.21692391002E+03  0.22555101190E+03  0.00000000000E+00 0. -1.
          1    1    1    2  501    0  0.22612187316E+02 -0.35578444355E-01 -0.43496776721E+01  0.23026766531E+02  0.00000000000E+00 0. -1.
<scales pt_clust_5="13000.00000" pt_clust_6="13000.00000" pt_clust_7="13000.00000" pt_clust_8="13000.00000" pt_clust_9="22.61222"></scales>
<clustering>
<clus scale="   22.612">  1  9  2 -1</clus>
<clus scale="   90.812">  7  8 -1 -1</clus>
<clus scale="   92.824">  5  6 -1 -1</clus>
<clus scale="  137.444">  2  7  1 -1</clus>
<clus scale="   22.612">  1  5  2 -1</clus>
</clustering>
</event>
<event>
 9    1  0.1636528E-005  0.9959326E+02  0.7546771E-02  0.1281362E+00
          4   -1    0    0  502    0 -0.00000000000E+00  0.00000000000E+00  0.11373718793E+03  0.11373718793E+03  0.00000000000E+00 0. -1.
         21   -1    0    0  501  502  0.00000000000E+00 -0.00000000000E+00 -0.26271884197E+03  0.26271884197E+03  0.00000000000E+00 0. -1.
         23    2    1    2    0    0 -0.21175447967E+02  0.15699030130E+02  0.46805362591E+02  0.10702394214E+03  0.92566317205E+02 0.  0.
         23    2    1    2    0    0  0.67947602093E+02 -0.47648342386E+02 -0.10532082337E+03  0.16269631550E+03  0.92143225902E+02 0.  0.
        -11    1    4    4    0    0 -0.28737231626E+00 -0.49110439290E+02 -0.19011948147E+02  0.52662814228E+02  0.00000000000E+00 0.  1.
         11    1    4    4    0    0  0.68234974409E+02  0.14620969040E+01 -0.86308875219E+02  0.11003350127E+03  0.00000000000E+00 0. -1.
        -13    1    3    3    0    0 -0.25661371522E+01  0.41746222680E+02  0.59379563939E+02  0.72631018040E+02  0.00000000000E+00 0.  1.
         13    1    3    3    0    0 -0.18609310814E+02 -0.26047192551E+02 -0.12574201348E+02  0.34392924102E+02  0.00000000000E+00 0. -1.
          4    1    1    2  501    0 -0.46772154126E+02  0.31949312256E+02 -0.90466193269E+02  0.10673577226E+03  0.00000000000E+00 0. -1.
<scales pt_clust_5="13000.00000" pt_clust_6="13000.00000" pt_clust_7="13000.00000" pt_clust_8="13000.00000" pt_clust_9="56.64268"></scales>
<clustering>
<clus scale="   56.643">  2  9  1 -1</clus>
<clus scale="   92.143">  5  6 -1 -1</clus>
<clus scale="   92.566">  7  8 -1 -1</clus>
<clus scale="   99.200">  2  5  1 -1</clus>
<clus scale="   56.643">  2  5  1 -1</clus>
</clustering>
</event>
<event>
 9    1  0.1636528E-005  0.1446256E+03  0.7546771E-02  0.1224444E+00
         21   -1    0    0  501  502  0.00000000000E+00  0.00000000000E+00  0.85592459368E+02  0.85592459368E+02  0.00000000000E+00 0. -1.
          2   -1    0    0  502    0 -0.00000000000E+00 -0.00000000000E+00 -0.59164408649E+03  0.59164408649E+03  0.00000000000E+00 0. -1.
         23    2    1    2    0    0  0.98035741523E+01 -0.45391588494E+02 -0.11171810939E+03  0.15028045019E+03  0.89144665420E+02 0.  0.
         23    2    1    2    0    0  0.30840304746E+02  0.14433975133E+03 -0.38157605044E+03  0.41922765563E+03  0.91468337505E+02 0.  0.
        -11    1    3    3    0    0  0.35036083565E+02 -0.13862481952E+02 -0.73727840258E+01  0.38393404404E+02  0.00000000000E+00 0. -1.
         11    1    3    3    0    0 -0.25232509413E+02 -0.31529106542E+02 -0.10434532536E+03  0.11188704579E+03  0.00000000000E+00 0.  1.
        -11    1    4    4    0    0  0.65159395900E+01  0.21708882489E+02 -0.60814311675E+01  0.23467357173E+02  0.00000000000E+00 0.  1.
         11    1    4    4    0    0  0.24324365156E+02  0.12263086884E+03 -0.37549461927E+03  0.39576029846E+03  0.00000000000E+00 0. -1.
          2    1    1    2  501    0 -0.40643878898E+02 -0.98948162834E+02 -0.12757467293E+02  0.10772844003E+03  0.00000000000E+00 0. -1.
<scales pt_clust_5="13000.00000" pt_clust_6="13000.00000" pt_clust_7="13000.00000" pt_clust_8="13000.00000" pt_clust_9="112.02722"></scales>
<clustering>
<clus scale="   89.145">  5  6 -1 -1</clus>
<clus scale="   91.468">  7  8 -1 -1</clus>
<clus scale="  100.515">  2  5  1 -1</clus>
<clus scale="  112.027">  1  9  2 -1</clus>
<clus scale="  112.027">  1  5  2 -1</clus>
</clustering>
</event>
<event>
 9    1  0.1636528E-005  0.1454589E+03  0.7546771E-02  0.1210521E+00
         21   -1    0    0  501  502  0.00000000000E+00  0.00000000000E+00  0.16118819365E+03  0.16118819365E+03  0.00000000000E+00 0. -1.
          1   -1    0    0  502    0 -0.00000000000E+00 -0.00000000000E+00 -0.17343514176E+03  0.17343514176E+03  0.00000000000E+00 0. -1.
         23    2    1    2    0    0 -0.30278915891E+02  0.81404119672E+02 -0.47693286252E+02  0.13367327332E+03  0.89724305508E+02 0.  0.
         23    2    1    2    0    0  0.39724238241E+02 -0.11514269791E+03  0.30238626874E+02  0.16552936147E+03  0.10793395651E+03 0.  0.
        -11    1    4    4    0    0  0.13714600862E+02 -0.99028173609E+02 -0.24399227738E+02  0.10290768562E+03  0.00000000000E+00 0. -1.
         11    1    4    4    0    0  0.26009637379E+02 -0.16114524297E+02  0.54637854612E+02  0.62621675852E+02  0.00000000000E+00 0.  1.
        -13    1    3    3    0    0 -0.14808650688E+02  0.95661121873E+02 -0.19915585008E+02  0.98828016774E+02  0.00000000000E+00 0. -1.
         13    1    3    3    0    0 -0.15470265202E+02 -0.14257002202E+02 -0.27777701244E+02  0.34845256544E+02  0.00000000000E+00 0.  1.
          1    1    1    2  501    0 -0.94453223508E+01  0.33738578234E+02  0.52077112693E+01  0.35420700618E+02  0.00000000000E+00 0. -1.
<scales pt_clust_5="13000.00000" pt_clust_6="13000.00000" pt_clust_7="13000.00000" pt_clust_8="13000.00000" pt_clust_9="35.03578"></scales>
<clustering>
<clus scale="   35.036">  1  9  2 -1</clus>
<clus scale="   89.724">  7  8 -1 -1</clus>
<clus scale="  107.934">  5  6 -1 -1</clus>
<clus scale="  132.510">  2  7  1 -1</clus>
<clus scale="   35.036">  1  5  2 -1</clus>
</clustering>
</event>
<event>
 9    1  0.1636528E-005  0.2468218E+03  0.7546771E-02  0.1115454E+00
         21   -1    0    0  501  502  0.00000000000E+00  0.00000000000E+00  0.41005469404E+03  0.41005469404E+03  0.00000000000E+00 0. -1.
          1   -1    0    0  502    0 -0.00000000000E+00 -0.00000000000E+00 -0.31484947632E+03  0.31484947632E+03  0.00000000000E+00 0. -1.
         23    2    1    2    0    0  0.46690919882E+02 -0.17139591995E+03  0.13228472831E+02  0.20061779511E+03  0.92281654981E+02 0.  0.
         23    2    1    2    0    0 -0.15878997617E+03  0.24391124976E+03 -0.79364577370E+02  0.31486886466E+03  0.90203722194E+02 0.  0.
        -11    1    3    3    0    0 -0.22054489752E+02 -0.42707451427E+02  0.25120718062E+02  0.54234466915E+02  0.00000000000E+00 0.  1.
         11    1    3    3    0    0  0.68745409634E+02 -0.12868846852E+03 -0.11892245231E+02  0.14638332820E+03  0.00000000000E+00 0. -1.
        -13    1    4    4    0    0 -0.16923357980E+03  0.21989563723E+03 -0.79634561741E+02  0.28867933633E+03  0.00000000000E+00 0. -1.
         13    1    4    4    0    0  0.10443603631E+02  0.24015612535E+02  0.26998437145E+00  0.26189528323E+02  0.00000000000E+00 0.  1.
          1    1    1    2  501    0  0.11209905628E+03 -0.72515329810E+02  0.16134132225E+03  0.20941751060E+03  0.00000000000E+00 0. -1.
<scales pt_clust_5="13000.00000" pt_clust_6="13000.00000" pt_clust_7="13000.00000" pt_clust_8="13000.00000" pt_clust_9="133.50907"></scales>
<clustering>
<clus scale="   90.204">  7  8 -1 -1</clus>
<clus scale="   92.282">  5  6 -1 -1</clus>
<clus scale="  133.509">  1  9  2 -1</clus>
<clus scale="  246.052">  1  7  2 -1</clus>
<clus scale="  133.509">  1  5  2 -1</clus>
</clustering>
</event>
<event>
 9    1  0.1636528E-005  0.1498805E+03  0.7546771E-02  0.1200714E+00
          2   -1    0    0  502    0 -0.00000000000E+00  0.00000000000E+00  0.12471174688E+03  0.12471174688E+03  0.00000000000E+00 0. -1.
         21   -1    0    0  501  502  0.00000000000E+00 -0.00000000000E+00 -0.22971611714E+03  0.22971611714E+03  0.00000000000E+00 0. -1.
         23    2    1    2    0    0 -0.33720451517E+01  0.11055612927E+03 -0.13490564150E+02  0.14588597458E+03  0.94163123624E+02 0.  0.
         23    2    1    2    0    0 -0.80483329901E+01 -0.12745639652E+03 -0.99041675876E+02  0.18679992786E+03  0.93675241176E+02 0.  0.
        -11    1    4    4    0    0  0.35680063190E+01 -0.46551614816E+02 -0.93944835540E+02  0.10490669967E+03  0.00000000000E+00 0. -1.
         11    1    4    4    0    0 -0.11616339309E+02 -0.80904781703E+02 -0.50968403357E+01  0.81893228186E+02  0.00000000000E+00 0.  1.
        -13    1    3    3    0    0  0.38669810670E+02  0.36797451404E+02 -0.27162092117E+02  0.59893120934E+02  0.00000000000E+00 0.  1.
         13    1    3    3    0    0 -0.42041855822E+02  0.73758677861E+02  0.13671527966E+02  0.85992853643E+02  0.00000000000E+00 0. -1.
          2    1    1    2  501    0  0.11420378142E+02  0.16900267253E+02  0.75278697664E+01  0.21741961580E+02  0.00000000000E+00 0. -1.
<scales pt_clust_5="13000.00000" pt_clust_6="13000.00000" pt_clust_7="13000.00000" pt_clust_8="13000.00000" pt_clust_9="20.39717"></scales>
<clustering>
<clus scale="   20.397">  2  9  1 -1</clus>
<clus scale="   93.675">  5  6 -1 -1</clus>
<clus scale="   94.163">  7  8 -1 -1</clus>
<clus scale="  149.574">  2  5  1 -1</clus>
<clus scale="   20.397">  2  5  1 -1</clus>
</clustering>
</event>
<event>
 9    1  0.1636528E-005  0.1024394E+03  0.7546771E-02  0.1277731E+00
          1   -1    0    0  502    0 -0.00000000000E+00  0.00000000000E+00  0.35799778896E+03  0.35799778896E+03  0.00000000000E+00 0. -1.
         21   -1    0    0  501  502  0.00000000000E+00 -0.00000000000E+00 -0.86061757193E+02  0.86061757193E+02  0.00000000000E+00 0.  1.
         23    2    1    2    0    0  0.14202149085E+02  0.33258019872E+02  0.23010230677E+03  0.24871978899E+03  0.87216196510E+02 0.  0.
         23    2    1    2    0    0 -0.20307486332E+02 -0.66117543649E+02  0.83058622935E+02  0.14226890211E+03  0.92508281159E+02 0.  0.
        -11    1    4    4    0    0 -0.54973256763E+02 -0.44808998525E+02  0.69706882737E+02  0.99443224047E+02  0.00000000000E+00 0.  1.
         11    1    4    4    0    0  0.34665770431E+02 -0.21308545124E+02  0.13351740199E+02  0.42825678059E+02  0.00000000000E+00 0. -1.
        -13    1    3    3    0    0 -0.34356079088E+02 -0.84894631536E+00  0.70166121375E+02  0.78130310821E+02  0.00000000000E+00 0.  1.
         13    1    3    3    0    0  0.48558228173E+02  0.34106966188E+02  0.15993618539E+03  0.17058947817E+03  0.00000000000E+00 0. -1.
          1    1    1    2  501    0  0.61053372472E+01  0.32859523776E+02 -0.41224897938E+02  0.53070855050E+02  0.00000000000E+00 0. -1.
<scales pt_clust_5="13000.00000" pt_clust_6="13000.00000" pt_clust_7="13000.00000" pt_clust_8="13000.00000" pt_clust_9="33.42190"></scales>
<clustering>
<clus scale="   33.422">  2  9  1 -1</clus>
<clus scale="   87.216">  7  8 -1 -1</clus>
<clus scale="   92.508">  5  6 -1 -1</clus>
<clus scale="   97.687">  1  7  2 -1</clus>
<clus scale="   33.422">  2  5  1 -1</clus>
</clustering>
</event>
<event>
 9    1  0.1636528E-005  0.2234791E+03  0.7546771E-02  0.1131481E+00
         21   -1    0    0  501  502  0.00000000000E+00  0.00000000000E+00  0.56051946855E+02  0.56051946855E+02  0.00000000000E+00 0. -1.
          2   -1    0    0  502    0 -0.00000000000E+00 -0.00000000000E+00 -0.15427480245E+04  0.15427480245E+04  0.00000000000E+00 0. -1.
         23    2    1    2    0    0 -0.99073224781E+02  0.13420092198E+03 -0.57154052421E+03  0.60260880754E+03  0.93023721571E+02 0.  0.
         23    2    1    2    0    0  0.17330962071E+03 -0.18623614188E+03 -0.82596453509E+03  0.86901512697E+03  0.90828148220E+02 0.  0.
        -11    1    3    3    0    0 -0.58443979618E+02  0.13270389413E+03 -0.37831198932E+03  0.40514933486E+03  0.00000000000E+00 0.  1.
         11    1    3    3    0    0 -0.40629245162E+02  0.14970278492E+01 -0.19322853489E+03  0.19745947268E+03  0.00000000000E+00 0. -1.
        -13    1    4    4    0    0  0.99167806963E+02 -0.90777073043E+02 -0.57434575385E+03  0.58987098242E+03  0.00000000000E+00 0.  1.
         13    1    4    4    0    0  0.74141813747E+02 -0.95459068839E+02 -0.25161878124E+03  0.27914414456E+03  0.00000000000E+00 0. -1.
          2    1    1    2  501    0 -0.74236395929E+02  0.52035219907E+02 -0.89191018300E+02  0.12717603680E+03  0.00000000000E+00 0. -1.
<scales pt_clust_5="13000.00000" pt_clust_6="13000.00000" pt_clust_7="13000.00000" pt_clust_8="13000.00000" pt_clust_9="90.65708"></scales>
<clustering>
<clus scale="   90.657">  1  9  2 -1</clus>
<clus scale="   90.828">  7  8 -1 -1</clus>
<clus scale="   93.024">  5  6 -1 -1</clus>
<clus scale="  222.574">  1  7  2 -1</clus>
<clus scale="   90.657">  1  5  2 -1</clus>
</clustering>
</event>
<event>
 9    1  0.1636528E-005  0.9907214E+02  0.7546771E-02  0.1283047E+00
         -2   -1    0    0    0  501 -0.00000000000E+00  0.00000000000E+00  0.45126714962E+03  0.45126714962E+03  0.00000000000E+00 0.  1.
         21   -1    0    0  501  502  0.00000000000E+00 -0.00000000000E+00 -0.63906587900E+02  0.63906587900E+02  0.00000000000E+00 0. -1.
         23    2    1    2    0    0  0.35148268055E+02 -0.51345533368E+01  0.35561876976E+03  0.36911279673E+03  0.92291835581E+02 0.  0.
         23    2    1    2    0    0 -0.39850950272E+02 -0.17609793212E+02  0.53728784230E+02  0.11407894039E+03  0.90713942323E+02 0.  0.
        -11    1    4    4    0    0  0.55261956212E+01  0.27197729647E+02 -0.40231633194E+01  0.28043558602E+02  0.00000000000E+00 0.  1.
         11    1    4    4    0    0 -0.45377145893E+02 -0.44807522859E+02  0.57751947549E+02  0.86035381790E+02  0.00000000000E+00 0. -1.
        -11    1    3    3    0    0  0.18962746041E+02 -0.47605568158E+02  0.22661879493E+03  0.23234016888E+03  0.00000000000E+00 0. -1.
         11    1    3    3    0    0  0.16185522014E+02  0.42471014821E+02  0.12899997483E+03  0.13677262785E+03  0.00000000000E+00 0.  1.
         -2    1    1    2    0  502  0.47026822172E+01  0.22744346549E+02 -0.21986992276E+02  0.31982000396E+02  0.00000000000E+00 0.  1.
<scales pt_clust_5="13000.00000" pt_clust_6="13000.00000" pt_clust_7="13000.00000" pt_clust_8="13000.00000" pt_clust_9="23.22543"></scales>
<clustering>
<clus scale="   23.225">  2  9  1 -1</clus>
<clus scale="   90.714">  5  6 -1 -1</clus>
<clus scale="   92.292">  7  8 -1 -1</clus>
<clus scale="   97.604">  2  5  1 -1</clus>
<clus scale="   23.225">  2  5  1 -1</clus>
</clustering>
</event>
<event>
 9    1  0.1636528E-005  0.1666359E+03  0.7546771E-02  0.1185110E+00
         21   -1    0    0  501  502  0.00000000000E+00  0.00000000000E+00  0.58925136509E+03  0.58925136509E+03  0.00000000000E+00 0. -1.
          1   -1    0    0  502    0 -0.00000000000E+00 -0.00000000000E+00 -0.41798399816E+03  0.41798399816E+03  0.00000000000E+00 0. -1.
         23    2    1    2    0    0 -0.14141373462E+03  0.16955274608E+02 -0.32855052076E+03  0.36894221567E+03  0.88812094525E+02 0.  0.
         23    2    1    2    0    0  0.70596100873E+02  0.55627223567E+01 -0.20535281591E+01  0.13094995458E+03  0.11013137740E+03 0.  0.
        -11    1    4    4    0    0 -0.29955184657E+02  0.46332137016E+01  0.12897824404E+01  0.30338808411E+02  0.00000000000E+00 0. -1.
         11    1    4    4    0    0  0.10055128553E+03  0.92950865508E+00 -0.33433105995E+01  0.10061114617E+03  0.00000000000E+00 0.  1.
        -13    1    3    3    0    0 -0.49991992671E+02 -0.18178472770E+02 -0.20218443755E+03  0.20906506880E+03  0.00000000000E+00 0. -1.
         13    1    3    3    0    0 -0.91421741947E+02  0.35133747378E+02 -0.12636608321E+03  0.15987714687E+03  0.00000000000E+00 0.  1.
          1    1    1    2  501    0  0.70817633745E+02 -0.22517996965E+02  0.50187141585E+03  0.50734319300E+03  0.00000000000E+00 0. -1.
<scales pt_clust_5="13000.00000" pt_clust_6="13000.00000" pt_clust_7="13000.00000" pt_clust_8="13000.00000" pt_clust_9="74.31149"></scales>
<clustering>
<clus scale="   74.311">  1  9  2 -1</clus>
<clus scale="   88.812">  7  8 -1 -1</clus>
<clus scale="  110.131">  5  6 -1 -1</clus>
<clus scale="  153.382">  2  7  1 -1</clus>
<clus scale="   74.311">  1  5  2 -1</clus>
</clustering>
</event>
<event>
 9    1  0.1636528E-005  0.1067498E+03  0.7546771E-02  0.1266831E+00
         -3   -1    0    0    0  501 -0.00000000000E+00  0.00000000000E+00  0.42448698525E+03  0.42448698525E+03  0.00000000000E+00 0.  1.
         21   -1    0    0  501  502  0.00000000000E+00 -0.00000000000E+00 -0.83168036772E+02  0.83168036772E+02  0.00000000000E+00 0. -1.
         23    2    1    2    0    0  0.31600559283E+02  0.46488916229E+02  0.36893929560E+03  0.38438674629E+03  0.92071451653E+02 0.  0.
         23    2    1    2    0    0 -0.26755690909E+02 -0.26267854281E+02 -0.20134781516E+02  0.10116855202E+03  0.91781258035E+02 0.  0.
        -11    1    3    3    0    0 -0.69132026955E+01  0.61867579432E+02  0.16682377941E+03  0.17806056029E+03  0.00000000000E+00 0.  1.
         11    1    3    3    0    0  0.38513761978E+02 -0.15378663203E+02  0.20211551619E+03  0.20632618600E+03  0.00000000000E+00 0. -1.
        -13    1    4    4    0    0 -0.59209182813E+02 -0.29851982097E+02 -0.10573570103E+02  0.67146619790E+02  0.00000000000E+00 0. -1.
         13    1    4    4    0    0  0.32453491904E+02  0.35841278157E+01 -0.95612114127E+01  0.34021932230E+02  0.00000000000E+00 0.  1.
         -3    1    1    2    0  502 -0.48448683735E+01 -0.20221061948E+02 -0.74855656018E+01  0.22099723714E+02  0.00000000000E+00 0.  1.
<scales pt_clust_5="13000.00000" pt_clust_6="13000.00000" pt_clust_7="13000.00000" pt_clust_8="13000.00000" pt_clust_9="20.79337"></scales>
<clustering>
<clus scale="   20.793">  2  9  1 -1</clus>
<clus scale="   91.781">  7  8 -1 -1</clus>
<clus scale="   92.071">  5  6 -1 -1</clus>
<clus scale="  106.500">  2  7  1 -1</clus>
<clus scale="   20.793">  2  5  1 -1</clus>
</clustering>
</event>
<event>
 9    1  0.1636528E-005  0.2456083E+03  0.7546771E-02  0.1135619E+00
          1   -1    0    0  502    0 -0.00000000000E+00  0.00000000000E+00  0.25674274855E+03  0.25674274855E+03  0.00000000000E+00 0. -1.
         21   -1    0    0  501  502  0.00000000000E+00 -0.00000000000E+00 -0.16055294682E+04  0.16055294682E+04  0.00000000000E+00 0. -1.
         23    2    1    2    0    0 -0.36170441893E+02 -0.11326676042E+03  0.19175804655E+03  0.24442623381E+03  0.93996678007E+02 0.  0.
         23    2    1    2    0    0 -0.35768084280E+02 -0.17248569408E+03 -0.55434630531E+03  0.58856612739E+03  0.89886537298E+02 0.  0.
        -11    1    4    4    0    0 -0.66221824385E+02 -0.11842030770E+03 -0.37542484213E+03  0.39918981875E+03  0.00000000000E+00 0. -1.
         11    1    4    4    0    0  0.30453740105E+02 -0.54065386379E+02 -0.17892146317E+03  0.18937630864E+03  0.00000000000E+00 0.  1.
        -11    1    3    3    0    0 -0.26710486699E+02 -0.11410775226E+02  0.10912925036E+03  0.11292851356E+03  0.00000000000E+00 0.  1.
         11    1    3    3    0    0 -0.94599551938E+01 -0.10185598519E+03  0.82628796192E+02  0.13149772025E+03  0.00000000000E+00 0. -1.
          1    1    1    2  501    0  0.71938526173E+02  0.28575245449E+03 -0.98619846093E+03  0.10292798556E+04  0.00000000000E+00 0. -1.
<scales pt_clust_5="13000.00000" pt_clust_6="13000.00000" pt_clust_7="13000.00000" pt_clust_8="13000.00000" pt_clust_9="228.56929"></scales>
<clustering>
<clus scale="   89.887">  5  6 -1 -1</clus>
<clus scale="   93.997">  7  8 -1 -1</clus>
<clus scale="  151.569">  1  7  2 -1</clus>
<clus scale="  228.569">  2  9  1 -1</clus>
<clus scale="  228.569">  2  5  1 -1</clus>
</clustering>
</event>
<event>
 9    1  0.1636528E-005  0.1479559E+03  0.7546771E-02  0.1203119E+00
         -1   -1    0    0    0  501 -0.00000000000E+00  0.00000000000E+00  0.57454459137E+03  0.57454459137E+03  0.00000000000E+00 0.  1.
         21   -1    0    0  501  502  0.00000000000E+00 -0.00000000000E+00 -0.17815393157E+03  0.17815393157E+03  0.00000000000E+00 0.  1.
         23    2    1    2    0    0 -0.66392159104E+02  0.63768703205E+02  0.20573962712E+03  0.24335139423E+03  0.91742795964E+02 0.  0.
         23    2    1    2    0    0  0.23540438576E+02 -0.16712097742E+03  0.29793017512E+03  0.35434139674E+03  0.91169418422E+02 0.  0.
        -11    1    4    4    0    0  0.56082193125E+02 -0.75283396384E+02  0.13327371229E+03  0.16301743632E+03  0.00000000000E+00 0.  1.
         11    1    4    4    0    0 -0.32541754548E+02 -0.91837581035E+02  0.16465646283E+03  0.19132396042E+03  0.00000000000E+00 0. -1.
        -13    1    3    3    0    0 -0.89176766418E+02  0.53206734576E+02  0.17674040781E+03  0.20498932661E+03  0.00000000000E+00 0.  1.
         13    1    3    3    0    0  0.22784607314E+02  0.10561968628E+02  0.28999219309E+02  0.38362067623E+02  0.00000000000E+00 0. -1.
         -1    1    1    2    0  502  0.42851720528E+02  0.10335227421E+03 -0.10727914244E+03  0.15500573196E+03  0.00000000000E+00 0.  1.
<scales pt_clust_5="13000.00000" pt_clust_6="13000.00000" pt_clust_7="13000.00000" pt_clust_8="13000.00000" pt_clust_9="111.88370"></scales>
<clustering>
<clus scale="   91.169">  5  6 -1 -1</clus>
<clus scale="   91.743">  7  8 -1 -1</clus>
<clus scale="  111.884">  2  9  1 -1</clus>
<clus scale="  147.601">  2  5  1 -1</clus>
<clus scale="  111.884">  2  5  1 -1</clus>
</clustering>
</event>
<event>
 9    1  0.1636528E-005  0.9505995E+02  0.7546771E-02  0.1291096E+00
         21   -1    0    0  501  502  0.00000000000E+00  0.00000000000E+00  0.42245821726E+03  0.42245821726E+03  0.00000000000E+00 0.  1.
         -1   -1    0    0    0  501 -0.00000000000E+00 -0.00000000000E+00 -0.62907575979E+02  0.62907575979E+02  0.00000000000E+00 0.  1.
         23    2    1    2    0    0 -0.71691051794E+01  0.71010028950E+01  0.17741309897E+02  0.94409062102E+02  0.92176442863E+02 0.  0.
         23    2    1    2    0    0  0.45868830215E+02 -0.26487371802E+02  0.10198022257E+03  0.14725301460E+03  0.92075806073E+02 0.  0.
        -11    1    3    3    0    0 -0.26098504438E+02  0.41924633109E+02 -0.33742894560E+01  0.49499420446E+02  0.00000000000E+00 0. -1.
         11    1    3    3    0    0  0.18929399259E+02 -0.34823630214E+02  0.21115599353E+02  0.44909641655E+02  0.00000000000E+00 0.  1.
        -11    1    4    4    0    0 -0.20658651112E+02 -0.14873240326E+02  0.65986418072E+02  0.70726236387E+02  0.00000000000E+00 0. -1.
         11    1    4    4    0    0  0.66527481327E+02 -0.11614131477E+02  0.35993804494E+02  0.76526778213E+02  0.00000000000E+00 0.  1.
         -1    1    1    2    0  502 -0.38699725036E+02  0.19386368907E+02  0.23982910881E+03  0.24370371653E+03  0.00000000000E+00 0.  1.
<scales pt_clust_5="13000.00000" pt_clust_6="13000.00000" pt_clust_7="13000.00000" pt_clust_8="13000.00000" pt_clust_9="43.28395"></scales>
<clustering>
<clus scale="   43.284">  1  9  2 -1</clus>
<clus scale="   92.076">  7  8 -1 -1</clus>
<clus scale="   92.176">  5  6 -1 -1</clus>
<clus scale="   94.962">  1  7  2 -1</clus>
<clus scale="   43.284">  1  5  2 -1</clus>
</clustering>
</event>
<event>
 9    1  0.1636528E-005  0.1059860E+03  0.7546771E-02  0.1274242E+00
         21   -1    0    0  501  502  0.00000000000E+00  0.00000000000E+00  0.24906936582E+03  0.24906936582E+03  0.00000000000E+00 0. -1.
          4   -1    0    0  502    0 -0.00000000000E+00 -0.00000000000E+00 -0.34050274769E+03  0.34050274769E+03  0.00000000000E+00 0. -1.
         23    2    1    2    0    0 -0.78956081001E-01  0.35759694614E+02 -0.27790438876E+03  0.29739787409E+03  0.99678905625E+02 0.  0.
         23    2    1    2    0    0  0.41351446968E+02 -0.40972420797E+02  0.21672505913E+03  0.24073593954E+03  0.87151361996E+02 0.  0.
        -11    1    3    3    0    0  0.52859792060E+01  0.70323402152E+02 -0.17325361892E+03  0.18705651267E+03  0.00000000000E+00 0. -1.
         11    1    3    3    0    0 -0.53649352870E+01 -0.34563707539E+02 -0.10465076984E+03  0.11034136141E+03  0.00000000000E+00 0.  1.
        -13    1    4    4    0    0  0.61623844079E+02 -0.52559731586E+02  0.17711460705E+03  0.19475525044E+03  0.00000000000E+00 0. -1.
         13    1    4    4    0    0 -0.20272397110E+02  0.11587310789E+02  0.39610452087E+02  0.45980689104E+02  0.00000000000E+00 0.  1.
          4    1    1    2  501    0 -0.41272490887E+02  0.52127261836E+01 -0.30254052244E+02  0.51438299889E+02  0.00000000000E+00 0. -1.
<scales pt_clust_5="13000.00000" pt_clust_6="13000.00000" pt_clust_7="13000.00000" pt_clust_8="13000.00000" pt_clust_9="41.60039"></scales>
<clustering>
<clus scale="   41.600">  1  9  2 -1</clus>
<clus scale="   87.151">  7  8 -1 -1</clus>
<clus scale="   94.300">  1  7  2 -1</clus>
<clus scale="   99.679">  5  6 -1 -1</clus>
<clus scale="   41.600">  1  5  2 -1</clus>
</clustering>
</event>
<event>
 9    1  0.1636528E-005  0.1421262E+03  0.7546771E-02  0.1210906E+00
          1   -1    0    0  502    0 -0.00000000000E+00  0.00000000000E+00  0.25128558134E+03  0.25128558134E+03  0.00000000000E+00 0. -1.
         21   -1    0    0  501  502  0.00000000000E+00 -0.00000000000E+00 -0.96383346822E+02  0.96383346822E+02  0.00000000000E+00 0.  1.
         23    2    1    2    0    0  0.78832555103E+02 -0.71912585441E+02  0.10849874746E+03  0.18152489121E+03  0.98961185526E+02 0.  0.
         23    2    1    2    0    0 -0.82287467347E+02  0.50017686454E+02  0.34993331252E+02  0.14121384089E+03  0.97179315626E+02 0.  0.
        -11    1    4    4    0    0 -0.32203257983E+02 -0.18365661108E+00  0.58271550706E+02  0.66578203461E+02  0.00000000000E+00 0. -1.
         11    1    4    4    0    0 -0.50084209364E+02  0.50201343065E+02 -0.23278219454E+02  0.74635637427E+02  0.00000000000E+00 0.  1.
        -11    1    3    3    0    0  0.41617751249E+02  0.20136377211E+02  0.35497639634E+02  0.58288878234E+02  0.00000000000E+00 0.  1.
         11    1    3    3    0    0  0.37214803853E+02 -0.92048962651E+02  0.73001107825E+02  0.12323601298E+03  0.00000000000E+00 0. -1.
          1    1    1    2  501    0  0.34549122449E+01  0.21894898987E+02  0.11410155811E+02  0.24930196066E+02  0.00000000000E+00 0. -1.
<scales pt_clust_5="13000.00000" pt_clust_6="13000.00000" pt_clust_7="13000.00000" pt_clust_8="13000.00000" pt_clust_9="22.16582"></scales>
<clustering>
<clus scale="   22.166">  2  9  1 -1</clus>
<clus scale="   97.179">  5  6 -1 -1</clus>
<clus scale="   98.961">  7  8 -1 -1</clus>
<clus scale="  140.891">  2  5  1 -1</clus>
<clus scale="   22.166">  2  5  1 -1</clus>
</clustering>
</event>
<event>
 9    1  0.1636528E-005  0.1575134E+03  0.7546771E-02  0.1202785E+00
         21   -1    0    0  501  502  0.00000000000E+00  0.00000000000E+00  0.90761705772E+02  0.90761705772E+02  0.00000000000E+00 0. -1.
          1   -1    0    0  502    0 -0.00000000000E+00 -0.00000000000E+00 -0.61230872446E+03  0.61230872446E+03  0.00000000000E+00 0. -1.
         23    2    1    2    0    0 -0.76022551399E+02  0.33596177431E+02 -0.87109218060E+02  0.15089779719E+03  0.90961518603E+02 0.  0.
         23    2    1    2    0    0 -0.55321834009E+02 -0.72984906320E+02 -0.38370588907E+03  0.40596542942E+03  0.95866671498E+02 0.  0.
        -11    1    3    3    0    0 -0.49597051867E+02  0.47576337839E+02 -0.97464928008E+02  0.11925932948E+03  0.00000000000E+00 0. -1.
         11    1    3    3    0    0 -0.26425499532E+02 -0.13980160408E+02  0.10355709948E+02  0.31638467711E+02  0.00000000000E+00 0.  1.
        -13    1    4    4    0    0 -0.49454895049E+01  0.20072570723E+02 -0.12091710152E+03  0.12267155906E+03  0.00000000000E+00 0.  1.
         13    1    4    4    0    0 -0.50376344504E+02 -0.93057477043E+02 -0.26278878755E+03  0.28329387036E+03  0.00000000000E+00 0. -1.
          1    1    1    2  501    0  0.13134438541E+03  0.39388728889E+02 -0.50731911557E+02  0.14620720363E+03  0.00000000000E+00 0. -1.
<scales pt_clust_5="13000.00000" pt_clust_6="13000.00000" pt_clust_7="13000.00000" pt_clust_8="13000.00000" pt_clust_9="124.98027"></scales>
<clustering>
<clus scale="   90.962">  5  6 -1 -1</clus>
<clus scale="   95.867">  7  8 -1 -1</clus>
<clus scale="  123.216">  2  5  1 -1</clus>
<clus scale="  124.980">  1  9  2 -1</clus>
<clus scale="  124.980">  1  5  2 -1</clus>
</clustering>
</event>
<event>
 9    1  0.1636528E-005  0.1371639E+03  0.7546771E-02  0.1226128E+00
          2   -1    0    0  502    0 -0.00000000000E+00  0.00000000000E+00  0.43218290293E+03  0.43218290293E+03  0.00000000000E+00 0. -1.
         21   -1    0    0  501  502  0.00000000000E+00 -0.00000000000E+00 -0.77540216303E+02  0.77540216303E+02  0.00000000000E+00 0. -1.
         23    2    1    2    0    0  0.63104483942E+02 -0.41767591310E+01  0.10402756875E+03  0.15415936439E+03  0.94571419364E+02 0.  0.
         23    2    1    2    0    0  0.11610882581E+02  0.98708054294E+02  0.13442695125E+03  0.18817725053E+03  0.86382751855E+02 0.  0.
        -13    1    4    4    0    0 -0.32276484400E+02  0.59451828936E+02  0.97512931945E+02  0.11868050937E+03  0.00000000000E+00 0. -1.
         13    1    4    4    0    0  0.43887366981E+02  0.39256225358E+02  0.36914019303E+02  0.69496741154E+02  0.00000000000E+00 0.  1.
        -13    1    3    3    0    0  0.50882445360E+02  0.24580541968E+02  0.13092389450E+02  0.58005490695E+02  0.00000000000E+00 0. -1.
         13    1    3    3    0    0  0.12222038581E+02 -0.28757301099E+02  0.90935179297E+02  0.96153873699E+02  0.00000000000E+00 0.  1.
          2    1    1    2  501    0 -0.74715366523E+02 -0.94531295163E+02  0.11618816663E+03  0.16738650431E+03  0.00000000000E+00 0. -1.
<scales pt_clust_5="13000.00000" pt_clust_6="13000.00000" pt_clust_7="13000.00000" pt_clust_8="13000.00000" pt_clust_9="106.54560"></scales>
<clustering>
<clus scale="   86.383">  5  6 -1 -1</clus>
<clus scale="   94.571">  7  8 -1 -1</clus>
<clus scale="  113.769">  1  7  2 -1</clus>
<clus scale="  106.546">  2  9  1 -1</clus>
<clus scale="  106.546">  2  5  1 -1</clus>
</clustering>
</event>
<event>
 9    1  0.1636528E-005  0.9857073E+02  0.7546771E-02  0.1283512E+00
         -3   -1    0    0    0  501 -0.00000000000E+00  0.00000000000E+00  0.10484917457E+03  0.10484917457E+03  0.00000000000E+00 0.  1.
         21   -1    0    0  501  502  0.00000000000E+00 -0.00000000000E+00 -0.14700503439E+03  0.14700503439E+03  0.00000000000E+00 0. -1.
         23    2    1    2    0    0  0.18598967296E+02 -0.25196746813E+02  0.16985804355E+02  0.97295467620E+02  0.90537797827E+02 0.  0.
         23    2    1    2    0    0 -0.53832662002E+02  0.22866804003E+02 -0.43828596393E+02  0.11607066630E+03  0.90169881274E+02 0.  0.
        -11    1    3    3    0    0  0.49115226732E+02 -0.10942773428E+02 -0.13248962972E+02  0.52034457882E+02  0.00000000000E+00 0.  1.
         11    1    3    3    0    0 -0.30516259435E+02 -0.14253973385E+02  0.30234767327E+02  0.45261009738E+02  0.00000000000E+00 0. -1.
        -11    1    4    4    0    0 -0.54742616493E+01  0.23042579846E+02  0.23375006953E+02  0.33276402699E+02  0.00000000000E+00 0.  1.
         11    1    4    4    0    0 -0.48358400352E+02 -0.17577584257E+00 -0.67203603346E+02  0.82794263596E+02  0.00000000000E+00 0. -1.
         -3    1    1    2    0  502  0.35233694705E+02  0.23299428101E+01 -0.15313067780E+02  0.38488075048E+02  0.00000000000E+00 0.  1.
<scales pt_clust_5="13000.00000" pt_clust_6="13000.00000" pt_clust_7="13000.00000" pt_clust_8="13000.00000" pt_clust_9="35.31065"></scales>
<clustering>
<clus scale="   35.311">  2  9  1 -1</clus>
<clus scale="   90.170">  7  8 -1 -1</clus>
<clus scale="   90.538">  5  6 -1 -1</clus>
<clus scale="   98.233">  2  7  1 -1</clus>
<clus scale="   35.311">  2  5  1 -1</clus>
</clustering>
</event>
<event>
 9    1  0.1636528E-005  0.1107911E+03  0.7546771E-02  0.1262181E+00
         -2   -1    0    0    0  501 -0.00000000000E+00  0.00000000000E+00  0.39750360972E+03  0.39750360972E+03  0.00000000000E+00 0. -1.
         21   -1    0    0  501  502  0.00000000000E+00 -0.00000000000E+00 -0.79931120162E+02  0.79931120162E+02  0.00000000000E+00 0.  1.
         23    2    1    2    0    0 -0.23277876513E+02  0.53708046721E+02  0.30383709546E+03  0.32145349603E+03  0.87114612510E+02 0.  0.
         23    2    1    2    0    0 -0.39383211486E+01 -0.57421976218E+02  0.40094213629E+02  0.11791153389E+03  0.94777582426E+02 0.  0.
        -11    1    4    4    0    0 -0.18057345114E+02 -0.17858694999E+02 -0.28063130954E+02  0.37848910401E+02  0.00000000000E+00 0.  1.
         11    1    4    4    0    0  0.14119023966E+02 -0.39563281219E+02  0.68157344583E+02  0.80062623485E+02  0.00000000000E+00 0. -1.
        -11    1    3    3    0    0  0.33075313199E+02  0.17641746944E+02  0.12550161541E+03  0.13098039185E+03  0.00000000000E+00 0. -1.
         11    1    3    3    0    0 -0.56353189713E+02  0.36066299777E+02  0.17833548005E+03  0.19047310418E+03  0.00000000000E+00 0.  1.
         -2    1    1    2    0  502  0.27216197662E+02  0.37139294974E+01 -0.26358819540E+02  0.38069699960E+02  0.00000000000E+00 0. -1.
<scales pt_clust_5="13000.00000" pt_clust_6="13000.00000" pt_clust_7="13000.00000" pt_clust_8="13000.00000" pt_clust_9="27.46843"></scales>
<clustering>
<clus scale="   27.468">  2  9  1 -1</clus>
<clus scale="   87.115">  7  8 -1 -1</clus>
<clus scale="   94.778">  5  6 -1 -1</clus>
<clus scale="  104.311">  1  7  2 -1</clus>
<clus scale="   27.468">  2  5  1 -1</clus>
</clustering>
</event>
<event>
 9    1  0.1636528E-005  0.1030513E+03  0.7546771E-02  0.1274318E+00
          2   -1    0    0  502    0 -0.00000000000E+00  0.00000000000E+00  0.23375729137E+03  0.23375729137E+03  0.00000000000E+00 0. -1.
         21   -1    0    0  501  502  0.00000000000E+00 -0.00000000000E+00 -0.80694638508E+02  0.80694638508E+02  0.00000000000E+00 0.  1.
         23    2    1    2    0    0  0.89380834246E+01  0.39878247192E+02  0.10781047967E+03  0.14711253194E+03  0.91371951892E+02 0.  0.
         23    2    1    2    0    0 -0.54166613772E+02 -0.44159696384E+02  0.41420139749E+02  0.12174734550E+03  0.90679034668E+02 0.  0.
        -13    1    3    3    0    0 -0.88248642398E+00  0.69153311372E+02  0.72202813564E+02  0.99981025912E+02  0.00000000000E+00 0. -1.
         13    1    3    3    0    0  0.98205698486E+01 -0.29275064179E+02  0.35607666108E+02  0.47131506029E+02  0.00000000000E+00 0.  1.
        -13    1    4    4    0    0 -0.55971967414E+02  0.12532964543E+02  0.25943789252E+02  0.62952494289E+02  0.00000000000E+00 0.  1.
         13    1    4    4    0    0  0.18053536411E+01 -0.56692660927E+02  0.15476350497E+02  0.58794851216E+02  0.00000000000E+00 0. -1.
          2    1    1    2  501    0  0.45228530348E+02  0.42814491918E+01  0.38320334391E+01  0.45592052431E+02  0.00000000000E+00 0. -1.
<scales pt_clust_5="13000.00000" pt_clust_6="13000.00000" pt_clust_7="13000.00000" pt_clust_8="13000.00000" pt_clust_9="45.43072"></scales>
<clustering>
<clus scale="   45.431">  2  9  1 -1</clus>
<clus scale="   90.679">  7  8 -1 -1</clus>
<clus scale="   91.372">  5  6 -1 -1</clus>
<clus scale="  102.437">  2  7  1 -1</clus>
<clus scale="   45.431">  2  5  1 -1</clus>
</clustering>
</event>
<event>
 9    1  0.1636528E-005  0.9349712E+02  0.7546771E-02  0.1294799E+00
          2   -1    0    0  502    0 -0.00000000000E+00  0.00000000000E+00  0.18550682827E+03  0.18550682827E+03  0.00000000000E+00 0. -1.
         21   -1    0    0  501  502  0.00000000000E+00 -0.00000000000E+00 -0.97872281712E+02  0.97872281712E+02  0.00000000000E+00 0. -1.
         23    2    1    2    0    0 -0.83134684966E+01  0.17279529869E+01  0.67694833488E+02  0.11443557354E+03  0.91873883284E+02 0.  0.
         23    2    1    2    0    0  0.92450397519E+01  0.28711034245E+02  0.63373438726E+02  0.11589744051E+03  0.92229223860E+02 0.  0.
        -13    1    3    3    0    0 -0.41073715258E+02 -0.99175305872E+01  0.47416841135E+01  0.42519302278E+02  0.00000000000E+00 0.  1.
         13    1    3    3    0    0  0.32760246761E+02  0.11645483574E+02  0.62953149375E+02  0.71916271258E+02  0.00000000000E+00 0. -1.
        -13    1    4    4    0    0  0.21081216990E+02  0.50351322925E+02  0.71475050374E+02  0.89935289270E+02  0.00000000000E+00 0. -1.
         13    1    4    4    0    0 -0.11836177238E+02 -0.21640288681E+02 -0.81016116484E+01  0.25962151242E+02  0.00000000000E+00 0.  1.
          2    1    1    2  501    0 -0.93157125532E+00 -0.30438987232E+02 -0.43433725660E+02  0.53046095930E+02  0.00000000000E+00 0. -1.
<scales pt_clust_5="13000.00000" pt_clust_6="13000.00000" pt_clust_7="13000.00000" pt_clust_8="13000.00000" pt_clust_9="30.45324"></scales>
<clustering>
<clus scale="   30.453">  2  9  1 -1</clus>
<clus scale="   91.874">  5  6 -1 -1</clus>
<clus scale="   92.229">  7  8 -1 -1</clus>
<clus scale="   93.147">  1  5  2 -1</clus>
<clus scale="   30.453">  2  5  1 -1</clus>
</clustering>
</event>
<event>
 9    1  0.1636528E-005  0.1005059E+03  0.7546771E-02  0.1283029E+00
          4   -1    0    0  502    0 -0.00000000000E+00  0.00000000000E+00  0.39712132258E+03  0.39712132258E+03  0.00000000000E+00 0. -1.
         21   -1    0    0  501  502  0.00000000000E+00 -0.00000000000E+00 -0.13414117867E+03  0.13414117867E+03  0.00000000000E+00 0. -1.
         23    2    1    2    0    0  0.17630305992E+02  0.39910818366E+02  0.20762821592E+03  0.23085815470E+03  0.91007199914E+02 0.  0.
         23    2    1    2    0    0 -0.27196877375E+02  0.60138717508E+02  0.13144582682E+03  0.17434201928E+03  0.93599138959E+02 0.  0.
        -11    1    4    4    0    0  0.20878997190E+02  0.62998611964E+02  0.76502258959E+02  0.10127859230E+03  0.00000000000E+00 0. -1.
         11    1    4    4    0    0 -0.48075874566E+02 -0.28598944563E+01  0.54943567865E+02  0.73063426975E+02  0.00000000000E+00 0.  1.
        -13    1    3    3    0    0  0.25992232137E+02  0.66914747517E+02  0.13453531013E+03  0.15248911187E+03  0.00000000000E+00 0. -1.
         13    1    3    3    0    0 -0.83619261456E+01 -0.27003929151E+02  0.73092905784E+02  0.78369042832E+02  0.00000000000E+00 0.  1.
          4    1    1    2  501    0  0.95665713836E+01 -0.10004953587E+03 -0.76093898828E+02  0.12606232726E+03  0.00000000000E+00 0. -1.
<scales pt_clust_5="13000.00000" pt_clust_6="13000.00000" pt_clust_7="13000.00000" pt_clust_8="13000.00000" pt_clust_9="100.50587"></scales>
<clustering>
<clus scale="   91.007">  7  8 -1 -1</clus>
<clus scale="   93.599">  5  6 -1 -1</clus>
<clus scale="  100.506">  2  9  1 -1</clus>
<clus scale="   93.518">  1  7  2 -1</clus>
<clus scale="  100.506">  2  5  1 -1</clus>
</clustering>
</event>
<event>
 9    1  0.1636528E-005  0.1215416E+03  0.7546771E-02  0.1244714E+00
         21   -1    0    0  501  502  0.00000000000E+00  0.00000000000E+00  0.26595384336E+03  0.26595384336E+03  0.00000000000E+00 0.  1.
          2   -1    0    0  502    0 -0.00000000000E+00 -0.00000000000E+00 -0.14776066717E+03  0.14776066717E+03  0.00000000000E+00 0. -1.
         23    2    1    2    0    0  0.27827473864E+01  0.69557356971E+02 -0.10309652316E+03  0.15321273293E+03  0.89438687661E+02 0.  0.
         23    2    1    2    0    0  0.90171268177E+01 -0.47236378809E+02  0.18123543398E+03  0.21315405039E+03  0.10136953490E+03 0.  0.
        -11    1    4    4    0    0 -0.16506193559E+02 -0.30585078498E+02  0.17927893016E+03  0.18261663739E+03  0.00000000000E+00 0.  1.
         11    1    4    4    0    0  0.25523320377E+02 -0.16651300311E+02  0.19565038187E+01  0.30537412993E+02  0.00000000000E+00 0. -1.
        -13    1    3    3    0    0 -0.31158323819E+02  0.68228528884E+02 -0.89118214609E+02  0.11648188474E+03  0.00000000000E+00 0. -1.
         13    1    3    3    0    0  0.33941071205E+02  0.13288280869E+01 -0.13978308555E+02  0.36730848189E+02  0.00000000000E+00 0.  1.
          2    1    1    2  501    0 -0.11799874204E+02 -0.22320978162E+02  0.40054265376E+02  0.47347727212E+02  0.00000000000E+00 0. -1.
<scales pt_clust_5="13000.00000" pt_clust_6="13000.00000" pt_clust_7="13000.00000" pt_clust_8="13000.00000" pt_clust_9="25.24803"></scales>
<clustering>
<clus scale="   25.248">  1  9  2 -1</clus>
<clus scale="   89.439">  7  8 -1 -1</clus>
<clus scale="  101.370">  5  6 -1 -1</clus>
<clus scale="  111.785">  2  7  1 -1</clus>
<clus scale="   25.248">  1  5  2 -1</clus>
</clustering>
</event>
<event>
 9    1  0.1636528E-005  0.1023094E+03  0.7546771E-02  0.1276748E+00
          2   -1    0    0  502    0 -0.00000000000E+00  0.00000000000E+00  0.28056322716E+03  0.28056322716E+03  0.00000000000E+00 0. -1.
         21   -1    0    0  501  502  0.00000000000E+00 -0.00000000000E+00 -0.20747254267E+03  0.20747254267E+03  0.00000000000E+00 0.  1.
         23    2    1    2    0    0  0.36488386408E+02  0.25435705234E+02  0.24734357783E+03  0.26802032203E+03  0.93154012719E+02 0.  0.
         23    2    1    2    0    0 -0.79452002028E+01 -0.21393819784E+01 -0.15161224870E+03  0.17677159338E+03  0.90521926122E+02 0.  0.
        -11    1    3    3    0    0 -0.20766969188E+02 -0.20227399004E+02  0.54337111959E+02  0.61586820146E+02  0.00000000000E+00 0.  1.
         11    1    3    3    0    0  0.57255355597E+02  0.45663104239E+02  0.19300646587E+03  0.20643350188E+03  0.00000000000E+00 0. -1.
        -11    1    4    4    0    0  0.28316408994E+02  0.26428718626E+02 -0.38548681649E+02  0.54647022274E+02  0.00000000000E+00 0. -1.
         11    1    4    4    0    0 -0.36261609196E+02 -0.28568100604E+02 -0.11306356705E+03  0.12212457111E+03  0.00000000000E+00 0.  1.
          2    1    1    2  501    0 -0.28543186205E+02 -0.23296323256E+02 -0.22640644638E+02  0.43243854426E+02  0.00000000000E+00 0. -1.
<scales pt_clust_5="13000.00000" pt_clust_6="13000.00000" pt_clust_7="13000.00000" pt_clust_8="13000.00000" pt_clust_9="36.84335"></scales>
<clustering>
<clus scale="   36.843">  2  9  1 -1</clus>
<clus scale="   90.522">  7  8 -1 -1</clus>
<clus scale="   93.154">  5  6 -1 -1</clus>
<clus scale="   99.919">  2  7  1 -1</clus>
<clus scale="   36.843">  2  5  1 -1</clus>
</clustering>
</event>
<event>
 9    1  0.1636528E-005  0.2407312E+03  0.7546771E-02  0.1120000E+00
          1   -1    0    0  502    0 -0.00000000000E+00  0.00000000000E+00  0.98403335473E+03  0.98403335473E+03  0.00000000000E+00 0. -1.
         21   -1    0    0  501  502  0.00000000000E+00 -0.00000000000E+00 -0.91186649276E+02  0.91186649276E+02  0.00000000000E+00 0. -1.
         23    2    1    2    0    0 -0.18848571795E+03  0.11628568315E+03  0.53291371466E+03  0.58429912376E+03  0.91428730564E+02 0.  0.
         23    2    1    2    0    0  0.15629958148E+03 -0.16776613929E+03  0.35487935398E+03  0.42999696057E+03  0.79893639010E+02 0.  0.
        -11    1    3    3    0    0 -0.12254222236E+03  0.10625884060E+03  0.28872227156E+03  0.33116172418E+03  0.00000000000E+00 0.  1.
         11    1    3    3    0    0 -0.65943495588E+02  0.10026842558E+02  0.24419144310E+03  0.25313739958E+03  0.00000000000E+00 0. -1.
        -13    1    4    4    0    0  0.84491676766E+02 -0.44066261719E+02  0.10285328618E+03  0.14021225817E+03  0.00000000000E+00 0.  1.
         13    1    4    4    0    0  0.71807904715E+02 -0.12369987757E+03  0.25202606781E+03  0.28978470240E+03  0.00000000000E+00 0. -1.
          1    1    1    2  501    0  0.32186136467E+02  0.51480456131E+02  0.50536368101E+01  0.60923919680E+02  0.00000000000E+00 0. -1.
<scales pt_clust_5="13000.00000" pt_clust_6="13000.00000" pt_clust_7="13000.00000" pt_clust_8="13000.00000" pt_clust_9="60.71396"></scales>
<clustering>
<clus scale="   60.714">  2  9  1 -1</clus>
<clus scale="   79.894">  7  8 -1 -1</clus>
<clus scale="   91.429">  5  6 -1 -1</clus>
<clus scale="  236.591">  2  7  1 -1</clus>
<clus scale="   60.714">  2  5  1 -1</clus>
</clustering>
</event>
<event>
 9    1  0.1636528E-005  0.9560312E+02  0.7546771E-02  0.1290182E+00
         -4   -1    0    0    0  501 -0.00000000000E+00  0.00000000000E+00  0.20730669065E+03  0.20730669065E+03  0.00000000000E+00 0.  1.
         21   -1    0    0  501  502  0.00000000000E+00 -0.00000000000E+00 -0.11023638524E+03  0.11023638524E+03  0.00000000000E+00 0.  1.
         23    2    1    2    0    0  0.29404803630E+02  0.12408806633E+02  0.13415111299E+03  0.16589956801E+03  0.92236243359E+02 0.  0.
         23    2    1    2    0    0  0.21494127655E+02 -0.89833072328E+01 -0.28419229410E+02  0.99899346972E+02  0.92895261411E+02 0.  0.
        -11    1    4    4    0    0  0.55820702345E+02 -0.18314333799E+01 -0.32468359613E+02  0.64602626374E+02  0.00000000000E+00 0.  1.
         11    1    4    4    0    0 -0.34326574690E+02 -0.71518738529E+01  0.40491302020E+01  0.35296720598E+02  0.00000000000E+00 0. -1.
        -11    1    3    3    0    0  0.48552116415E+02  0.38189285869E+02  0.10828390799E+03  0.12466408582E+03  0.00000000000E+00 0.  1.
         11    1    3    3    0    0 -0.19147312786E+02 -0.25780479236E+02  0.25867205002E+02  0.41235482187E+02  0.00000000000E+00 0. -1.
         -4    1    1    2    0  502 -0.50898931284E+02 -0.34254994003E+01 -0.86615781741E+01  0.51744160912E+02  0.00000000000E+00 0.  1.
<scales pt_clust_5="13000.00000" pt_clust_6="13000.00000" pt_clust_7="13000.00000" pt_clust_8="13000.00000" pt_clust_9="51.01407"></scales>
<clustering>
<clus scale="   51.014">  2  9  1 -1</clus>
<clus scale="   92.236">  7  8 -1 -1</clus>
<clus scale="   92.895">  5  6 -1 -1</clus>
<clus scale="   94.963">  1  7  2 -1</clus>
<clus scale="   51.014">  2  5  1 -1</clus>
</clustering>
</event>
<event>
 9    1  0.1636528E-005  0.1473236E+03  0.7546771E-02  0.1204046E+00
         21   -1    0    0  501  502  0.00000000000E+00  0.00000000000E+00  0.34921811055E+02  0.34921811055E+02  0.00000000000E+00 0. -1.
          1   -1    0    0  502    0 -0.00000000000E+00 -0.00000000000E+00 -0.11669540835E+04  0.11669540835E+04  0.00000000000E+00 0. -1.
         23    2    1    2    0    0  0.12755980409E+03 -0.32291223226E+02 -0.87391241068E+03  0.88832413024E+03  0.89903459912E+02 0.  0.
         23    2    1    2    0    0 -0.74555014281E+02  0.28848324846E+02 -0.20660979779E+03  0.23956090014E+03  0.91165455810E+02 0.  0.
        -11    1    4    4    0    0 -0.83470502922E+02  0.47681480759E+02 -0.14044747788E+03  0.17019501317E+03  0.00000000000E+00 0. -1.
         11    1    4    4    0    0  0.89154886413E+01 -0.18833155913E+02 -0.66162319910E+02  0.69365886971E+02  0.00000000000E+00 0.  1.
        -13    1    3    3    0    0  0.56081976375E+02  0.30832731472E+02 -0.34781962904E+03  0.35365850725E+03  0.00000000000E+00 0.  1.
         13    1    3    3    0    0  0.71477827713E+02 -0.63123954697E+02 -0.52609278164E+03  0.53466562299E+03  0.00000000000E+00 0. -1.
          1    1    1    2  501    0 -0.53004789807E+02  0.34428983797E+01 -0.51510063993E+02  0.73990864195E+02  0.00000000000E+00 0. -1.
<scales pt_clust_5="13000.00000" pt_clust_6="13000.00000" pt_clust_7="13000.00000" pt_clust_8="13000.00000" pt_clust_9="53.11649"></scales>
<clustering>
<clus scale="   53.116">  1  9  2 -1</clus>
<clus scale="   89.903">  7  8 -1 -1</clus>
<clus scale="   91.165">  5  6 -1 -1</clus>
<clus scale="  146.546">  2  7  1 -1</clus>
<clus scale="   53.116">  1  5  2 -1</clus>
</clustering>
</event>
<event>
 9    1  0.1636528E-005  0.1399422E+03  0.7546771E-02  0.1213667E+00
         21   -1    0    0  501  502  0.00000000000E+00  0.00000000000E+00  0.44532615188E+02  0.44532615188E+02  0.00000000000E+00 0. -1.
         -1   -1    0    0    0  501 -0.00000000000E+00 -0.00000000000E+00 -0.87019847654E+03  0.87019847654E+03  0.00000000000E+00 0.  1.
         23    2    1    2    0    0 -0.17828972437E+02 -0.11080654429E+03 -0.62821350297E+03  0.64448816397E+03  0.90093427499E+02 0.  0.
         23    2    1    2    0    0  0.20497158667E+02  0.89917253317E+02 -0.20916569905E+03  0.24614554107E+03  0.91280292354E+02 0.  0.
        -11    1    4    4    0    0  0.22703147875E+02  0.93906559175E+01 -0.29393184071E+01  0.24743826193E+02  0.00000000000E+00 0.  1.
         11    1    4    4    0    0 -0.22059892082E+01  0.80526597400E+02 -0.20622638065E+03  0.22140171488E+03  0.00000000000E+00 0. -1.
        -13    1    3    3    0    0 -0.48020445172E+02 -0.10118500142E+03 -0.50423205570E+03  0.51652137774E+03  0.00000000000E+00 0.  1.
         13    1    3    3    0    0  0.30191472735E+02 -0.96215428731E+01 -0.12398144727E+03  0.12796678623E+03  0.00000000000E+00 0. -1.
         -1    1    1    2    0  502 -0.26681862298E+01  0.20889290971E+02  0.11713340671E+02  0.24097386678E+02  0.00000000000E+00 0.  1.
<scales pt_clust_5="13000.00000" pt_clust_6="13000.00000" pt_clust_7="13000.00000" pt_clust_8="13000.00000" pt_clust_9="21.05901"></scales>
<clustering>
<clus scale="   21.059">  1  9  2 -1</clus>
<clus scale="   90.093">  7  8 -1 -1</clus>
<clus scale="   91.280">  5  6 -1 -1</clus>
<clus scale="  139.171">  2  7  1 -1</clus>
<clus scale="   21.059">  1  5  2 -1</clus>
</clustering>
</event>
<event>
 9    1  0.1636528E-005  0.9795587E+02  0.7546771E-02  0.1285856E+00
         -2   -1    0    0    0  501 -0.00000000000E+00  0.00000000000E+00  0.76707764332E+02  0.76707764332E+02  0.00000000000E+00 0. -1.
         21   -1    0    0  501  502  0.00000000000E+00 -0.00000000000E+00 -0.20052430400E+03  0.20052430400E+03  0.00000000000E+00 0. -1.
         23    2    1    2    0    0  0.21112269212E+02 -0.11538077681E+02 -0.44085987636E+01  0.95175856170E+02  0.91979088421E+02 0.  0.
         23    2    1    2    0    0 -0.12080250917E+02  0.38953397029E+02 -0.11258602084E+03  0.15239621076E+03  0.94263955808E+02 0.  0.
        -11    1    4    4    0    0 -0.41488323279E+02  0.52606973976E+02 -0.56630242798E+02  0.87725475655E+02  0.00000000000E+00 0. -1.
         11    1    4    4    0    0  0.29408072362E+02 -0.13653576947E+02 -0.55955778040E+02  0.64670735109E+02  0.00000000000E+00 0.  1.
        -13    1    3    3    0    0  0.26522108723E+02  0.21879478368E+02 -0.35350363526E+02  0.49313101973E+02  0.00000000000E+00 0. -1.
         13    1    3    3    0    0 -0.54098395109E+01 -0.33417556049E+02  0.30941764763E+02  0.45862754196E+02  0.00000000000E+00 0.  1.
         -2    1    1    2    0  502 -0.90320182953E+01 -0.27415319348E+02 -0.68219200633E+01  0.29660001396E+02  0.00000000000E+00 0. -1.
<scales pt_clust_5="13000.00000" pt_clust_6="13000.00000" pt_clust_7="13000.00000" pt_clust_8="13000.00000" pt_clust_9="28.86482"></scales>
<clustering>
<clus scale="   28.865">  2  9  1 -1</clus>
<clus scale="   91.979">  7  8 -1 -1</clus>
<clus scale="   94.264">  5  6 -1 -1</clus>
<clus scale="   95.759">  1  7  2 -1</clus>
<clus scale="   28.865">  2  5  1 -1</clus>
</clustering>
</event>
<event>
 9    1  0.1636528E-005  0.1000007E+03  0.7546771E-02  0.1281907E+00
         -1   -1    0    0    0  501 -0.00000000000E+00  0.00000000000E+00  0.18886754751E+03  0.18886754751E+03  0.00000000000E+00 0.  1.
         21   -1    0    0  501  502  0.00000000000E+00 -0.00000000000E+00 -0.31010445489E+03  0.31010445489E+03  0.00000000000E+00 0.  1.
         23    2    1    2    0    0  0.40995364942E+02 -0.38200919270E+02  0.11293034174E+03  0.15540587533E+03  0.90872404075E+02 0.  0.
         23    2    1    2    0    0  0.52362093197E+01 -0.15560888983E+02  0.34748957346E+01  0.95571208779E+02  0.94086247099E+02 0.  0.
        -11    1    4    4    0    0 -0.13896334943E+02  0.30537124446E+02  0.24365893941E+02  0.41464694401E+02  0.00000000000E+00 0. -1.
         11    1    4    4    0    0  0.19132544263E+02 -0.46098013428E+02 -0.20890998206E+02  0.54106514377E+02  0.00000000000E+00 0.  1.
        -13    1    3    3    0    0  0.24266116881E+02 -0.65114385733E+02  0.52222088063E+02  0.86924531287E+02  0.00000000000E+00 0.  1.
         13    1    3    3    0    0  0.16729248061E+02  0.26913466463E+02  0.60708253674E+02  0.68481344043E+02  0.00000000000E+00 0. -1.
         -1    1    1    2    0  502 -0.46231574262E+02  0.53761808253E+02 -0.23764214486E+03  0.24799491829E+03  0.00000000000E+00 0.  1.
<scales pt_clust_5="13000.00000" pt_clust_6="13000.00000" pt_clust_7="13000.00000" pt_clust_8="13000.00000" pt_clust_9="70.90621"></scales>
<clustering>
<clus scale="   70.906">  2  9  1 -1</clus>
<clus scale="   90.872">  7  8 -1 -1</clus>
<clus scale="   94.086">  5  6 -1 -1</clus>
<clus scale="   96.983">  1  7  2 -1</clus>
<clus scale="   70.906">  2  5  1 -1</clus>
</clustering>
</event>
<event>
 9    1  0.1636528E-005  0.1503759E+03  0.7546771E-02  0.1200099E+00
          2   -1    0    0  502    0 -0.00000000000E+00  0.00000000000E+00  0.75296365747E+03  0.75296365747E+03  0.00000000000E+00 0. -1.
         21   -1    0    0  501  502  0.00000000000E+00 -0.00000000000E+00 -0.41886405950E+02  0.41886405950E+02  0.00000000000E+00 0.  1.
         23    2    1    2    0    0  0.10726895399E+03  0.60800748407E+01  0.34735104022E+03  0.37481162831E+03  0.91035244674E+02 0.  0.
         23    2    1    2    0    0 -0.13336186610E+03 -0.28032275159E+02  0.34268646184E+03  0.37997086446E+03  0.91502190830E+02 0.  0.
        -11    1    3    3    0    0  0.63731984216E+02  0.41922913745E+02  0.13460623874E+03  0.15471953987E+03  0.00000000000E+00 0. -1.
         11    1    3    3    0    0  0.43536969775E+02 -0.35842838904E+02  0.21274480147E+03  0.22009208844E+03  0.00000000000E+00 0.  1.
        -13    1    4    4    0    0 -0.56545904701E+02 -0.57421993310E+02  0.14567746038E+03  0.16648317367E+03  0.00000000000E+00 0.  1.
         13    1    4    4    0    0 -0.76815961397E+02  0.29389718151E+02  0.19700900146E+03  0.21348769078E+03  0.00000000000E+00 0. -1.
          2    1    1    2  501    0  0.26092912108E+02  0.21952200318E+02  0.21039749463E+02  0.40067570659E+02  0.00000000000E+00 0. -1.
<scales pt_clust_5="13000.00000" pt_clust_6="13000.00000" pt_clust_7="13000.00000" pt_clust_8="13000.00000" pt_clust_9="34.09896"></scales>
<clustering>
<clus scale="   34.099">  2  9  1 -1</clus>
<clus scale="   91.035">  5  6 -1 -1</clus>
<clus scale="   91.502">  7  8 -1 -1</clus>
<clus scale="  150.092">  1  5  2 -1</clus>
<clus scale="   34.099">  2  5  1 -1</clus>
</clustering>
</event>
<event>
 9    1  0.1636528E-005  0.1918152E+03  0.7546771E-02  0.1157124E+00
         21   -1    0    0  501  502  0.00000000000E+00  0.00000000000E+00  0.26496994664E+03  0.26496994664E+03  0.00000000000E+00 0.  1.
          2   -1    0    0  502    0 -0.00000000000E+00 -0.00000000000E+00 -0.34144503222E+03  0.34144503222E+03  0.00000000000E+00 0. -1.
         23    2    1    2    0    0  0.12339237568E+03  0.10772815738E+03 -0.21912012960E+03  0.28863750817E+03  0.92016007623E+02 0.  0.
         23    2    1    2    0    0 -0.15308764328E+03 -0.10445813015E+03  0.38313331438E+02  0.20925278111E+03  0.89283187437E+02 0.  0.
        -11    1    4    4    0    0 -0.11166230575E+03 -0.10123305433E+03  0.60190651099E+02  0.16229453563E+03  0.00000000000E+00 0.  1.
         11    1    4    4    0    0 -0.41425337526E+02 -0.32250758119E+01 -0.21877319661E+02  0.46958245482E+02  0.00000000000E+00 0. -1.
        -13    1    3    3    0    0  0.83986307155E+02  0.12744513356E+02 -0.10373442590E+03  0.13407816201E+03  0.00000000000E+00 0.  1.
         13    1    3    3    0    0  0.39406068525E+02  0.94983644021E+02 -0.11538570370E+03  0.15455934616E+03  0.00000000000E+00 0. -1.
          2    1    1    2  501    0  0.29695267599E+02 -0.32700272305E+01  0.10433171259E+03  0.10852468957E+03  0.00000000000E+00 0. -1.
<scales pt_clust_5="13000.00000" pt_clust_6="13000.00000" pt_clust_7="13000.00000" pt_clust_8="13000.00000" pt_clust_9="29.87477"></scales>
<clustering>
<clus scale="   29.875">  1  9  2 -1</clus>
<clus scale="   89.283">  5  6 -1 -1</clus>
<clus scale="   92.016">  7  8 -1 -1</clus>
<clus scale="  190.519">  1  5  2 -1</clus>
<clus scale="   29.875">  1  5  2 -1</clus>
</clustering>
</event>
<event>
 9    1  0.1636528E-005  0.1055624E+03  0.7546771E-02  0.1269621E+00
         -1   -1    0    0    0  501 -0.00000000000E+00  0.00000000000E+00  0.20595583037E+03  0.20595583037E+03  0.00000000000E+00 0.  1.
         21   -1    0    0  501  502  0.00000000000E+00 -0.00000000000E+00 -0.87174585268E+02  0.87174585268E+02  0.00000000000E+00 0. -1.
         23    2    1    2    0    0  0.36522445126E+02  0.27088005043E+02  0.99127351642E+02  0.14213169003E+03  0.91145688065E+02 0.  0.
         23    2    1    2    0    0 -0.56073499593E+02 -0.37414426858E+02  0.41755091755E+02  0.11973626113E+03  0.89717377631E+02 0.  0.
        -11    1    3    3    0    0  0.15415584475E+02 -0.32966489903E+02  0.49385508936E+02  0.61346215809E+02  0.00000000000E+00 0. -1.
         11    1    3    3    0    0  0.21106860651E+02  0.60054494946E+02  0.49741842707E+02  0.80785474224E+02  0.00000000000E+00 0.  1.
        -11    1    4    4    0    0 -0.31987539895E+02 -0.40168763357E+02 -0.18663248748E+02  0.54635602971E+02  0.00000000000E+00 0. -1.
         11    1    4    4    0    0 -0.24085959698E+02  0.27543364984E+01  0.60418340503E+02  0.65100658163E+02  0.00000000000E+00 0.  1.
         -1    1    1    2    0  502  0.19551054467E+02  0.10326421815E+02 -0.22101198300E+02  0.31262464467E+02  0.00000000000E+00 0.  1.
<scales pt_clust_5="13000.00000" pt_clust_6="13000.00000" pt_clust_7="13000.00000" pt_clust_8="13000.00000" pt_clust_9="22.11060"></scales>
<clustering>
<clus scale="   22.111">  2  9  1 -1</clus>
<clus scale="   89.717">  7  8 -1 -1</clus>
<clus scale="   91.146">  5  6 -1 -1</clus>
<clus scale="  104.332">  2  7  1 -1</clus>
<clus scale="   22.111">  2  5  1 -1</clus>
</clustering>
</event>
<event>
 9    1  0.1636528E-005  0.1092870E+03  0.7546771E-02  0.1262506E+00
          1   -1    0    0  502    0 -0.00000000000E+00  0.00000000000E+00  0.58517401134E+02  0.58517401134E+02  0.00000000000E+00 0. -1.
         21   -1    0    0  501  502  0.00000000000E+00 -0.00000000000E+00 -0.33685833698E+03  0.33685833698E+03  0.00000000000E+00 0.  1.
         23    2    1    2    0    0  0.34377241080E+02  0.18041360225E+02 -0.85141598484E+02  0.13064089252E+03  0.91162852205E+02 0.  0.
         23    2    1    2    0    0 -0.69202672116E+02 -0.55889298934E+02 -0.11288629459E+03  0.16936471426E+03  0.89601715206E+02 0.  0.
        -11    1    3    3    0    0  0.13050454785E+02  0.54789797107E+02 -0.53308157442E+02  0.77549957363E+02  0.00000000000E+00 0. -1.
         11    1    3    3    0    0  0.21326786295E+02 -0.36748436882E+02 -0.31833441042E+02  0.53090935154E+02  0.00000000000E+00 0.  1.
        -13    1    4    4    0    0 -0.22066125241E+02 -0.39292199430E+01 -0.94107906955E+02  0.96740119930E+02  0.00000000000E+00 0.  1.
         13    1    4    4    0    0 -0.47136546875E+02 -0.51960078991E+02 -0.18778387637E+02  0.72624594335E+02  0.00000000000E+00 0. -1.
          1    1    1    2  501    0  0.34825431037E+02  0.37847938709E+02 -0.80313042765E+02  0.95370131328E+02  0.00000000000E+00 0. -1.
<scales pt_clust_5="13000.00000" pt_clust_6="13000.00000" pt_clust_7="13000.00000" pt_clust_8="13000.00000" pt_clust_9="51.43226"></scales>
<clustering>
<clus scale="   51.432">  2  9  1 -1</clus>
<clus scale="   89.602">  7  8 -1 -1</clus>
<clus scale="   91.163">  5  6 -1 -1</clus>
<clus scale="  107.988">  2  7  1 -1</clus>
<clus scale="   51.432">  2  5  1 -1</clus>
</clustering>
</event>
<event>
 9    1  0.1636528E-005  0.1703657E+03  0.7546771E-02  0.1177813E+00
         21   -1    0    0  501  502  0.00000000000E+00  0.00000000000E+00  0.18042661523E+03  0.18042661523E+03  0.00000000000E+00 0. -1.
          2   -1    0    0  502    0 -0.00000000000E+00 -0.00000000000E+00 -0.32986749385E+03  0.32986749385E+03  0.00000000000E+00 0. -1.
         23    2    1    2    0    0  0.16267630478E+03  0.72243910999E+02 -0.18066356633E+03  0.26959465324E+03  0.91428606257E+02 0.  0.
         23    2    1    2    0    0 -0.10006636323E+03 -0.25409554004E+02 -0.32207107596E+02  0.14001777573E+03  0.88931193952E+02 0.  0.
        -13    1    4    4    0    0 -0.39426346633E+02 -0.54934618921E+02 -0.68568482075E+01  0.67965178821E+02  0.00000000000E+00 0.  1.
         13    1    4    4    0    0 -0.60640016593E+02  0.29525064917E+02 -0.25350259389E+02  0.72052596913E+02  0.00000000000E+00 0. -1.
        -13    1    3    3    0    0  0.13146670337E+03  0.93474689946E+02 -0.13498068972E+03  0.21033496702E+03  0.00000000000E+00 0. -1.
         13    1    3    3    0    0  0.31209601414E+02 -0.21230778947E+02 -0.45682876613E+02  0.59259686219E+02  0.00000000000E+00 0.  1.
          2    1    1    2  501    0 -0.62609941556E+02 -0.46834356995E+02  0.63429795308E+02  0.10068168011E+03  0.00000000000E+00 0. -1.
<scales pt_clust_5="13000.00000" pt_clust_6="13000.00000" pt_clust_7="13000.00000" pt_clust_8="13000.00000" pt_clust_9="78.18863"></scales>
<clustering>
<clus scale="   78.189">  1  9  2 -1</clus>
<clus scale="   88.931">  5  6 -1 -1</clus>
<clus scale="   91.429">  7  8 -1 -1</clus>
<clus scale="  169.039">  1  5  2 -1</clus>
<clus scale="   78.189">  1  5  2 -1</clus>
</clustering>
</event>
<event>
 9    1  0.1636528E-005  0.1877260E+03  0.7546771E-02  0.1185904E+00
         21   -1    0    0  501  502  0.00000000000E+00  0.00000000000E+00  0.13013014467E+03  0.13013014467E+03  0.00000000000E+00 0.  1.
         -2   -1    0    0    0  501 -0.00000000000E+00 -0.00000000000E+00 -0.10614674984E+04  0.10614674984E+04  0.00000000000E+00 0.  1.
         23    2    1    2    0    0  0.44890006279E+02  0.26108478757E+02 -0.85313763428E+02  0.13559826647E+03  0.91715245803E+02 0.  0.
         23    2    1    2    0    0 -0.21216994663E+03 -0.65737077164E+02 -0.85313030669E+03  0.88394267180E+03  0.64698355978E+02 0.  0.
        -11    1    3    3    0    0  0.68467155839E+02  0.38684889739E+02 -0.62146265198E+02  0.10023188316E+03  0.00000000000E+00 0.  1.
         11    1    3    3    0    0 -0.23577149560E+02 -0.12576410981E+02 -0.23167498231E+02  0.35366383315E+02  0.00000000000E+00 0. -1.
        -11    1    4    4    0    0 -0.88952237903E+02 -0.43233591955E+02 -0.48812610453E+03  0.49804491567E+03  0.00000000000E+00 0.  1.
         11    1    4    4    0    0 -0.12321770873E+03 -0.22503485209E+02 -0.36500420216E+03  0.38589775613E+03  0.00000000000E+00 0. -1.
         -2    1    1    2    0  502  0.16727994035E+03  0.39628598406E+02  0.71067163635E+01  0.17205670482E+03  0.00000000000E+00 0.  1.
<scales pt_clust_5="13000.00000" pt_clust_6="13000.00000" pt_clust_7="13000.00000" pt_clust_8="13000.00000" pt_clust_9="176.22483"></scales>
<clustering>
<clus scale="   64.698">  7  8 -1 -1</clus>
<clus scale="   91.715">  5  6 -1 -1</clus>
<clus scale="  105.397">  2  5  1 -1</clus>
<clus scale="  176.225">  1  9  2 -1</clus>
<clus scale="  176.225">  1  5  2 -1</clus>
</clustering>
</event>
<event>
 9    1  0.1636528E-005  0.1643507E+03  0.7546771E-02  0.1184055E+00
          3   -1    0    0  502    0 -0.00000000000E+00  0.00000000000E+00  0.56967837644E+02  0.56967837644E+02  0.00000000000E+00 0. -1.
         21   -1    0    0  501  502  0.00000000000E+00 -0.00000000000E+00 -0.87401893118E+03  0.87401893118E+03  0.00000000000E+00 0.  1.
         23    2    1    2    0    0  0.14512144276E+03 -0.42418460311E+02 -0.14245565361E+03  0.22594418471E+03  0.88868455780E+02 0.  0.
         23    2    1    2    0    0 -0.10878264565E+03  0.18983156186E+02 -0.35510094797E+03  0.38263530745E+03  0.90105887980E+02 0.  0.
        -11    1    4    4    0    0 -0.48918191726E+02  0.39304214008E+02 -0.26652403209E+03  0.27381174263E+03  0.00000000000E+00 0.  1.
         11    1    4    4    0    0 -0.59864453920E+02 -0.20321057822E+02 -0.88576915877E+02  0.10882356482E+03  0.00000000000E+00 0. -1.
        -11    1    3    3    0    0  0.29568631546E+02  0.26549490833E+02 -0.43422086737E+02  0.58861337494E+02  0.00000000000E+00 0.  1.
         11    1    3    3    0    0  0.11555281122E+03 -0.68967951145E+02 -0.99033566875E+02  0.16708284721E+03  0.00000000000E+00 0. -1.
          3    1    1    2  501    0 -0.36338797116E+02  0.23435304125E+02 -0.31949449195E+03  0.32240727666E+03  0.00000000000E+00 0. -1.
<scales pt_clust_5="13000.00000" pt_clust_6="13000.00000" pt_clust_7="13000.00000" pt_clust_8="13000.00000" pt_clust_9="43.24028"></scales>
<clustering>
<clus scale="   43.240">  2  9  1 -1</clus>
<clus scale="   88.868">  7  8 -1 -1</clus>
<clus scale="   90.106">  5  6 -1 -1</clus>
<clus scale="  163.676">  1  7  2 -1</clus>
<clus scale="   43.240">  2  5  1 -1</clus>
</clustering>
</event>
<event>
 9    1  0.1636528E-005  0.1366894E+03  0.7546771E-02  0.1219308E+00
         21   -1    0    0  501  502  0.00000000000E+00  0.00000000000E+00  0.41490019113E+03  0.41490019113E+03  0.00000000000E+00 0.  1.
          4   -1    0    0  502    0 -0.00000000000E+00 -0.00000000000E+00 -0.62765930436E+02  0.62765930436E+02  0.00000000000E+00 0. -1.
         23    2    1    2    0    0  0.60482070070E+02 -0.61267397429E+02  0.82313826505E+02  0.15127839800E+03  0.93262065601E+02 0.  0.
         23    2    1    2    0    0 -0.75531133720E+02  0.84435347492E+02  0.25202379379E+03  0.29352515159E+03  0.99028995324E+02 0.  0.
        -11    1    4    4    0    0 -0.76396871793E+02  0.10462827517E+03  0.20739065929E+03  0.24452902393E+03  0.00000000000E+00 0.  1.
         11    1    4    4    0    0  0.86573807317E+00 -0.20192927677E+02  0.44633134499E+02  0.48996127661E+02  0.00000000000E+00 0. -1.
        -13    1    3    3    0    0 -0.43210314059E+01 -0.52550276024E+02  0.64886627251E+02  0.83609073782E+02  0.00000000000E+00 0.  1.
         13    1    3    3    0    0  0.64803101476E+02 -0.87171214052E+01  0.17427199255E+02  0.67669324220E+02  0.00000000000E+00 0. -1.
          4    1    1    2  501    0  0.15049063650E+02 -0.23167950063E+02  0.17796640395E+02  0.32862571965E+02  0.00000000000E+00 0. -1.
<scales pt_clust_5="13000.00000" pt_clust_6="13000.00000" pt_clust_7="13000.00000" pt_clust_8="13000.00000" pt_clust_9="27.62660"></scales>
<clustering>
<clus scale="   27.627">  1  9  2 -1</clus>
<clus scale="   93.262">  7  8 -1 -1</clus>
<clus scale="   99.029">  5  6 -1 -1</clus>
<clus scale="  132.571">  2  7  1 -1</clus>
<clus scale="   27.627">  1  5  2 -1</clus>
</clustering>
</event>
<event>
 9    1  0.1636528E-005  0.2415949E+03  0.7546771E-02  0.1118998E+00
         21   -1    0    0  501  502  0.00000000000E+00  0.00000000000E+00  0.71158154469E+02  0.71158154469E+02  0.00000000000E+00 0.  1.
          2   -1    0    0  502    0 -0.00000000000E+00 -0.00000000000E+00 -0.19690955699E+04  0.19690955699E+04  0.00000000000E+00 0. -1.
         23    2    1    2    0    0 -0.19749190157E+02 -0.24711895991E+03 -0.11794618554E+04  0.12086018615E+04  0.90168622512E+02 0.  0.
         23    2    1    2    0    0  0.16614045457E+03  0.13878055520E+03 -0.42754935148E+03  0.48842355536E+03  0.94320879616E+02 0.  0.
        -11    1    3    3    0    0 -0.55092398632E+02 -0.17031204944E+03 -0.82506188637E+03  0.84425617138E+03  0.00000000000E+00 0. -1.
         11    1    3    3    0    0  0.35343208475E+02 -0.76806910463E+02 -0.35439996902E+03  0.36434569014E+03  0.00000000000E+00 0.  1.
        -13    1    4    4    0    0  0.61386068765E+02  0.20804870270E+02 -0.20939285542E+03  0.21919502724E+03  0.00000000000E+00 0. -1.
         13    1    4    4    0    0  0.10475438581E+03  0.11797568493E+03 -0.21815649606E+03  0.26922852812E+03  0.00000000000E+00 0.  1.
          2    1    1    2  501    0 -0.14639126442E+03  0.10833840471E+03 -0.29092620852E+03  0.34322830745E+03  0.00000000000E+00 0. -1.
<scales pt_clust_5="13000.00000" pt_clust_6="13000.00000" pt_clust_7="13000.00000" pt_clust_8="13000.00000" pt_clust_9="182.11977"></scales>
<clustering>
<clus scale="   90.169">  5  6 -1 -1</clus>
<clus scale="   94.321">  7  8 -1 -1</clus>
<clus scale="  182.120">  1  9  2 -1</clus>
<clus scale="  240.004">  2  5  1 -1</clus>
<clus scale="  182.120">  1  5  2 -1</clus>
</clustering>
</event>
<event>
 9    1  0.1636528E-005  0.9704936E+02  0.7546771E-02  0.1289505E+00
          1   -1    0    0  502    0 -0.00000000000E+00  0.00000000000E+00  0.21416673655E+03  0.21416673655E+03  0.00000000000E+00 0. -1.
         21   -1    0    0  501  502  0.00000000000E+00 -0.00000000000E+00 -0.24066745363E+03  0.24066745363E+03  0.00000000000E+00 0. -1.
         23    2    1    2    0    0  0.26436005957E+02 -0.14874689201E+02  0.15663898202E+03  0.18110432822E+03  0.85690654227E+02 0.  0.
         23    2    1    2    0    0 -0.51901546297E+02  0.43618448516E+01 -0.18253896589E+02  0.10655826894E+03  0.91151871844E+02 0.  0.
        -11    1    4    4    0    0  0.17962634873E+02  0.16862672430E+02  0.14286954032E+02  0.28480221708E+02  0.00000000000E+00 0. -1.
         11    1    4    4    0    0 -0.69864181170E+02 -0.12500827578E+02 -0.32540850621E+02  0.78078047234E+02  0.00000000000E+00 0.  1.
        -13    1    3    3    0    0 -0.16802747841E+02 -0.29344924186E+02  0.11314801053E+03  0.11809288377E+03  0.00000000000E+00 0.  1.
         13    1    3    3    0    0  0.43238753799E+02  0.14470234985E+02  0.43490971498E+02  0.63011444456E+02  0.00000000000E+00 0. -1.
          1    1    1    2  501    0  0.25465540340E+02  0.10512844349E+02 -0.16488580251E+03  0.16717159301E+03  0.00000000000E+00 0. -1.
<scales pt_clust_5="13000.00000" pt_clust_6="13000.00000" pt_clust_7="13000.00000" pt_clust_8="13000.00000" pt_clust_9="27.55020"></scales>
<clustering>
<clus scale="   27.550">  2  9  1 -1</clus>
<clus scale="   85.691">  7  8 -1 -1</clus>
<clus scale="   91.152">  5  6 -1 -1</clus>
<clus scale="   91.939">  1  7  2 -1</clus>
<clus scale="   27.550">  2  5  1 -1</clus>
</clustering>
</event>
<event>
 9    1  0.1636528E-005  0.9427746E+02  0.7546771E-02  0.1294187E+00
         -3   -1    0    0    0  501 -0.00000000000E+00  0.00000000000E+00  0.20149853977E+03  0.20149853977E+03  0.00000000000E+00 0.  1.
         21   -1    0    0  501  502  0.00000000000E+00 -0.00000000000E+00 -0.69848013647E+02  0.69848013647E+02  0.00000000000E+00 0. -1.
         23    2    1    2    0    0 -0.29499067502E+02 -0.93887675654E+01  0.11099244613E+03  0.14702944412E+03  0.91323547896E+02 0.  0.
         23    2    1    2    0    0  0.67351903091E+01  0.11799014085E+02  0.35921130595E+02  0.96804128601E+02  0.88860183261E+02 0.  0.
        -13    1    3    3    0    0 -0.20782116116E+02  0.32009518242E+02  0.93975392760E+02  0.10142918738E+03  0.00000000000E+00 0.  1.
         13    1    3    3    0    0 -0.87169513857E+01 -0.41398285808E+02  0.17017053373E+02  0.45600256740E+02  0.00000000000E+00 0. -1.
        -13    1    4    4    0    0  0.11314683135E+01 -0.25831842033E+02 -0.17498410186E+02  0.31221124938E+02  0.00000000000E+00 0.  1.
         13    1    4    4    0    0  0.56037219957E+01  0.37630856117E+02  0.53419540781E+02  0.65583003664E+02  0.00000000000E+00 0. -1.
         -3    1    1    2    0  502  0.22763877193E+02 -0.24102465191E+01 -0.15263050602E+02  0.27512980697E+02  0.00000000000E+00 0.  1.
<scales pt_clust_5="13000.00000" pt_clust_6="13000.00000" pt_clust_7="13000.00000" pt_clust_8="13000.00000" pt_clust_9="22.89112"></scales>
<clustering>
<clus scale="   22.891">  2  9  1 -1</clus>
<clus scale="   88.860">  7  8 -1 -1</clus>
<clus scale="   91.324">  5  6 -1 -1</clus>
<clus scale="   91.893">  2  7  1 -1</clus>
<clus scale="   22.891">  2  5  1 -1</clus>
</clustering>
</event>
<event>
 9    1  0.1636528E-005  0.1115499E+03  0.7546771E-02  0.1261767E+00
         21   -1    0    0  501  502  0.00000000000E+00  0.00000000000E+00  0.26662003657E+03  0.26662003657E+03  0.00000000000E+00 0. -1.
          2   -1    0    0  502    0 -0.00000000000E+00 -0.00000000000E+00 -0.15383506647E+03  0.15383506647E+03  0.00000000000E+00 0. -1.
         23    2    1    2    0    0  0.52547924520E+02 -0.10941810027E+02 -0.99861602706E+02  0.14556034968E+03  0.91293308225E+02 0.  0.
         23    2    1    2    0    0 -0.22997338263E+02 -0.32707134263E+02  0.88344324718E+02  0.13987802711E+03  0.10080926822E+03 0.  0.
        -13    1    3    3    0    0  0.61510522818E+02  0.23410222319E+02 -0.43303689311E+02  0.78783198934E+02  0.00000000000E+00 0. -1.
         13    1    3    3    0    0 -0.89625982977E+01 -0.34352032345E+02 -0.56557913394E+02  0.66777150748E+02  0.00000000000E+00 0.  1.
        -13    1    4    4    0    0  0.41864902707E+01  0.28861579082E+02  0.43939116114E+00  0.29166942117E+02  0.00000000000E+00 0.  1.
         13    1    4    4    0    0 -0.27183828534E+02 -0.61568713344E+02  0.87904933556E+02  0.11071108499E+03  0.00000000000E+00 0. -1.
          2    1    1    2  501    0 -0.29550586257E+02  0.43648944289E+02  0.12430224809E+03  0.13501672624E+03  0.00000000000E+00 0. -1.
<scales pt_clust_5="13000.00000" pt_clust_6="13000.00000" pt_clust_7="13000.00000" pt_clust_8="13000.00000" pt_clust_9="52.71117"></scales>
<clustering>
<clus scale="   52.711">  1  9  2 -1</clus>
<clus scale="   91.293">  5  6 -1 -1</clus>
<clus scale="  100.809">  7  8 -1 -1</clus>
<clus scale="  103.031">  2  5  1 -1</clus>
<clus scale="   52.711">  1  5  2 -1</clus>
</clustering>
</event>
<event>
 9    1  0.1636528E-005  0.9515482E+02  0.7546771E-02  0.1290910E+00
          4   -1    0    0  502    0 -0.00000000000E+00  0.00000000000E+00  0.17741198612E+03  0.17741198612E+03  0.00000000000E+00 0. -1.
         21   -1    0    0  501  502  0.00000000000E+00 -0.00000000000E+00 -0.69183019134E+02  0.69183019134E+02  0.00000000000E+00 0.  1.
         23    2    1    2    0    0  0.30383734034E+02  0.13116639553E+02  0.71016028762E+02  0.12104324198E+03  0.92265771337E+02 0.  0.
         23    2    1    2    0    0 -0.11957226776E+02 -0.16153238227E+01  0.43999969799E+02  0.10279478125E+03  0.92115064819E+02 0.  0.
        -13    1    4    4    0    0  0.28923091721E+02 -0.27567667762E+02  0.43167335843E+01  0.40189000104E+02  0.00000000000E+00 0. -1.
         13    1    4    4    0    0 -0.40880318497E+02  0.25952343939E+02  0.39683236215E+02  0.62605781146E+02  0.00000000000E+00 0.  1.
        -13    1    3    3    0    0 -0.17903710542E+02 -0.21572992210E+02  0.51198135199E+02  0.58371104940E+02  0.00000000000E+00 0. -1.
         13    1    3    3    0    0  0.48287444577E+02  0.34689631763E+02  0.19817893563E+02  0.62672137038E+02  0.00000000000E+00 0.  1.
          4    1    1    2  501    0 -0.18426507259E+02 -0.11501315730E+02 -0.67870315756E+01  0.22756982025E+02  0.00000000000E+00 0. -1.
<scales pt_clust_5="13000.00000" pt_clust_6="13000.00000" pt_clust_7="13000.00000" pt_clust_8="13000.00000" pt_clust_9="21.72134"></scales>
<clustering>
<clus scale="   21.721">  2  9  1 -1</clus>
<clus scale="   92.115">  5  6 -1 -1</clus>
<clus scale="   92.266">  7  8 -1 -1</clus>
<clus scale="   95.009">  2  5  1 -1</clus>
<clus scale="   21.721">  2  5  1 -1</clus>
</clustering>
</event>
<event>
 9    1  0.1636528E-005  0.9019138E+02  0.7546771E-02  0.1303053E+00
         21   -1    0    0  501  502  0.00000000000E+00  0.00000000000E+00  0.14869579879E+03  0.14869579879E+03  0.00000000000E+00 0.  1.
         -2   -1    0    0    0  501 -0.00000000000E+00 -0.00000000000E+00 -0.24547116043E+03  0.24547116043E+03  0.00000000000E+00 0.  1.
         23    2    1    2    0    0  0.71731105352E+01  0.98776085092E+01 -0.17563778198E+03  0.19770846060E+03  0.89949898658E+02 0.  0.
         23    2    1    2    0    0 -0.33158684192E+01  0.56250306800E+02  0.18477021905E+02  0.10682493436E+03  0.88854230422E+02 0.  0.
        -11    1    4    4    0    0 -0.10801387552E+02  0.76260118493E+02 -0.22561596725E+01  0.77054304890E+02  0.00000000000E+00 0.  1.
         11    1    4    4    0    0  0.74855191330E+01 -0.20009811693E+02  0.20733181577E+02  0.29770629469E+02  0.00000000000E+00 0. -1.
        -13    1    3    3    0    0 -0.93316821192E+01 -0.27269452460E+02 -0.15976085310E+02  0.32953582968E+02  0.00000000000E+00 0. -1.
         13    1    3    3    0    0  0.16504792654E+02  0.37147060969E+02 -0.15966169667E+03  0.16475487763E+03  0.00000000000E+00 0.  1.
         -2    1    1    2    0  502 -0.38572421160E+01 -0.66127915309E+02  0.60385398427E+02  0.89633564266E+02  0.00000000000E+00 0.  1.
<scales pt_clust_5="13000.00000" pt_clust_6="13000.00000" pt_clust_7="13000.00000" pt_clust_8="13000.00000" pt_clust_9="66.24032"></scales>
<clustering>
<clus scale="   66.240">  1  9  2 -1</clus>
<clus scale="   88.854">  5  6 -1 -1</clus>
<clus scale="   89.099">  1  5  2 -1</clus>
<clus scale="   89.950">  7  8 -1 -1</clus>
<clus scale="   66.240">  1  5  2 -1</clus>
</clustering>
</event>
<event>
 9    1  0.1636528E-005  0.1479483E+03  0.7546771E-02  0.1203370E+00
         21   -1    0    0  501  502  0.00000000000E+00  0.00000000000E+00  0.61900963620E+02  0.61900963620E+02  0.00000000000E+00 0.  1.
          1   -1    0    0  502    0 -0.00000000000E+00 -0.00000000000E+00 -0.95593315703E+03  0.95593315703E+03  0.00000000000E+00 0. -1.
         23    2    1    2    0    0 -0.47396806395E+00  0.99367445578E+02 -0.55370077849E+03  0.57012342734E+03  0.92639389116E+02 0.  0.
         23    2    1    2    0    0 -0.28943621907E+02 -0.16719221175E+03 -0.31578241695E+03  0.36981174077E+03  0.90836225330E+02 0.  0.
        -11    1    4    4    0    0  0.25593831911E+02 -0.24701784813E+02 -0.95004358246E+02  0.10144481500E+03  0.00000000000E+00 0. -1.
         11    1    4    4    0    0 -0.54537453818E+02 -0.14249042694E+03 -0.22077805871E+03  0.26836692577E+03  0.00000000000E+00 0.  1.
        -11    1    3    3    0    0  0.31979507624E+02  0.21232053376E+02 -0.77733112873E+02  0.86694439472E+02  0.00000000000E+00 0.  1.
         11    1    3    3    0    0 -0.32453475688E+02  0.78135392202E+02 -0.47596766562E+03  0.48342898787E+03  0.00000000000E+00 0. -1.
          1    1    1    2  501    0  0.29417589971E+02  0.67824766177E+02 -0.24548997972E+02  0.77898952548E+02  0.00000000000E+00 0. -1.
<scales pt_clust_5="13000.00000" pt_clust_6="13000.00000" pt_clust_7="13000.00000" pt_clust_8="13000.00000" pt_clust_9="73.92965"></scales>
<clustering>
<clus scale="   73.930">  1  9  2 -1</clus>
<clus scale="   90.836">  5  6 -1 -1</clus>
<clus scale="   92.639">  7  8 -1 -1</clus>
<clus scale="  146.826">  1  5  2 -1</clus>
<clus scale="   73.930">  1  5  2 -1</clus>
</clustering>
</event>
<event>
 9    1  0.1636528E-005  0.1024981E+03  0.7546771E-02  0.1275472E+00
         21   -1    0    0  501  502  0.00000000000E+00  0.00000000000E+00  0.14867390883E+03  0.14867390883E+03  0.00000000000E+00 0.  1.
         -4   -1    0    0    0  501 -0.00000000000E+00 -0.00000000000E+00 -0.20710712832E+03  0.20710712832E+03  0.00000000000E+00 0.  1.
         23    2    1    2    0    0 -0.45394818600E+02  0.80813429273E+01 -0.66522856538E+02  0.12179251135E+03  0.91006196049E+02 0.  0.
         23    2    1    2    0    0  0.35050906238E+02  0.53519178946E+02 -0.71542565702E+02  0.13278127046E+03  0.91758697317E+02 0.  0.
        -11    1    3    3    0    0  0.23224486093E+02 -0.87708106430E+01 -0.11539172205E+00  0.24825736421E+02  0.00000000000E+00 0. -1.
         11    1    3    3    0    0 -0.68619304693E+02  0.16852153570E+02 -0.66407464816E+02  0.96966774927E+02  0.00000000000E+00 0.  1.
        -13    1    4    4    0    0  0.99176338367E+01 -0.26050018707E+02 -0.23747230061E+02  0.36618217749E+02  0.00000000000E+00 0. -1.
         13    1    4    4    0    0  0.25133272401E+02  0.79569197653E+02 -0.47795335641E+02  0.96163052706E+02  0.00000000000E+00 0.  1.
         -4    1    1    2    0  502  0.10343912362E+02 -0.61600521873E+02  0.79632202751E+02  0.10120725534E+03  0.00000000000E+00 0.  1.
<scales pt_clust_5="13000.00000" pt_clust_6="13000.00000" pt_clust_7="13000.00000" pt_clust_8="13000.00000" pt_clust_9="62.46296"></scales>
<clustering>
<clus scale="   62.463">  1  9  2 -1</clus>
<clus scale="   91.006">  5  6 -1 -1</clus>
<clus scale="   91.759">  7  8 -1 -1</clus>
<clus scale="  101.825">  2  5  1 -1</clus>
<clus scale="   62.463">  1  5  2 -1</clus>
</clustering>
</event>
<event>
 9    1  0.1636528E-005  0.1525329E+03  0.7546771E-02  0.1197450E+00
          1   -1    0    0  502    0 -0.00000000000E+00  0.00000000000E+00  0.48050128300E+03  0.48050128300E+03  0.00000000000E+00 0. -1.
         21   -1    0    0  501  502  0.00000000000E+00 -0.00000000000E+00 -0.94548253508E+02  0.94548253508E+02  0.00000000000E+00 0. -1.
         23    2    1    2    0    0 -0.10451680549E+03 -0.66365848115E+02  0.32595821061E+03  0.36058380674E+03  0.91889815505E+02 0.  0.
         23    2    1    2    0    0  0.85323972006E+02  0.82146004557E+02  0.90637142929E+02  0.17501537848E+03  0.91581355973E+02 0.  0.
        -13    1    4    4    0    0 -0.81308994086E+01  0.49506075770E+02  0.37726186970E+02  0.62771237416E+02  0.00000000000E+00 0.  1.
         13    1    4    4    0    0  0.93454871415E+02  0.32639928786E+02  0.52910955958E+02  0.11224414106E+03  0.00000000000E+00 0. -1.
        -13    1    3    3    0    0 -0.11311012147E+03 -0.30895776077E+02  0.23662341910E+03  0.26408159918E+03  0.00000000000E+00 0. -1.
         13    1    3    3    0    0  0.85933159829E+01 -0.35470072038E+02  0.89334791506E+02  0.96502207557E+02  0.00000000000E+00 0.  1.
          1    1    1    2  501    0  0.19192833480E+02 -0.15780156442E+02 -0.30642324044E+02  0.39450351293E+02  0.00000000000E+00 0. -1.
<scales pt_clust_5="13000.00000" pt_clust_6="13000.00000" pt_clust_7="13000.00000" pt_clust_8="13000.00000" pt_clust_9="24.84710"></scales>
<clustering>
<clus scale="   24.847">  2  9  1 -1</clus>
<clus scale="   91.581">  5  6 -1 -1</clus>
<clus scale="   91.890">  7  8 -1 -1</clus>
<clus scale="  152.347">  2  5  1 -1</clus>
<clus scale="   24.847">  2  5  1 -1</clus>
</clustering>
</event>
<event>
 9    1  0.1636528E-005  0.9475107E+02  0.7546771E-02  0.1292857E+00
         21   -1    0    0  501  502  0.00000000000E+00  0.00000000000E+00  0.65181412038E+02  0.65181412038E+02  0.00000000000E+00 0.  1.
          2   -1    0    0  502    0 -0.00000000000E+00 -0.00000000000E+00 -0.41865642215E+03  0.41865642215E+03  0.00000000000E+00 0. -1.
         23    2    1    2    0    0 -0.18813169593E+02 -0.77973751347E+01 -0.24673552578E+03  0.26427459539E+03  0.92454895359E+02 0.  0.
         23    2    1    2    0    0 -0.11475022600E+02 -0.17799299111E+02 -0.13836224380E+03  0.16884279682E+03  0.94420804570E+02 0.  0.
        -11    1    4    4    0    0  0.33627748266E+02 -0.77218132569E+01 -0.10841599143E+03  0.11377380652E+03  0.00000000000E+00 0.  1.
         11    1    4    4    0    0 -0.45102770867E+02 -0.10077485854E+02 -0.29946252370E+02  0.55068990294E+02  0.00000000000E+00 0. -1.
        -13    1    3    3    0    0 -0.28975014072E+02  0.28123359544E+02 -0.20206164220E+03  0.20605674471E+03  0.00000000000E+00 0. -1.
         13    1    3    3    0    0  0.10161844480E+02 -0.35920734679E+02 -0.44673883577E+02  0.58217850673E+02  0.00000000000E+00 0.  1.
          2    1    1    2  501    0  0.30288192193E+02  0.25596674246E+02  0.31622759466E+02  0.50720441983E+02  0.00000000000E+00 0. -1.
<scales pt_clust_5="13000.00000" pt_clust_6="13000.00000" pt_clust_7="13000.00000" pt_clust_8="13000.00000" pt_clust_9="39.65557"></scales>
<clustering>
<clus scale="   39.656">  1  9  2 -1</clus>
<clus scale="   92.455">  7  8 -1 -1</clus>
<clus scale="   92.792">  2  7  1 -1</clus>
<clus scale="   94.421">  5  6 -1 -1</clus>
<clus scale="   39.656">  1  5  2 -1</clus>
</clustering>
</event>
<event>
 9    1  0.1636528E-005  0.1261123E+03  0.7546771E-02  0.1233763E+00
         21   -1    0    0  501  502  0.00000000000E+00  0.00000000000E+00  0.63067966124E+02  0.63067966124E+02  0.00000000000E+00 0.  1.
          2   -1    0    0  502    0 -0.00000000000E+00 -0.00000000000E+00 -0.38000961514E+03  0.38000961514E+03  0.00000000000E+00 0. -1.
         23    2    1    2    0    0 -0.35474837618E+02 -0.77254606201E+02 -0.15024988025E+03  0.19509330656E+03  0.90882525625E+02 0.  0.
         23    2    1    2    0    0 -0.10758089158E+02  0.97190218132E+02 -0.13071730048E+03  0.18610475863E+03  0.89366064917E+02 0.  0.
        -11    1    4    4    0    0 -0.42429335992E+02  0.85246499279E+02 -0.76304151696E+02  0.12202269362E+03  0.00000000000E+00 0.  1.
         11    1    4    4    0    0  0.31671246834E+02  0.11943718852E+02 -0.54413148781E+02  0.64082065013E+02  0.00000000000E+00 0. -1.
        -13    1    3    3    0    0 -0.53254871400E+02 -0.12550992432E+02 -0.47961228907E+02  0.72759110887E+02  0.00000000000E+00 0.  1.
         13    1    3    3    0    0  0.17780033781E+02 -0.64703613768E+02 -0.10228865135E+03  0.12233419567E+03  0.00000000000E+00 0. -1.
          2    1    1    2  501    0  0.46232926776E+02 -0.19935611931E+02 -0.35974468289E+02  0.61879516078E+02  0.00000000000E+00 0. -1.
<scales pt_clust_5="13000.00000" pt_clust_6="13000.00000" pt_clust_7="13000.00000" pt_clust_8="13000.00000" pt_clust_9="50.34791"></scales>
<clustering>
<clus scale="   50.348">  1  9  2 -1</clus>
<clus scale="   89.366">  5  6 -1 -1</clus>
<clus scale="   90.883">  7  8 -1 -1</clus>
<clus scale="  125.024">  1  5  2 -1</clus>
<clus scale="   50.348">  1  5  2 -1</clus>
</clustering>
</event>
<event>
 9    1  0.1636528E-005  0.2440690E+03  0.7546771E-02  0.1119334E+00
          2   -1    0    0  502    0 -0.00000000000E+00  0.00000000000E+00  0.15100441205E+04  0.15100441205E+04  0.00000000000E+00 0. -1.
         21   -1    0    0  501  502  0.00000000000E+00 -0.00000000000E+00 -0.12739858071E+03  0.12739858071E+03  0.00000000000E+00 0. -1.
         23    2    1    2    0    0 -0.18426418665E+03 -0.10802807574E+03  0.11503444804E+04  0.11736093555E+04  0.91886560423E+02 0.  0.
         23    2    1    2    0    0  0.21001337638E+03  0.41395477630E+02  0.28391111664E+03  0.37570547319E+03  0.12136670304E+03 0.  0.
        -13    1    3    3    0    0 -0.73942043112E+02 -0.96484764385E+02  0.61207720150E+03  0.62403143839E+03  0.00000000000E+00 0.  1.
         13    1    3    3    0    0 -0.11032214354E+03 -0.11543311359E+02  0.53826727891E+03  0.54957791708E+03  0.00000000000E+00 0. -1.
        -13    1    4    4    0    0  0.56064226819E+02 -0.42528419806E+02  0.72309115225E+02  0.10089832588E+03  0.00000000000E+00 0. -1.
         13    1    4    4    0    0  0.15394914956E+03  0.83923897436E+02  0.21160200142E+03  0.27480714732E+03  0.00000000000E+00 0.  1.
          2    1    1    2  501    0 -0.25749189732E+02  0.66632598114E+02 -0.51610057284E+02  0.88127872527E+02  0.00000000000E+00 0. -1.
<scales pt_clust_5="13000.00000" pt_clust_6="13000.00000" pt_clust_7="13000.00000" pt_clust_8="13000.00000" pt_clust_9="71.43475"></scales>
<clustering>
<clus scale="   71.435">  2  9  1 -1</clus>
<clus scale="   91.887">  5  6 -1 -1</clus>
<clus scale="  121.367">  7  8 -1 -1</clus>
<clus scale="  230.831">  1  5  2 -1</clus>
<clus scale="   71.435">  2  5  1 -1</clus>
</clustering>
</event>
<event>
 9    1  0.1636528E-005  0.1326365E+03  0.7546771E-02  0.1223675E+00
          1   -1    0    0  502    0 -0.00000000000E+00  0.00000000000E+00  0.64145242643E+03  0.64145242643E+03  0.00000000000E+00 0. -1.
         21   -1    0    0  501  502  0.00000000000E+00 -0.00000000000E+00 -0.54438815409E+02  0.54438815409E+02  0.00000000000E+00 0. -1.
         23    2    1    2    0    0  0.45173870544E+02 -0.92490982796E+02  0.38947635762E+03  0.41273036370E+03  0.89773378548E+02 0.  0.
         23    2    1    2    0    0  0.15992518332E+02  0.98308650588E+02  0.16849420003E+03  0.21520007079E+03  0.89445087079E+02 0.  0.
        -11    1    3    3    0    0  0.28547144561E+02  0.30025604468E+01  0.35131518929E+02  0.45367151707E+02  0.00000000000E+00 0.  1.
         11    1    3    3    0    0  0.16626725983E+02 -0.95493543242E+02  0.35434483869E+03  0.36736321199E+03  0.00000000000E+00 0. -1.
        -13    1    4    4    0    0  0.26272805200E+02  0.76556579276E+02  0.17274640789E+03  0.19076816182E+03  0.00000000000E+00 0. -1.
         13    1    4    4    0    0 -0.10280286868E+02  0.21752071311E+02 -0.42522078634E+01  0.24431908974E+02  0.00000000000E+00 0.  1.
          1    1    1    2  501    0 -0.61166388876E+02 -0.58176677920E+01  0.29043053380E+02  0.67960807355E+02  0.00000000000E+00 0. -1.
<scales pt_clust_5="13000.00000" pt_clust_6="13000.00000" pt_clust_7="13000.00000" pt_clust_8="13000.00000" pt_clust_9="61.44243"></scales>
<clustering>
<clus scale="   61.442">  2  9  1 -1</clus>
<clus scale="   89.445">  7  8 -1 -1</clus>
<clus scale="   89.773">  5  6 -1 -1</clus>
<clus scale="  132.415">  2  7  1 -1</clus>
<clus scale="   61.442">  2  5  1 -1</clus>
</clustering>
</event>
<event>
 9    1  0.1636528E-005  0.9656962E+02  0.7546771E-02  0.1288175E+00
         21   -1    0    0  501  502  0.00000000000E+00  0.00000000000E+00  0.31392269019E+02  0.31392269019E+02  0.00000000000E+00 0. -1.
         -2   -1    0    0    0  501 -0.00000000000E+00 -0.00000000000E+00 -0.42574185951E+03  0.42574185951E+03  0.00000000000E+00 0.  1.
         23    2    1    2    0    0 -0.10038897114E+02 -0.15001023055E+02 -0.17193400296E+03  0.19511396225E+03  0.90456325047E+02 0.  0.
         23    2    1    2    0    0  0.37174367078E+02  0.26933103272E+02 -0.20074667768E+03  0.22530164340E+03  0.91401730290E+02 0.  0.
        -11    1    4    4    0    0  0.15895423830E+02 -0.24753161679E+02 -0.13872352524E+03  0.14180832122E+03  0.00000000000E+00 0.  1.
         11    1    4    4    0    0  0.21278943248E+02  0.51686264951E+02 -0.62023152437E+02  0.83493322179E+02  0.00000000000E+00 0. -1.
        -11    1    3    3    0    0 -0.41011228594E+01 -0.49282352049E+02 -0.13767058170E+03  0.14628314496E+03  0.00000000000E+00 0.  1.
         11    1    3    3    0    0 -0.59377742545E+01  0.34281328994E+02 -0.34263421258E+02  0.48830817288E+02  0.00000000000E+00 0. -1.
         -2    1    1    2    0  502 -0.27135469964E+02 -0.11932080217E+02 -0.21668909847E+02  0.36718522879E+02  0.00000000000E+00 0.  1.
<scales pt_clust_5="13000.00000" pt_clust_6="13000.00000" pt_clust_7="13000.00000" pt_clust_8="13000.00000" pt_clust_9="29.64301"></scales>
<clustering>
<clus scale="   29.643">  1  9  2 -1</clus>
<clus scale="   90.456">  7  8 -1 -1</clus>
<clus scale="   91.402">  5  6 -1 -1</clus>
<clus scale="   95.675">  2  7  1 -1</clus>
<clus scale="   29.643">  1  5  2 -1</clus>
</clustering>
</event>
<event>
 9    1  0.1636528E-005  0.9961649E+02  0.7546771E-02  0.1281566E+00
         21   -1    0    0  501  502  0.00000000000E+00  0.00000000000E+00  0.14140495854E+03  0.14140495854E+03  0.00000000000E+00 0.  1.
          2   -1    0    0  502    0 -0.00000000000E+00 -0.00000000000E+00 -0.27810473891E+03  0.27810473891E+03  0.00000000000E+00 0. -1.
         23    2    1    2    0    0  0.36719939609E+02 -0.12542979769E+02 -0.22310649589E+03  0.24459773418E+03  0.92443835678E+02 0.  0.
         23    2    1    2    0    0 -0.69148803700E+01  0.47480003463E+02  0.43648583593E+02  0.11216489141E+03  0.91507364273E+02 0.  0.
        -13    1    3    3    0    0  0.34808270052E+02  0.26348937889E+02 -0.18512389337E+03  0.19020183513E+03  0.00000000000E+00 0.  1.
         13    1    3    3    0    0  0.19116695568E+01 -0.38891917658E+02 -0.37982602520E+02  0.54395899054E+02  0.00000000000E+00 0. -1.
        -13    1    4    4    0    0 -0.33270949628E+02  0.31082355145E+02 -0.13189679011E+02  0.47402916819E+02  0.00000000000E+00 0. -1.
         13    1    4    4    0    0  0.26356069258E+02  0.16397648317E+02  0.56838262605E+02  0.64761974592E+02  0.00000000000E+00 0.  1.
          2    1    1    2  501    0 -0.29805059239E+02 -0.34937023693E+02  0.42758131920E+02  0.62747071852E+02  0.00000000000E+00 0. -1.
<scales pt_clust_5="13000.00000" pt_clust_6="13000.00000" pt_clust_7="13000.00000" pt_clust_8="13000.00000" pt_clust_9="45.92317"></scales>
<clustering>
<clus scale="   45.923">  1  9  2 -1</clus>
<clus scale="   91.507">  7  8 -1 -1</clus>
<clus scale="   92.444">  5  6 -1 -1</clus>
<clus scale="   98.748">  1  7  2 -1</clus>
<clus scale="   45.923">  1  5  2 -1</clus>
</clustering>
</event>
<event>
 9    1  0.1636528E-005  0.2087233E+03  0.7546771E-02  0.1142781E+00
          1   -1    0    0  502    0 -0.00000000000E+00  0.00000000000E+00  0.87754422906E+03  0.87754422906E+03  0.00000000000E+00 0. -1.
         21   -1    0    0  501  502  0.00000000000E+00 -0.00000000000E+00 -0.81235625257E+02  0.81235625257E+02  0.00000000000E+00 0.  1.
         23    2    1    2    0    0 -0.14128779335E+03  0.12223195625E+03  0.62046058059E+03  0.65438724041E+03  0.91369779824E+02 0.  0.
         23    2    1    2    0    0  0.11752629867E+03 -0.14683905476E+03  0.16871489615E+03  0.26944981167E+03  0.93618085561E+02 0.  0.
        -11    1    3    3    0    0 -0.67830767119E+02  0.15672291871E+02  0.31566916068E+03  0.32325477987E+03  0.00000000000E+00 0. -1.
         11    1    3    3    0    0 -0.73457026235E+02  0.10655966438E+03  0.30479141991E+03  0.33113246054E+03  0.00000000000E+00 0.  1.
        -11    1    4    4    0    0  0.41519972193E+02 -0.58710882235E+01  0.69149296844E+02  0.80870285160E+02  0.00000000000E+00 0.  1.
         11    1    4    4    0    0  0.76006326474E+02 -0.14096796653E+03  0.99565599309E+02  0.18857952651E+03  0.00000000000E+00 0. -1.
          1    1    1    2  501    0  0.23761494687E+02  0.24607098502E+02  0.71331270558E+01  0.34942802236E+02  0.00000000000E+00 0. -1.
<scales pt_clust_5="13000.00000" pt_clust_6="13000.00000" pt_clust_7="13000.00000" pt_clust_8="13000.00000" pt_clust_9="34.20699"></scales>
<clustering>
<clus scale="   34.207">  2  9  1 -1</clus>
<clus scale="   91.370">  5  6 -1 -1</clus>
<clus scale="   93.618">  7  8 -1 -1</clus>
<clus scale="  207.725">  1  5  2 -1</clus>
<clus scale="   34.207">  2  5  1 -1</clus>
</clustering>
</event>
<event>
 9    1  0.1636528E-005  0.1026895E+03  0.7546771E-02  0.1276543E+00
         -1   -1    0    0    0  501 -0.00000000000E+00  0.00000000000E+00  0.45842965184E+03  0.45842965184E+03  0.00000000000E+00 0.  1.
         21   -1    0    0  501  502  0.00000000000E+00 -0.00000000000E+00 -0.69359995867E+02  0.69359995867E+02  0.00000000000E+00 0. -1.
         23    2    1    2    0    0 -0.40038673753E+02 -0.35336809144E+02  0.37540619030E+03  0.38874794508E+03  0.85693474773E+02 0.  0.
         23    2    1    2    0    0  0.36979187378E+02  0.59351811863E+01  0.34195370310E+02  0.10305038017E+03  0.89707139227E+02 0.  0.
        -11    1    3    3    0    0 -0.57034408604E+02 -0.12553232860E+02  0.33036979009E+03  0.33549173705E+03  0.00000000000E+00 0.  1.
         11    1    3    3    0    0  0.16995734851E+02 -0.22783576284E+02  0.45036400203E+02  0.53256208038E+02  0.00000000000E+00 0. -1.
        -13    1    4    4    0    0  0.23081741126E+01  0.44510507836E+02  0.22297793391E+02  0.49836779247E+02  0.00000000000E+00 0.  1.
         13    1    4    4    0    0  0.34671013265E+02 -0.38575326650E+02  0.11897576919E+02  0.53213600926E+02  0.00000000000E+00 0. -1.
         -1    1    1    2    0  502  0.30594863752E+01  0.29401627958E+02 -0.20531904636E+02  0.35991322446E+02  0.00000000000E+00 0.  1.
<scales pt_clust_5="13000.00000" pt_clust_6="13000.00000" pt_clust_7="13000.00000" pt_clust_8="13000.00000" pt_clust_9="29.56038"></scales>
<clustering>
<clus scale="   29.560">  2  9  1 -1</clus>
<clus scale="   85.693">  5  6 -1 -1</clus>
<clus scale="   89.707">  7  8 -1 -1</clus>
<clus scale="   99.202">  1  5  2 -1</clus>
<clus scale="   29.560">  2  5  1 -1</clus>
</clustering>
</event>
<event>
 9    1  0.1636528E-005  0.1105492E+03  0.7546771E-02  0.1262412E+00
          1   -1    0    0  502    0 -0.00000000000E+00  0.00000000000E+00  0.10936212423E+03  0.10936212423E+03  0.00000000000E+00 0. -1.
         21   -1    0    0  501  502  0.00000000000E+00 -0.00000000000E+00 -0.24552377286E+03  0.24552377286E+03  0.00000000000E+00 0.  1.
         23    2    1    2    0    0  0.43853669486E+02  0.27774763853E+02  0.38126607697E+02  0.11929967999E+03  0.10042008563E+03 0.  0.
         23    2    1    2    0    0 -0.23158321270E+02 -0.27014265637E+02 -0.54706508182E+02  0.11422448389E+03  0.93746212143E+02 0.  0.
        -13    1    4    4    0    0 -0.44940244689E+01 -0.56634040642E+02 -0.55197888473E+02  0.79211222105E+02  0.00000000000E+00 0.  1.
         13    1    4    4    0    0 -0.18664296802E+02  0.29619775006E+02  0.49138029146E+00  0.35013261788E+02  0.00000000000E+00 0. -1.
        -13    1    3    3    0    0  0.30955681410E+02 -0.20573431254E+02 -0.20318457928E+02  0.42359886894E+02  0.00000000000E+00 0.  1.
         13    1    3    3    0    0  0.12897988077E+02  0.48348195107E+02  0.58445065625E+02  0.76939793101E+02  0.00000000000E+00 0. -1.
          1    1    1    2  501    0 -0.20695348216E+02 -0.76049821604E+00 -0.11958174815E+03  0.12136173320E+03  0.00000000000E+00 0. -1.
<scales pt_clust_5="13000.00000" pt_clust_6="13000.00000" pt_clust_7="13000.00000" pt_clust_8="13000.00000" pt_clust_9="20.70932"></scales>
<clustering>
<clus scale="   20.709">  2  9  1 -1</clus>
<clus scale="   93.746">  5  6 -1 -1</clus>
<clus scale="  100.420">  7  8 -1 -1</clus>
<clus scale="  104.524">  2  5  1 -1</clus>
<clus scale="   20.709">  2  5  1 -1</clus>
</clustering>
</event>
<event>
 9    1  0.1636528E-005  0.1267702E+03  0.7546771E-02  0.1238273E+00
          2   -1    0    0  502    0 -0.00000000000E+00  0.00000000000E+00  0.81514614572E+02  0.81514614572E+02  0.00000000000E+00 0. -1.
         21   -1    0    0  501  502  0.00000000000E+00 -0.00000000000E+00 -0.28182092813E+03  0.28182092813E+03  0.00000000000E+00 0.  1.
         23    2    1    2    0    0  0.49424912451E+02 -0.33892423004E+02 -0.14869153289E+02  0.10973665895E+03  0.90716725521E+02 0.  0.
         23    2    1    2    0    0 -0.71938704675E+02  0.47549459525E+02 -0.17947192538E+03  0.22659944832E+03  0.10817120526E+03 0.  0.
        -13    1    4    4    0    0 -0.84852558044E+02 -0.16032625571E+00 -0.85710327085E+02  0.12060780439E+03  0.00000000000E+00 0.  1.
         13    1    4    4    0    0  0.12913853369E+02  0.47709785780E+02 -0.93761598291E+02  0.10599164393E+03  0.00000000000E+00 0. -1.
        -13    1    3    3    0    0  0.26503799809E+02 -0.11542705790E+01 -0.49950973771E+02  0.56558673301E+02  0.00000000000E+00 0.  1.
         13    1    3    3    0    0  0.22921112642E+02 -0.32738152425E+02  0.35081820482E+02  0.53177985645E+02  0.00000000000E+00 0. -1.
          2    1    1    2  501    0  0.22513792224E+02 -0.13657036521E+02 -0.59652348966E+01  0.26999435442E+02  0.00000000000E+00 0. -1.
<scales pt_clust_5="13000.00000" pt_clust_6="13000.00000" pt_clust_7="13000.00000" pt_clust_8="13000.00000" pt_clust_9="26.33223"></scales>
<clustering>
<clus scale="   26.332">  2  9  1 -1</clus>
<clus scale="   90.717">  7  8 -1 -1</clus>
<clus scale="  108.171">  5  6 -1 -1</clus>
<clus scale="  112.246">  1  7  2 -1</clus>
<clus scale="   26.332">  2  5  1 -1</clus>
</clustering>
</event>
<event>
 9    1  0.1636528E-005  0.1163033E+03  0.7546771E-02  0.1251392E+00
         21   -1    0    0  501  502  0.00000000000E+00  0.00000000000E+00  0.41128892101E+03  0.41128892101E+03  0.00000000000E+00 0. -1.
         -2   -1    0    0    0  501 -0.00000000000E+00 -0.00000000000E+00 -0.59310285296E+02  0.59310285296E+02  0.00000000000E+00 0.  1.
         23    2    1    2    0    0 -0.47834698264E+02 -0.56230000148E+02  0.44354700608E+02  0.12603219629E+03  0.92015236576E+02 0.  0.
         23    2    1    2    0    0  0.37978000961E+01  0.37377580388E+02  0.23870815744E+03  0.26063819170E+03  0.97668704022E+02 0.  0.
        -11    1    4    4    0    0  0.30648633348E+02  0.51537832278E+02  0.21162773644E+03  0.21995860000E+03  0.00000000000E+00 0. -1.
         11    1    4    4    0    0 -0.26850833252E+02 -0.14160251890E+02  0.27080421000E+02  0.40679591707E+02  0.00000000000E+00 0.  1.
        -11    1    3    3    0    0  0.88771127227E+00 -0.67392210880E+02  0.19226743002E+02  0.70086844451E+02  0.00000000000E+00 0.  1.
         11    1    3    3    0    0 -0.48722409536E+02  0.11162210732E+02  0.25127957606E+02  0.55945351844E+02  0.00000000000E+00 0. -1.
         -2    1    1    2    0  502  0.44036898168E+02  0.18852419760E+02  0.68915777665E+02  0.83928818306E+02  0.00000000000E+00 0.  1.
<scales pt_clust_5="13000.00000" pt_clust_6="13000.00000" pt_clust_7="13000.00000" pt_clust_8="13000.00000" pt_clust_9="47.90263"></scales>
<clustering>
<clus scale="   47.903">  1  9  2 -1</clus>
<clus scale="   92.015">  7  8 -1 -1</clus>
<clus scale="   97.669">  5  6 -1 -1</clus>
<clus scale="  111.598">  2  7  1 -1</clus>
<clus scale="   47.903">  1  5  2 -1</clus>
</clustering>
</event>
<event>
 9    1  0.1636528E-005  0.1103857E+03  0.7546771E-02  0.1260185E+00
         21   -1    0    0  501  502  0.00000000000E+00  0.00000000000E+00  0.22068264968E+03  0.22068264968E+03  0.00000000000E+00 0.  1.
          1   -1    0    0  502    0 -0.00000000000E+00 -0.00000000000E+00 -0.24553019409E+03  0.24553019409E+03  0.00000000000E+00 0. -1.
         23    2    1    2    0    0  0.41939844039E+01  0.60359456539E+02 -0.19010239986E+03  0.21951848690E+03  0.91589246960E+02 0.  0.
         23    2    1    2    0    0  0.29532649263E+02 -0.77382390936E+02  0.16877310463E+03  0.20875171343E+03  0.90734256019E+02 0.  0.
        -13    1    4    4    0    0  0.31807047269E+01 -0.50140623987E+02  0.16280758336E+03  0.17038341543E+03  0.00000000000E+00 0.  1.
         13    1    4    4    0    0  0.26351944536E+02 -0.27241766949E+02  0.59655212739E+01  0.38368298000E+02  0.00000000000E+00 0. -1.
        -13    1    3    3    0    0  0.26905443980E+02  0.69292402949E+02 -0.17664817810E+03  0.19165051225E+03  0.00000000000E+00 0. -1.
         13    1    3    3    0    0 -0.22711459576E+02 -0.89329464105E+01 -0.13454221768E+02  0.27867974649E+02  0.00000000000E+00 0.  1.
          1    1    1    2  501    0 -0.33726633667E+02  0.17022934397E+02 -0.35182491761E+01  0.37942643441E+02  0.00000000000E+00 0. -1.
<scales pt_clust_5="13000.00000" pt_clust_6="13000.00000" pt_clust_7="13000.00000" pt_clust_8="13000.00000" pt_clust_9="37.77919"></scales>
<clustering>
<clus scale="   37.779">  1  9  2 -1</clus>
<clus scale="   90.734">  5  6 -1 -1</clus>
<clus scale="   91.589">  7  8 -1 -1</clus>
<clus scale="  109.677">  1  5  2 -1</clus>
<clus scale="   37.779">  1  5  2 -1</clus>
</clustering>
</event>
<event>
 9    1  0.1636528E-005  0.2484314E+03  0.7546771E-02  0.1155507E+00
         21   -1    0    0  501  502  0.00000000000E+00  0.00000000000E+00  0.36538120266E+03  0.36538120266E+03  0.00000000000E+00 0. -1.
          2   -1    0    0  502    0 -0.00000000000E+00 -0.00000000000E+00 -0.39914303248E+03  0.39914303248E+03  0.00000000000E+00 0. -1.
         23    2    1    2    0    0 -0.15076762603E+02 -0.54385489086E+01 -0.56441683722E+02  0.10715033777E+03  0.89658488938E+02 0.  0.
         23    2    1    2    0    0 -0.32136866422E+02 -0.22194199909E+03 -0.21588928273E+03  0.32443805771E+03  0.91437638594E+02 0.  0.
        -11    1    4    4    0    0 -0.83957777842E+01 -0.11749378797E+03 -0.52254609254E+02  0.12886358479E+03  0.00000000000E+00 0.  1.
         11    1    4    4    0    0 -0.23741088638E+02 -0.10444821112E+03 -0.16363467348E+03  0.19557447292E+03  0.00000000000E+00 0. -1.
        -13    1    3    3    0    0  0.31784382046E+02 -0.38982767647E+01 -0.50627427573E+02  0.59904757127E+02  0.00000000000E+00 0.  1.
         13    1    3    3    0    0 -0.46861144648E+02 -0.15402721439E+01 -0.58142561496E+01  0.47245580646E+02  0.00000000000E+00 0. -1.
          2    1    1    2  501    0  0.47213629025E+02  0.22738054800E+03  0.23856913664E+03  0.33293583966E+03  0.00000000000E+00 0. -1.
<scales pt_clust_5="13000.00000" pt_clust_6="13000.00000" pt_clust_7="13000.00000" pt_clust_8="13000.00000" pt_clust_9="230.99205"></scales>
<clustering>
<clus scale="   89.658">  7  8 -1 -1</clus>
<clus scale="   91.080">  2  7  1 -1</clus>
<clus scale="   91.438">  5  6 -1 -1</clus>
<clus scale="  230.992">  1  9  2 -1</clus>
<clus scale="  230.992">  1  5  2 -1</clus>
</clustering>
</event>
<event>
 9    1  0.1636528E-005  0.1442734E+03  0.7546771E-02  0.1220001E+00
         21   -1    0    0  501  502  0.00000000000E+00  0.00000000000E+00  0.64128766707E+02  0.64128766707E+02  0.00000000000E+00 0. -1.
          1   -1    0    0  502    0 -0.00000000000E+00 -0.00000000000E+00 -0.83042450559E+03  0.83042450559E+03  0.00000000000E+00 0. -1.
         23    2    1    2    0    0 -0.36195340816E+00  0.47031797860E+02 -0.43171623216E+03  0.44578625019E+03  0.10066953228E+03 0.  0.
         23    2    1    2    0    0 -0.11093881630E+03 -0.18702050594E+02 -0.29320632075E+03  0.32669255125E+03  0.90004937971E+02 0.  0.
        -11    1    3    3    0    0 -0.45749822528E+02  0.22236586046E+02 -0.29996387553E+03  0.30424634532E+03  0.00000000000E+00 0. -1.
         11    1    3    3    0    0  0.45387869120E+02  0.24795211814E+02 -0.13175235663E+03  0.14153990487E+03  0.00000000000E+00 0.  1.
        -13    1    4    4    0    0 -0.98732694049E+02 -0.40896300039E+02 -0.16918056289E+03  0.20010675924E+03  0.00000000000E+00 0. -1.
         13    1    4    4    0    0 -0.12206122247E+02  0.22194249445E+02 -0.12402575786E+03  0.12658579202E+03  0.00000000000E+00 0.  1.
          1    1    1    2  501    0  0.11130076970E+03 -0.28329747267E+02 -0.41373185976E+02  0.12207447086E+03  0.00000000000E+00 0. -1.
<scales pt_clust_5="13000.00000" pt_clust_6="13000.00000" pt_clust_7="13000.00000" pt_clust_8="13000.00000" pt_clust_9="112.75599"></scales>
<clustering>
<clus scale="   90.005">  7  8 -1 -1</clus>
<clus scale="  100.670">  5  6 -1 -1</clus>
<clus scale="  111.115">  2  5  1 -1</clus>
<clus scale="  112.756">  1  9  2 -1</clus>
<clus scale="  112.756">  1  5  2 -1</clus>
</clustering>
</event>
<event>
 9    1  0.1636528E-005  0.9282327E+02  0.7546771E-02  0.1296554E+00
          1   -1    0    0  502    0 -0.00000000000E+00  0.00000000000E+00  0.86305131677E+02  0.86305131677E+02  0.00000000000E+00 0. -1.
         21   -1    0    0  501  502  0.00000000000E+00 -0.00000000000E+00 -0.19656309572E+03  0.19656309572E+03  0.00000000000E+00 0.  1.
         23    2    1    2    0    0  0.13323870653E+02 -0.99998586205E+01  0.28921957487E+02  0.97251277561E+02  0.91344450629E+02 0.  0.
         23    2    1    2    0    0 -0.22454409676E+02 -0.85331259100E+01 -0.81136670810E+02  0.12400642141E+03  0.90649977661E+02 0.  0.
        -11    1    4    4    0    0 -0.57861059113E+02 -0.72428284476E+01 -0.48800388480E+02  0.76038402412E+02  0.00000000000E+00 0. -1.
         11    1    4    4    0    0  0.35406649438E+02 -0.12902974624E+01 -0.32336282331E+02  0.47968019001E+02  0.00000000000E+00 0.  1.
        -13    1    3    3    0    0  0.28490283654E+02  0.21288217881E+02 -0.17188194222E+02  0.39500867128E+02  0.00000000000E+00 0.  1.
         13    1    3    3    0    0 -0.15166413001E+02 -0.31288076501E+02  0.46110151709E+02  0.57750410433E+02  0.00000000000E+00 0. -1.
          1    1    1    2  501    0  0.91305390225E+01  0.18532984530E+02 -0.58043250717E+02  0.61610528421E+02  0.00000000000E+00 0. -1.
<scales pt_clust_5="13000.00000" pt_clust_6="13000.00000" pt_clust_7="13000.00000" pt_clust_8="13000.00000" pt_clust_9="20.66006"></scales>
<clustering>
<clus scale="   20.660">  2  9  1 -1</clus>
<clus scale="   90.650">  5  6 -1 -1</clus>
<clus scale="   91.344">  7  8 -1 -1</clus>
<clus scale="   92.140">  2  5  1 -1</clus>
<clus scale="   20.660">  2  5  1 -1</clus>
</clustering>
</event>
<event>
 9    1  0.1636528E-005  0.1157036E+03  0.7546771E-02  0.1252743E+00
         21   -1    0    0  501  502  0.00000000000E+00  0.00000000000E+00  0.25359445102E+03  0.25359445102E+03  0.00000000000E+00 0.  1.
          1   -1    0    0  502    0 -0.00000000000E+00 -0.00000000000E+00 -0.10531132541E+03  0.10531132541E+03  0.00000000000E+00 0. -1.
         23    2    1    2    0    0 -0.26801140706E+02 -0.49842715662E+02 -0.18849820088E+02  0.10816705757E+03  0.90234135325E+02 0.  0.
         23    2    1    2    0    0  0.77348583964E+02  0.49314398207E+02  0.99715950010E+02  0.16647499923E+03  0.96726115238E+02 0.  0.
        -11    1    4    4    0    0  0.55080363596E+02 -0.20404646963E+02  0.32636585401E+02  0.67196300331E+02  0.00000000000E+00 0. -1.
         11    1    4    4    0    0  0.22268220367E+02  0.69719045170E+02  0.67079364609E+02  0.99278698894E+02  0.00000000000E+00 0.  1.
        -11    1    3    3    0    0  0.14197804422E+02 -0.49082979845E+02 -0.37240046834E+02  0.63226083614E+02  0.00000000000E+00 0. -1.
         11    1    3    3    0    0 -0.40998945129E+02 -0.75973581628E+00  0.18390226746E+02  0.44940973954E+02  0.00000000000E+00 0.  1.
          1    1    1    2  501    0 -0.50547443258E+02  0.52831745485E+00  0.67416995694E+02  0.84263719640E+02  0.00000000000E+00 0. -1.
<scales pt_clust_5="13000.00000" pt_clust_6="13000.00000" pt_clust_7="13000.00000" pt_clust_8="13000.00000" pt_clust_9="50.55020"></scales>
<clustering>
<clus scale="   50.550">  1  9  2 -1</clus>
<clus scale="   90.234">  7  8 -1 -1</clus>
<clus scale="   96.726">  5  6 -1 -1</clus>
<clus scale="  110.334">  2  7  1 -1</clus>
<clus scale="   50.550">  1  5  2 -1</clus>
</clustering>
</event>
<event>
 9    1  0.1636528E-005  0.1521994E+03  0.7546771E-02  0.1213807E+00
         21   -1    0    0  501  502  0.00000000000E+00  0.00000000000E+00  0.80440033170E+02  0.80440033170E+02  0.00000000000E+00 0. -1.
          1   -1    0    0  502    0 -0.00000000000E+00 -0.00000000000E+00 -0.81332615699E+03  0.81332615699E+03  0.00000000000E+00 0. -1.
         23    2    1    2    0    0 -0.57108242649E+02  0.11616348523E+02 -0.37163310613E+03  0.38696929389E+03  0.90762205320E+02 0.  0.
         23    2    1    2    0    0  0.15288750218E+03  0.64607073754E+02 -0.33378997120E+03  0.38134612671E+03  0.80376994127E+02 0.  0.
        -11    1    4    4    0    0  0.70730264398E+02 -0.50919525768E+01 -0.88267376739E+02  0.11322467964E+03  0.00000000000E+00 0.  1.
         11    1    4    4    0    0  0.82157237779E+02  0.69699026331E+02 -0.24552259446E+03  0.26812144708E+03  0.00000000000E+00 0. -1.
        -13    1    3    3    0    0  0.71499501723E+01 -0.28721968579E+02 -0.14447861010E+03  0.14747929361E+03  0.00000000000E+00 0.  1.
         13    1    3    3    0    0 -0.64258192821E+02  0.40338317102E+02 -0.22715449603E+03  0.23949000028E+03  0.00000000000E+00 0. -1.
          1    1    1    2  501    0 -0.95779259528E+02 -0.76223422277E+02 -0.27463046496E+02  0.12545076956E+03  0.00000000000E+00 0. -1.
<scales pt_clust_5="13000.00000" pt_clust_6="13000.00000" pt_clust_7="13000.00000" pt_clust_8="13000.00000" pt_clust_9="129.24475"></scales>
<clustering>
<clus scale="   80.377">  5  6 -1 -1</clus>
<clus scale="   90.762">  7  8 -1 -1</clus>
<clus scale="  107.861">  2  7  1 -1</clus>
<clus scale="  129.245">  1  9  2 -1</clus>
<clus scale="  129.245">  1  5  2 -1</clus>
</clustering>
</event>
<event>
 9    1  0.1636528E-005  0.1117607E+03  0.7546771E-02  0.1259298E+00
         21   -1    0    0  501  502  0.00000000000E+00  0.00000000000E+00  0.92280990407E+02  0.92280990407E+02  0.00000000000E+00 0. -1.
          1   -1    0    0  502    0 -0.00000000000E+00 -0.00000000000E+00 -0.26190466519E+03  0.26190466519E+03  0.00000000000E+00 0. -1.
         23    2    1    2    0    0  0.45736573309E+02 -0.29977721106E+02 -0.17411221986E+03  0.20624485756E+03  0.96080061755E+02 0.  0.
         23    2    1    2    0    0 -0.39196918863E+02  0.55398170427E+02 -0.15862695711E+02  0.11472725673E+03  0.91133762060E+02 0.  0.
        -13    1    4    4    0    0 -0.54657792154E+02  0.72066344189E+02 -0.16696825571E+02  0.91977259103E+02  0.00000000000E+00 0. -1.
         13    1    4    4    0    0  0.15460873291E+02 -0.16668173763E+02  0.83412985997E+00  0.22749997629E+02  0.00000000000E+00 0.  1.
        -13    1    3    3    0    0 -0.25652470554E+02  0.11253378062E+02 -0.40417198299E+02  0.49175580135E+02  0.00000000000E+00 0. -1.
         13    1    3    3    0    0  0.71389043863E+02 -0.41231099168E+02 -0.13369502156E+03  0.15706927743E+03  0.00000000000E+00 0.  1.
          1    1    1    2  501    0 -0.65396544460E+01 -0.25420449320E+02  0.20351240789E+02  0.33213541298E+02  0.00000000000E+00 0. -1.
<scales pt_clust_5="13000.00000" pt_clust_6="13000.00000" pt_clust_7="13000.00000" pt_clust_8="13000.00000" pt_clust_9="26.24817"></scales>
<clustering>
<clus scale="   26.248">  1  9  2 -1</clus>
<clus scale="   91.134">  5  6 -1 -1</clus>
<clus scale="   96.080">  7  8 -1 -1</clus>
<clus scale="  107.538">  1  5  2 -1</clus>
<clus scale="   26.248">  1  5  2 -1</clus>
</clustering>
</event>
<event>
 9    1  0.1636528E-005  0.1492764E+03  0.7546771E-02  0.1201454E+00
         21   -1    0    0  501  502  0.00000000000E+00  0.00000000000E+00  0.20254764202E+03  0.20254764202E+03  0.00000000000E+00 0.  1.
          1   -1    0    0  502    0 -0.00000000000E+00 -0.00000000000E+00 -0.23895614844E+03  0.23895614844E+03  0.00000000000E+00 0. -1.
         23    2    1    2    0    0 -0.29397275697E+01  0.11514229512E+03 -0.99052323153E+02  0.17778474345E+03  0.92356170109E+02 0.  0.
         23    2    1    2    0    0  0.32181207040E+02 -0.11728240946E+03 -0.39038580161E+02  0.15789393634E+03  0.92820745193E+02 0.  0.
        -11    1    3    3    0    0  0.22392733177E+02 -0.58420425739E+00  0.14258640968E+01  0.22445687385E+02  0.00000000000E+00 0. -1.
         11    1    3    3    0    0 -0.25332460747E+02  0.11572649938E+03 -0.10047818725E+03  0.15533905606E+03  0.00000000000E+00 0.  1.
        -13    1    4    4    0    0 -0.13789686093E+02 -0.76459378910E+02  0.11202146807E+02  0.78496370355E+02  0.00000000000E+00 0.  1.
         13    1    4    4    0    0  0.45970893132E+02 -0.40823030546E+02 -0.50240726968E+02  0.79397565987E+02  0.00000000000E+00 0. -1.
          1    1    1    2  501    0 -0.29241479470E+02  0.21401143379E+01  0.10168239689E+03  0.10582511067E+03  0.00000000000E+00 0. -1.
<scales pt_clust_5="13000.00000" pt_clust_6="13000.00000" pt_clust_7="13000.00000" pt_clust_8="13000.00000" pt_clust_9="29.31969"></scales>
<clustering>
<clus scale="   29.320">  1  9  2 -1</clus>
<clus scale="   92.356">  5  6 -1 -1</clus>
<clus scale="   92.821">  7  8 -1 -1</clus>
<clus scale="  148.988">  2  5  1 -1</clus>
<clus scale="   29.320">  1  5  2 -1</clus>
</clustering>
</event>
<event>
 9    1  0.1636528E-005  0.1016111E+03  0.7546771E-02  0.1276967E+00
         21   -1    0    0  501  502  0.00000000000E+00  0.00000000000E+00  0.71000954160E+02  0.71000954160E+02  0.00000000000E+00 0. -1.
          3   -1    0    0  502    0 -0.00000000000E+00 -0.00000000000E+00 -0.20151139250E+03  0.20151139250E+03  0.00000000000E+00 0. -1.
         23    2    1    2    0    0 -0.42804227502E+02 -0.36997493144E+02 -0.90633337753E+02  0.13998628809E+03  0.90447457400E+02 0.  0.
         23    2    1    2    0    0  0.16881595187E+02  0.30119845978E+02 -0.42278041252E+02  0.10559931698E+03  0.90396845062E+02 0.  0.
        -13    1    4    4    0    0  0.42938244092E+02  0.46033557478E+02 -0.40831341019E+02  0.75033190184E+02  0.00000000000E+00 0.  1.
         13    1    4    4    0    0 -0.26056648905E+02 -0.15913711500E+02 -0.14467002330E+01  0.30566126798E+02  0.00000000000E+00 0. -1.
        -13    1    3    3    0    0  0.25611662832E+02 -0.33821721584E+00 -0.39364119679E+02  0.46963875287E+02  0.00000000000E+00 0.  1.
         13    1    3    3    0    0 -0.68415890334E+02 -0.36659275928E+02 -0.51269218074E+02  0.93022412803E+02  0.00000000000E+00 0. -1.
          3    1    1    2  501    0  0.25922632315E+02  0.68776471658E+01  0.24009406609E+01  0.26926741591E+02  0.00000000000E+00 0. -1.
<scales pt_clust_5="13000.00000" pt_clust_6="13000.00000" pt_clust_7="13000.00000" pt_clust_8="13000.00000" pt_clust_9="26.81949"></scales>
<clustering>
<clus scale="   26.819">  1  9  2 -1</clus>
<clus scale="   90.397">  5  6 -1 -1</clus>
<clus scale="   90.447">  7  8 -1 -1</clus>
<clus scale="  101.566">  1  5  2 -1</clus>
<clus scale="   26.819">  1  5  2 -1</clus>
</clustering>
</event>
<event>
 9    1  0.1638122E-005  0.1025374E+03  0.7546771E-02  0.1275842E+00
          1   -1    0    0  502    0 -0.00000000000E+00  0.00000000000E+00  0.32225492422E+03  0.32225492422E+03  0.00000000000E+00 0. -1.
         21   -1    0    0  501  502  0.00000000000E+00 -0.00000000000E+00 -0.13436674810E+03  0.13436674810E+03  0.00000000000E+00 0.  1.
         23    2    1    2    0    0 -0.44691529632E+01  0.51720233079E+02  0.26322514312E+03  0.28320799073E+03  0.90688115010E+02 0.  0.
         23    2    1    2    0    0  0.10601848541E+02 -0.41079530109E+01 -0.86001843810E+02  0.12423768373E+03  0.88934866332E+02 0.  0.
        -11    1    4    4    0    0  0.19972893641E+02  0.27468689354E+02 -0.84721150647E+02  0.91274962297E+02  0.00000000000E+00 0.  1.
         11    1    4    4    0    0 -0.93710450998E+01 -0.31576642365E+02 -0.12806931626E+01  0.32962721434E+02  0.00000000000E+00 0. -1.
        -13    1    3    3    0    0 -0.31040169185E+02 -0.13102246163E+02  0.10197601388E+03  0.10739771117E+03  0.00000000000E+00 0.  1.
         13    1    3    3    0    0  0.26571016222E+02  0.64822479242E+02  0.16124912924E+03  0.17581027956E+03  0.00000000000E+00 0. -1.
          1    1    1    2  501    0 -0.61326955781E+01 -0.47612280068E+02  0.10664876808E+02  0.49175997861E+02  0.00000000000E+00 0. -1.
<scales pt_clust_5="13000.00000" pt_clust_6="13000.00000" pt_clust_7="13000.00000" pt_clust_8="13000.00000" pt_clust_9="48.00562"></scales>
<clustering>
<clus scale="   48.006">  2  9  1 -1</clus>
<clus scale="   88.935">  5  6 -1 -1</clus>
<clus scale="   90.688">  7  8 -1 -1</clus>
<clus scale="  100.990">  2  5  1 -1</clus>
<clus scale="   48.006">  2  5  1 -1</clus>
</clustering>
</event>
<event>
 9    1  0.1636528E-005  0.1106381E+03  0.7546771E-02  0.1260064E+00
         -3   -1    0    0    0  501 -0.00000000000E+00  0.00000000000E+00  0.31560299842E+03  0.31560299842E+03  0.00000000000E+00 0.  1.
         21   -1    0    0  501  502  0.00000000000E+00 -0.00000000000E+00 -0.80890419424E+02  0.80890419424E+02  0.00000000000E+00 0. -1.
         23    2    1    2    0    0 -0.51074273040E+02 -0.27362868728E+02  0.23286599205E+03  0.25658279066E+03  0.90834191007E+02 0.  0.
         23    2    1    2    0    0  0.71064872002E+02  0.23989322662E+02 -0.25274119463E+01  0.11917088934E+03  0.92572184912E+02 0.  0.
        -11    1    3    3    0    0 -0.27251020819E+01 -0.51323127195E+02  0.14056014445E+03  0.14966176457E+03  0.00000000000E+00 0. -1.
         11    1    3    3    0    0 -0.48349170958E+02  0.23960258467E+02  0.92305847602E+02  0.10692102609E+03  0.00000000000E+00 0.  1.
        -13    1    4    4    0    0  0.14465245471E+02  0.51824011442E+02  0.10362123680E+02  0.54793659265E+02  0.00000000000E+00 0.  1.
         13    1    4    4    0    0  0.56599626531E+02 -0.27834688780E+02 -0.12889535626E+02  0.64377230071E+02  0.00000000000E+00 0. -1.
         -3    1    1    2    0  502 -0.19990598962E+02  0.33735460655E+01  0.43739988918E+01  0.20739737853E+02  0.00000000000E+00 0.  1.
<scales pt_clust_5="13000.00000" pt_clust_6="13000.00000" pt_clust_7="13000.00000" pt_clust_8="13000.00000" pt_clust_9="20.27325"></scales>
<clustering>
<clus scale="   20.273">  2  9  1 -1</clus>
<clus scale="   90.834">  5  6 -1 -1</clus>
<clus scale="   92.572">  7  8 -1 -1</clus>
<clus scale="  109.188">  1  5  2 -1</clus>
<clus scale="   20.273">  2  5  1 -1</clus>
</clustering>
</event>
<event>
 9    1  0.1636528E-005  0.9948505E+02  0.7546771E-02  0.1283780E+00
         21   -1    0    0  501  502  0.00000000000E+00  0.00000000000E+00  0.18150561829E+02  0.18150561829E+02  0.00000000000E+00 0.  1.
          2   -1    0    0  502    0 -0.00000000000E+00 -0.00000000000E+00 -0.85267527906E+03  0.85267527906E+03  0.00000000000E+00 0. -1.
         23    2    1    2    0    0 -0.72274778954E+01 -0.24505739326E+02 -0.44305765166E+03  0.45318679605E+03  0.91790096018E+02 0.  0.
         23    2    1    2    0    0  0.12177929231E+01  0.60925155924E+02 -0.32063712443E+03  0.33776808152E+03  0.86981341030E+02 0.  0.
        -11    1    4    4    0    0 -0.22230418303E+02  0.74262314391E+02 -0.26192600833E+03  0.27315621296E+03  0.00000000000E+00 0.  1.
         11    1    4    4    0    0  0.23448211226E+02 -0.13337158467E+02 -0.58711116096E+02  0.64611868561E+02  0.00000000000E+00 0. -1.
        -13    1    3    3    0    0 -0.37130570639E+02 -0.45214532984E+02 -0.29292450219E+03  0.29871022288E+03  0.00000000000E+00 0. -1.
         13    1    3    3    0    0  0.29903092744E+02  0.20708793657E+02 -0.15013314947E+03  0.15447657317E+03  0.00000000000E+00 0.  1.
          2    1    1    2  501    0  0.60096849723E+01 -0.36419416598E+02 -0.70829941152E+02  0.79870963324E+02  0.00000000000E+00 0. -1.
<scales pt_clust_5="13000.00000" pt_clust_6="13000.00000" pt_clust_7="13000.00000" pt_clust_8="13000.00000" pt_clust_9="36.91193"></scales>
<clustering>
<clus scale="   36.912">  1  9  2 -1</clus>
<clus scale="   86.981">  5  6 -1 -1</clus>
<clus scale="   91.790">  7  8 -1 -1</clus>
<clus scale="   95.066">  1  5  2 -1</clus>
<clus scale="   36.912">  1  5  2 -1</clus>
</clustering>
</event>
<event>
 9    1  0.1636528E-005  0.9691298E+02  0.7546771E-02  0.1287272E+00
          1   -1    0    0  502    0 -0.00000000000E+00  0.00000000000E+00  0.12549817010E+03  0.12549817010E+03  0.00000000000E+00 0. -1.
         21   -1    0    0  501  502  0.00000000000E+00 -0.00000000000E+00 -0.18448641920E+03  0.18448641920E+03  0.00000000000E+00 0. -1.
         23    2    1    2    0    0 -0.15393661536E+02 -0.47562836314E+01  0.50520579025E+02  0.10698264617E+03  0.92915933114E+02 0.  0.
         23    2    1    2    0    0  0.67535239864E+02  0.21142950345E+02 -0.75047613884E+02  0.13838892337E+03  0.92256798062E+02 0.  0.
        -13    1    4    4    0    0  0.81512901804E+02 -0.93008080407E+01 -0.60133809004E+02  0.10171987601E+03  0.00000000000E+00 0. -1.
         13    1    4    4    0    0 -0.13977661941E+02  0.30443758386E+02 -0.14913804881E+02  0.36669047356E+02  0.00000000000E+00 0.  1.
        -13    1    3    3    0    0 -0.45718826050E+02  0.21303866471E+02  0.43036567744E+02  0.66303936121E+02  0.00000000000E+00 0.  1.
         13    1    3    3    0    0  0.30325164514E+02 -0.26060150102E+02  0.74840112813E+01  0.40678710046E+02  0.00000000000E+00 0. -1.
          1    1    1    2  501    0 -0.52141578328E+02 -0.16386666714E+02 -0.34461214240E+02  0.64613019767E+02  0.00000000000E+00 0. -1.
<scales pt_clust_5="13000.00000" pt_clust_6="13000.00000" pt_clust_7="13000.00000" pt_clust_8="13000.00000" pt_clust_9="54.65590"></scales>
<clustering>
<clus scale="   54.656">  2  9  1 -1</clus>
<clus scale="   92.257">  5  6 -1 -1</clus>
<clus scale="   92.916">  7  8 -1 -1</clus>
<clus scale="   96.281">  2  5  1 -1</clus>
<clus scale="   54.656">  2  5  1 -1</clus>
</clustering>
</event>
<event>
 9    1  0.1636528E-005  0.2041624E+03  0.7546771E-02  0.1148256E+00
          2   -1    0    0  502    0 -0.00000000000E+00  0.00000000000E+00  0.13363600306E+04  0.13363600306E+04  0.00000000000E+00 0. -1.
         21   -1    0    0  501  502  0.00000000000E+00 -0.00000000000E+00 -0.50696009904E+02  0.50696009904E+02  0.00000000000E+00 0. -1.
         23    2    1    2    0    0 -0.93225348584E+02 -0.15608647938E+03  0.96820958489E+03  0.98926645996E+03  0.90356924806E+02 0.  0.
         23    2    1    2    0    0  0.12818076319E+03  0.14028763530E+03  0.26945638003E+03  0.33634612816E+03  0.66415724946E+02 0.  0.
        -11    1    4    4    0    0  0.57468276798E+02  0.62097013585E+02  0.66396193519E+02  0.10755043676E+03  0.00000000000E+00 0. -1.
         11    1    4    4    0    0  0.70712486387E+02  0.78190621714E+02  0.20306018651E+03  0.22879569139E+03  0.00000000000E+00 0.  1.
        -13    1    3    3    0    0 -0.21814907260E+02 -0.11970704133E+03  0.52996568789E+03  0.54375481264E+03  0.00000000000E+00 0.  1.
         13    1    3    3    0    0 -0.71410441324E+02 -0.36379438051E+02  0.43824389700E+03  0.44551164732E+03  0.00000000000E+00 0. -1.
          2    1    1    2  501    0 -0.34955414601E+02  0.15798844079E+02  0.47998055816E+02  0.61443452428E+02  0.00000000000E+00 0. -1.
<scales pt_clust_5="13000.00000" pt_clust_6="13000.00000" pt_clust_7="13000.00000" pt_clust_8="13000.00000" pt_clust_9="38.35993"></scales>
<clustering>
<clus scale="   38.360">  2  9  1 -1</clus>
<clus scale="   66.416">  5  6 -1 -1</clus>
<clus scale="   90.357">  7  8 -1 -1</clus>
<clus scale="  194.754">  2  5  1 -1</clus>
<clus scale="   38.360">  2  5  1 -1</clus>
</clustering>
</event>
<event>
 9    1  0.1636528E-005  0.1109829E+03  0.7546771E-02  0.1261161E+00
          1   -1    0    0  502    0 -0.00000000000E+00  0.00000000000E+00  0.75582913177E+02  0.75582913177E+02  0.00000000000E+00 0. -1.
         21   -1    0    0  501  502  0.00000000000E+00 -0.00000000000E+00 -0.29372162094E+03  0.29372162094E+03  0.00000000000E+00 0. -1.
         23    2    1    2    0    0  0.53180928486E+02 -0.31814082523E+02 -0.67434196562E+01  0.11414140684E+03  0.95616107669E+02 0.  0.
         23    2    1    2    0    0 -0.47777953708E+02  0.39360549985E+01 -0.10958529727E+03  0.14946709713E+03  0.89628401505E+02 0.  0.
        -13    1    3    3    0    0 -0.15614629163E+02 -0.41430175645E+02 -0.59458267429E+01  0.44672463035E+02  0.00000000000E+00 0.  1.
         13    1    3    3    0    0  0.68795557649E+02  0.96160931225E+01 -0.79759291333E+00  0.69468943807E+02  0.00000000000E+00 0. -1.
        -13    1    4    4    0    0 -0.60929756719E+02  0.32157984938E+02 -0.62514142714E+02  0.93030045085E+02  0.00000000000E+00 0.  1.
         13    1    4    4    0    0  0.13151803012E+02 -0.28221929940E+02 -0.47071154559E+02  0.56437052045E+02  0.00000000000E+00 0. -1.
          1    1    1    2  501    0 -0.54029747789E+01  0.27878027524E+02 -0.10180999084E+03  0.10569603015E+03  0.00000000000E+00 0. -1.
<scales pt_clust_5="13000.00000" pt_clust_6="13000.00000" pt_clust_7="13000.00000" pt_clust_8="13000.00000" pt_clust_9="28.39677"></scales>
<clustering>
<clus scale="   28.397">  2  9  1 -1</clus>
<clus scale="   89.628">  7  8 -1 -1</clus>
<clus scale="   95.616">  5  6 -1 -1</clus>
<clus scale="  105.868">  2  7  1 -1</clus>
<clus scale="   28.397">  2  5  1 -1</clus>
</clustering>
</event>
<event>
 9    1  0.1636528E-005  0.1008683E+03  0.7546771E-02  0.1279272E+00
         21   -1    0    0  501  502  0.00000000000E+00  0.00000000000E+00  0.78622067369E+02  0.78622067369E+02  0.00000000000E+00 0.  1.
          1   -1    0    0  502    0 -0.00000000000E+00 -0.00000000000E+00 -0.18025808332E+03  0.18025808332E+03  0.00000000000E+00 0. -1.
         23    2    1    2    0    0  0.39560255487E+02  0.36128914877E+02 -0.85848274918E+02  0.13365787436E+03  0.87316600750E+02 0.  0.
         23    2    1    2    0    0 -0.29065433145E+02 -0.18925326418E+02  0.57574871731E+01  0.95721401595E+02  0.89030728857E+02 0.  0.
        -11    1    4    4    0    0  0.88213108545E+01 -0.46327229633E+02 -0.59144822182E+01  0.47529031450E+02  0.00000000000E+00 0. -1.
         11    1    4    4    0    0 -0.37886743999E+02  0.27401903215E+02  0.11671969391E+02  0.48192370144E+02  0.00000000000E+00 0.  1.
        -13    1    3    3    0    0  0.56478927677E+02  0.53994350747E+01 -0.80027630605E+02  0.98099158156E+02  0.00000000000E+00 0.  1.
         13    1    3    3    0    0 -0.16918672190E+02  0.30729479803E+02 -0.58206443133E+01  0.35558716200E+02  0.00000000000E+00 0. -1.
          1    1    1    2  501    0 -0.10494822343E+02 -0.17203588459E+02 -0.21545228208E+02  0.29500874740E+02  0.00000000000E+00 0. -1.
<scales pt_clust_5="13000.00000" pt_clust_6="13000.00000" pt_clust_7="13000.00000" pt_clust_8="13000.00000" pt_clust_9="20.15205"></scales>
<clustering>
<clus scale="   20.152">  1  9  2 -1</clus>
<clus scale="   87.317">  7  8 -1 -1</clus>
<clus scale="   89.031">  5  6 -1 -1</clus>
<clus scale="   99.359">  2  7  1 -1</clus>
<clus scale="   20.152">  1  5  2 -1</clus>
</clustering>
</event>
<event>
 9    1  0.1636528E-005  0.1131008E+03  0.7546771E-02  0.1257541E+00
         -1   -1    0    0    0  501 -0.00000000000E+00  0.00000000000E+00  0.50136290579E+03  0.50136290579E+03  0.00000000000E+00 0.  1.
         21   -1    0    0  501  502  0.00000000000E+00 -0.00000000000E+00 -0.24129691267E+03  0.24129691267E+03  0.00000000000E+00 0. -1.
         23    2    1    2    0    0  0.27909534157E+02 -0.39433026792E+02  0.40095685190E+03  0.41577894985E+03  0.98852578906E+02 0.  0.
         23    2    1    2    0    0 -0.37078016933E+02  0.11732847600E+03  0.12787206303E+02  0.15434475711E+03  0.92293232583E+02 0.  0.
        -11    1    3    3    0    0  0.65285809988E+02 -0.25322752065E+02  0.24921130607E+03  0.25886242260E+03  0.00000000000E+00 0.  1.
         11    1    3    3    0    0 -0.37376275831E+02 -0.14110274727E+02  0.15174554583E+03  0.15691652726E+03  0.00000000000E+00 0. -1.
        -11    1    4    4    0    0 -0.17035369390E+02  0.11093099997E+03  0.40706797880E+02  0.11938565223E+03  0.00000000000E+00 0. -1.
         11    1    4    4    0    0 -0.20042647543E+02  0.63974760346E+01 -0.27919591577E+02  0.34959104879E+02  0.00000000000E+00 0.  1.
         -1    1    1    2    0  502  0.91684827762E+01 -0.77895449212E+02 -0.15367806508E+03  0.17253611150E+03  0.00000000000E+00 0.  1.
<scales pt_clust_5="13000.00000" pt_clust_6="13000.00000" pt_clust_7="13000.00000" pt_clust_8="13000.00000" pt_clust_9="78.43317"></scales>
<clustering>
<clus scale="   78.433">  2  9  1 -1</clus>
<clus scale="   92.293">  7  8 -1 -1</clus>
<clus scale="   98.853">  5  6 -1 -1</clus>
<clus scale="  107.415">  2  7  1 -1</clus>
<clus scale="   78.433">  2  5  1 -1</clus>
</clustering>
</event>
<event>
 9    1  0.1636528E-005  0.1354691E+03  0.7546771E-02  0.1220219E+00
         21   -1    0    0  501  502  0.00000000000E+00  0.00000000000E+00  0.43751113493E+03  0.43751113493E+03  0.00000000000E+00 0. -1.
          1   -1    0    0  502    0 -0.00000000000E+00 -0.00000000000E+00 -0.30483985585E+03  0.30483985585E+03  0.00000000000E+00 0. -1.
         23    2    1    2    0    0  0.45348804571E+02  0.86039114960E+02 -0.25566763102E+03  0.28865279146E+03  0.92169697209E+02 0.  0.
         23    2    1    2    0    0 -0.10458772214E+03 -0.89977599299E+02  0.21619469441E+03  0.27160374029E+03  0.89408533420E+02 0.  0.
        -11    1    4    4    0    0 -0.20538238296E+02 -0.11114155022E+02 -0.34016815707E+01  0.23599048956E+02  0.00000000000E+00 0.  1.
         11    1    4    4    0    0 -0.84049483848E+02 -0.78863444277E+02  0.21959637598E+03  0.24800469133E+03  0.00000000000E+00 0. -1.
        -11    1    3    3    0    0  0.57285020428E+02  0.59809373066E+02 -0.97700631818E+02  0.12807867945E+03  0.00000000000E+00 0.  1.
         11    1    3    3    0    0 -0.11936215857E+02  0.26229741894E+02 -0.15796699921E+03  0.16057411201E+03  0.00000000000E+00 0. -1.
          1    1    1    2  501    0  0.59238917573E+02  0.39384843382E+01  0.17214421570E+03  0.18209445904E+03  0.00000000000E+00 0. -1.
<scales pt_clust_5="13000.00000" pt_clust_6="13000.00000" pt_clust_7="13000.00000" pt_clust_8="13000.00000" pt_clust_9="59.36970"></scales>
<clustering>
<clus scale="   59.370">  1  9  2 -1</clus>
<clus scale="   89.409">  5  6 -1 -1</clus>
<clus scale="   92.170">  7  8 -1 -1</clus>
<clus scale="  133.606">  1  5  2 -1</clus>
<clus scale="   59.370">  1  5  2 -1</clus>
</clustering>
</event>
<event>
 9    1  0.1636528E-005  0.9402688E+02  0.7546771E-02  0.1295134E+00
         21   -1    0    0  501  502  0.00000000000E+00  0.00000000000E+00  0.81809646236E+02  0.81809646236E+02  0.00000000000E+00 0.  1.
          1   -1    0    0  502    0 -0.00000000000E+00 -0.00000000000E+00 -0.17616521437E+03  0.17616521437E+03  0.00000000000E+00 0. -1.
         23    2    1    2    0    0 -0.13064519167E+02  0.10078745002E+02 -0.72468782396E+02  0.11971367414E+03  0.93847624335E+02 0.  0.
         23    2    1    2    0    0 -0.69098303461E+01  0.22167597002E+02 -0.31904083390E+02  0.99029216548E+02  0.90828228437E+02 0.  0.
        -13    1    3    3    0    0 -0.38629892050E+02 -0.23632970259E+02 -0.13725316953E+02  0.47319870758E+02  0.00000000000E+00 0. -1.
         13    1    3    3    0    0  0.25565372884E+02  0.33711715261E+02 -0.58743465443E+02  0.72393803386E+02  0.00000000000E+00 0.  1.
        -13    1    4    4    0    0 -0.20787723438E+02  0.50881907793E+02 -0.37650862939E+02  0.66623460331E+02  0.00000000000E+00 0. -1.
         13    1    4    4    0    0  0.13877893092E+02 -0.28714310790E+02  0.57467795494E+01  0.32405756218E+02  0.00000000000E+00 0.  1.
          1    1    1    2  501    0  0.19974349513E+02 -0.32246342004E+02  0.10017297651E+02  0.39231969914E+02  0.00000000000E+00 0. -1.
<scales pt_clust_5="13000.00000" pt_clust_6="13000.00000" pt_clust_7="13000.00000" pt_clust_8="13000.00000" pt_clust_9="37.93153"></scales>
<clustering>
<clus scale="   37.932">  1  9  2 -1</clus>
<clus scale="   90.828">  7  8 -1 -1</clus>
<clus scale="   91.013">  1  7  2 -1</clus>
<clus scale="   93.848">  5  6 -1 -1</clus>
<clus scale="   37.932">  1  5  2 -1</clus>
</clustering>
</event>
<event>
 9    1  0.1636528E-005  0.1383499E+03  0.7546771E-02  0.1215703E+00
          2   -1    0    0  502    0 -0.00000000000E+00  0.00000000000E+00  0.10863124648E+04  0.10863124648E+04  0.00000000000E+00 0.  1.
         21   -1    0    0  501  502  0.00000000000E+00 -0.00000000000E+00 -0.26870841519E+02  0.26870841519E+02  0.00000000000E+00 0.  1.
         23    2    1    2    0    0 -0.11002716219E+03  0.20494688479E+02  0.58251272424E+03  0.60021582812E+03  0.91716725575E+02 0.  0.
         23    2    1    2    0    0  0.87312437155E+02  0.21754387635E+01  0.22020238159E+03  0.25424291778E+03  0.92315644212E+02 0.  0.
        -13    1    4    4    0    0  0.75876240762E+02  0.26853850798E+02  0.87941713589E+02  0.11921442112E+03  0.00000000000E+00 0.  1.
         13    1    4    4    0    0  0.11436196394E+02 -0.24678412035E+02  0.13226066800E+03  0.13502849666E+03  0.00000000000E+00 0. -1.
        -13    1    3    3    0    0 -0.19896042298E+02  0.41745146107E+02  0.12168034625E+03  0.13017148838E+03  0.00000000000E+00 0.  1.
         13    1    3    3    0    0 -0.90131119891E+02 -0.21250457627E+02  0.46083237799E+03  0.47004433974E+03  0.00000000000E+00 0. -1.
          2    1    1    2  501    0  0.22714725033E+02 -0.22670127243E+02  0.25672651748E+03  0.25872456045E+03  0.00000000000E+00 0.  1.
<scales pt_clust_5="13000.00000" pt_clust_6="13000.00000" pt_clust_7="13000.00000" pt_clust_8="13000.00000" pt_clust_9="32.09197"></scales>
<clustering>
<clus scale="   32.092">  2  9  1 -1</clus>
<clus scale="   91.717">  7  8 -1 -1</clus>
<clus scale="   92.316">  5  6 -1 -1</clus>
<clus scale="  137.951">  1  7  2 -1</clus>
<clus scale="   32.092">  2  5  1 -1</clus>
</clustering>
</event>
<event>
 9    1  0.1636528E-005  0.9444708E+02  0.7546771E-02  0.1292918E+00
          3   -1    0    0  502    0 -0.00000000000E+00  0.00000000000E+00  0.14782847394E+03  0.14782847394E+03  0.00000000000E+00 0. -1.
         21   -1    0    0  501  502  0.00000000000E+00 -0.00000000000E+00 -0.22097752925E+03  0.22097752925E+03  0.00000000000E+00 0.  1.
         23    2    1    2    0    0 -0.28110014542E+01  0.99665759154E+01  0.84887263001E+02  0.12601879901E+03  0.92561633079E+02 0.  0.
         23    2    1    2    0    0 -0.30804156423E+02 -0.53232918412E+02 -0.49055795500E+02  0.12080888814E+03  0.91682477749E+02 0.  0.
        -11    1    4    4    0    0 -0.75530587060E+01  0.19822358712E+02 -0.37766495185E+02  0.43316079685E+02  0.00000000000E+00 0.  1.
         11    1    4    4    0    0 -0.23251097717E+02 -0.73055277125E+02 -0.11289300315E+02  0.77492808456E+02  0.00000000000E+00 0. -1.
        -13    1    3    3    0    0  0.10553558917E+02 -0.39284298877E+02  0.48727911336E+02  0.63474743696E+02  0.00000000000E+00 0. -1.
         13    1    3    3    0    0 -0.13364560371E+02  0.49250874792E+02  0.36159351664E+02  0.62544055309E+02  0.00000000000E+00 0.  1.
          3    1    1    2  501    0  0.33615157877E+02  0.43266342497E+02 -0.10898052282E+03  0.12197831605E+03  0.00000000000E+00 0. -1.
<scales pt_clust_5="13000.00000" pt_clust_6="13000.00000" pt_clust_7="13000.00000" pt_clust_8="13000.00000" pt_clust_9="54.79010"></scales>
<clustering>
<clus scale="   54.790">  2  9  1 -1</clus>
<clus scale="   91.682">  5  6 -1 -1</clus>
<clus scale="   92.562">  7  8 -1 -1</clus>
<clus scale="   93.586">  2  5  1 -1</clus>
<clus scale="   54.790">  2  5  1 -1</clus>
</clustering>
</event>
<event>
 9    1  0.1636528E-005  0.1099474E+03  0.7546771E-02  0.1261981E+00
          2   -1    0    0  502    0 -0.00000000000E+00  0.00000000000E+00  0.22245032044E+03  0.22245032044E+03  0.00000000000E+00 0. -1.
         21   -1    0    0  501  502  0.00000000000E+00 -0.00000000000E+00 -0.89946544744E+02  0.89946544744E+02  0.00000000000E+00 0. -1.
         23    2    1    2    0    0  0.25541789346E+02  0.60345525896E+02  0.11729317602E+03  0.16151487333E+03  0.89640390828E+02 0.  0.
         23    2    1    2    0    0 -0.22755374913E+01 -0.49763009143E+02  0.42301204293E+02  0.11363673719E+03  0.92964407192E+02 0.  0.
        -13    1    3    3    0    0 -0.10290720039E+02 -0.20272657439E+02  0.26556548552E+02  0.34958973519E+02  0.00000000000E+00 0. -1.
         13    1    3    3    0    0  0.35832509385E+02  0.80618183334E+02  0.90736627472E+02  0.12655589981E+03  0.00000000000E+00 0.  1.
        -13    1    4    4    0    0  0.40381201594E+02 -0.41390536734E+02  0.82372781204E+01  0.58409508850E+02  0.00000000000E+00 0.  1.
         13    1    4    4    0    0 -0.42656739086E+02 -0.83724724090E+01  0.34063926172E+02  0.55227228338E+02  0.00000000000E+00 0. -1.
          2    1    1    2  501    0 -0.23266251855E+02 -0.10582516753E+02 -0.27090604619E+02  0.37245254662E+02  0.00000000000E+00 0. -1.
<scales pt_clust_5="13000.00000" pt_clust_6="13000.00000" pt_clust_7="13000.00000" pt_clust_8="13000.00000" pt_clust_9="25.55989"></scales>
<clustering>
<clus scale="   25.560">  2  9  1 -1</clus>
<clus scale="   89.640">  5  6 -1 -1</clus>
<clus scale="   92.964">  7  8 -1 -1</clus>
<clus scale="  107.152">  1  5  2 -1</clus>
<clus scale="   25.560">  2  5  1 -1</clus>
</clustering>
</event>
<event>
 9    1  0.1636528E-005  0.1186816E+03  0.7546771E-02  0.1246156E+00
         -1   -1    0    0    0  501 -0.00000000000E+00  0.00000000000E+00  0.49700279938E+03  0.49700279938E+03  0.00000000000E+00 0.  1.
         21   -1    0    0  501  502  0.00000000000E+00 -0.00000000000E+00 -0.47379473123E+02  0.47379473123E+02  0.00000000000E+00 0. -1.
         23    2    1    2    0    0  0.32825071061E+02 -0.69082704369E+02  0.30703002894E+03  0.32945846203E+03  0.91790708650E+02 0.  0.
         23    2    1    2    0    0 -0.59734675094E+02  0.35502924563E+02  0.96053243713E+02  0.15153844158E+03  0.94387417531E+02 0.  0.
        -11    1    3    3    0    0  0.47782726760E+02 -0.33444334716E+02  0.26894713756E+03  0.27519861064E+03  0.00000000000E+00 0.  1.
         11    1    3    3    0    0 -0.14957655699E+02 -0.35638369653E+02  0.38082891388E+02  0.54259851382E+02  0.00000000000E+00 0. -1.
        -13    1    4    4    0    0 -0.48660479904E+02 -0.76805343971E+01  0.42042352478E+01  0.49441971109E+02  0.00000000000E+00 0. -1.
         13    1    4    4    0    0 -0.11074195190E+02  0.43183458960E+02  0.91849008466E+02  0.10209647047E+03  0.00000000000E+00 0.  1.
         -1    1    1    2    0  502  0.26909604033E+02  0.33579779806E+02  0.46540053602E+02  0.63385368898E+02  0.00000000000E+00 0.  1.
<scales pt_clust_5="13000.00000" pt_clust_6="13000.00000" pt_clust_7="13000.00000" pt_clust_8="13000.00000" pt_clust_9="43.03171"></scales>
<clustering>
<clus scale="   43.032">  2  9  1 -1</clus>
<clus scale="   91.791">  5  6 -1 -1</clus>
<clus scale="   94.387">  7  8 -1 -1</clus>
<clus scale="  116.627">  1  5  2 -1</clus>
<clus scale="   43.032">  2  5  1 -1</clus>
</clustering>
</event>
<event>
 9    1  0.1636528E-005  0.1405163E+03  0.7546771E-02  0.1225176E+00
         21   -1    0    0  501  502  0.00000000000E+00  0.00000000000E+00  0.28469595243E+03  0.28469595243E+03  0.00000000000E+00 0. -1.
         -4   -1    0    0    0  501 -0.00000000000E+00 -0.00000000000E+00 -0.16539815888E+03  0.16539815888E+03  0.00000000000E+00 0.  1.
         23    2    1    2    0    0 -0.11978603175E+02 -0.57512999234E+02 -0.67433829419E+02  0.12726946341E+03  0.90548125056E+02 0.  0.
         23    2    1    2    0    0  0.23920345401E+02 -0.84054480010E+02  0.82416249145E+02  0.14657013420E+03  0.83982305171E+02 0.  0.
        -11    1    3    3    0    0 -0.43557738446E+02 -0.50708275591E+02 -0.67452497242E+02  0.94965494660E+02  0.00000000000E+00 0. -1.
         11    1    3    3    0    0  0.31579135271E+02 -0.68047236429E+01  0.18667822998E-01  0.32303968747E+02  0.00000000000E+00 0.  1.
        -13    1    4    4    0    0 -0.31408063278E+02 -0.25853231070E+02  0.31937888988E+02  0.51719287975E+02  0.00000000000E+00 0.  1.
         13    1    4    4    0    0  0.55328408679E+02 -0.58201248940E+02  0.50478360157E+02  0.94850846223E+02  0.00000000000E+00 0. -1.
         -4    1    1    2    0  502 -0.11941742226E+02  0.14156747924E+03  0.10431537382E+03  0.17625451371E+03  0.00000000000E+00 0.  1.
<scales pt_clust_5="13000.00000" pt_clust_6="13000.00000" pt_clust_7="13000.00000" pt_clust_8="13000.00000" pt_clust_9="112.65793"></scales>
<clustering>
<clus scale="   83.982">  7  8 -1 -1</clus>
<clus scale="   90.548">  5  6 -1 -1</clus>
<clus scale="  107.936">  2  5  1 -1</clus>
<clus scale="  112.658">  1  9  2 -1</clus>
<clus scale="  112.658">  1  5  2 -1</clus>
</clustering>
</event>
<event>
 9    1  0.1636528E-005  0.9082051E+02  0.7546771E-02  0.1301830E+00
         21   -1    0    0  501  502  0.00000000000E+00  0.00000000000E+00  0.66896601819E+02  0.66896601819E+02  0.00000000000E+00 0.  1.
          1   -1    0    0  502    0 -0.00000000000E+00 -0.00000000000E+00 -0.19168419999E+03  0.19168419999E+03  0.00000000000E+00 0. -1.
         23    2    1    2    0    0 -0.55438603835E+01  0.29977577268E+00 -0.10310469261E+03  0.13750390433E+03  0.90807058177E+02 0.  0.
         23    2    1    2    0    0 -0.17381588321E+02  0.52969123452E+01 -0.32249878670E+01  0.91117026952E+02  0.89228555748E+02 0.  0.
        -11    1    3    3    0    0 -0.46056720061E+02 -0.13329082791E+02 -0.59930231248E+02  0.76749713539E+02  0.00000000000E+00 0.  1.
         11    1    3    3    0    0  0.40512859678E+02  0.13628858564E+02 -0.43174461364E+02  0.60754190794E+02  0.00000000000E+00 0. -1.
        -13    1    4    4    0    0  0.38607015538E+01 -0.37168484383E+02 -0.17878689324E+02  0.41425219128E+02  0.00000000000E+00 0.  1.
         13    1    4    4    0    0 -0.21242289875E+02  0.42465396729E+02  0.14653701457E+02  0.49691807824E+02  0.00000000000E+00 0. -1.
          1    1    1    2  501    0  0.22925448704E+02 -0.55966881179E+01 -0.18457917689E+02  0.29959870521E+02  0.00000000000E+00 0. -1.
<scales pt_clust_5="13000.00000" pt_clust_6="13000.00000" pt_clust_7="13000.00000" pt_clust_8="13000.00000" pt_clust_9="23.59872"></scales>
<clustering>
<clus scale="   23.599">  1  9  2 -1</clus>
<clus scale="   89.229">  7  8 -1 -1</clus>
<clus scale="   89.242">  1  7  2 -1</clus>
<clus scale="   90.807">  5  6 -1 -1</clus>
<clus scale="   23.599">  1  5  2 -1</clus>
</clustering>
</event>
<event>
 9    1  0.1636528E-005  0.1019972E+03  0.7546771E-02  0.1276730E+00
         21   -1    0    0  501  502  0.00000000000E+00  0.00000000000E+00  0.10332848279E+03  0.10332848279E+03  0.00000000000E+00 0.  1.
          1   -1    0    0  502    0 -0.00000000000E+00 -0.00000000000E+00 -0.17748256784E+03  0.17748256784E+03  0.00000000000E+00 0. -1.
         23    2    1    2    0    0 -0.14111774564E+02  0.33552592719E+02 -0.10520863827E+03  0.14535500347E+03  0.93457481288E+02 0.  0.
         23    2    1    2    0    0  0.13221027953E+02 -0.55894862093E+02  0.31377766169E+02  0.11309369270E+03  0.92231165718E+02 0.  0.
        -13    1    4    4    0    0  0.28740006654E+02  0.15607464916E+02  0.21795735343E+02  0.39301845029E+02  0.00000000000E+00 0. -1.
         13    1    4    4    0    0 -0.15518978701E+02 -0.71502327009E+02  0.95820308260E+01  0.73791847668E+02  0.00000000000E+00 0.  1.
        -13    1    3    3    0    0 -0.42243580071E+01  0.65690920183E+02 -0.60440288943E+02  0.89365377650E+02  0.00000000000E+00 0. -1.
         13    1    3    3    0    0 -0.98874165565E+01 -0.32138327464E+02 -0.44768349325E+02  0.55989625822E+02  0.00000000000E+00 0.  1.
          1    1    1    2  501    0  0.89074661090E+00  0.22342269374E+02 -0.32321295293E+00  0.22362354458E+02  0.00000000000E+00 0. -1.
<scales pt_clust_5="13000.00000" pt_clust_6="13000.00000" pt_clust_7="13000.00000" pt_clust_8="13000.00000" pt_clust_9="22.36002"></scales>
<clustering>
<clus scale="   22.360">  1  9  2 -1</clus>
<clus scale="   92.231">  5  6 -1 -1</clus>
<clus scale="   93.457">  7  8 -1 -1</clus>
<clus scale="  100.875">  1  5  2 -1</clus>
<clus scale="   22.360">  1  5  2 -1</clus>
</clustering>
</event>
<event>
 9    1  0.1636528E-005  0.1501150E+03  0.7546771E-02  0.1215767E+00
          4   -1    0    0  502    0 -0.00000000000E+00  0.00000000000E+00  0.54579885335E+02  0.54579885335E+02  0.00000000000E+00 0. -1.
         21   -1    0    0  501  502  0.00000000000E+00 -0.00000000000E+00 -0.12251000092E+04  0.12251000092E+04  0.00000000000E+00 0.  1.
         23    2    1    2    0    0 -0.49138968077E+02  0.27772894900E+02 -0.49780260082E+02  0.11878022154E+03  0.91895020871E+02 0.  0.
         23    2    1    2    0    0  0.41252129952E+02 -0.14455810511E+03 -0.49010895799E+03  0.51949782791E+03  0.84097672508E+02 0.  0.
        -13    1    4    4    0    0  0.92031562456E+01 -0.13697976044E+03 -0.42341220012E+03  0.44511351818E+03  0.00000000000E+00 0.  1.
         13    1    4    4    0    0  0.32048973707E+02 -0.75783446670E+01 -0.66696757875E+02  0.74384309734E+02  0.00000000000E+00 0. -1.
        -13    1    3    3    0    0 -0.72843181339E+01  0.52897193865E+02 -0.69663063380E+01  0.53848898164E+02  0.00000000000E+00 0.  1.
         13    1    3    3    0    0 -0.41854649943E+02 -0.25124298965E+02 -0.42813953744E+02  0.64931323377E+02  0.00000000000E+00 0. -1.
          4    1    1    2  501    0  0.78868381247E+01  0.11678521021E+03 -0.63063090581E+03  0.64140184511E+03  0.00000000000E+00 0. -1.
<scales pt_clust_5="13000.00000" pt_clust_6="13000.00000" pt_clust_7="13000.00000" pt_clust_8="13000.00000" pt_clust_9="124.34663"></scales>
<clustering>
<clus scale="   84.098">  5  6 -1 -1</clus>
<clus scale="   91.895">  7  8 -1 -1</clus>
<clus scale="  107.846">  1  7  2 -1</clus>
<clus scale="  124.347">  2  9  1 -1</clus>
<clus scale="  124.347">  2  5  1 -1</clus>
</clustering>
</event>
<event>
 9    1  0.1636528E-005  0.1261844E+03  0.7546771E-02  0.1234230E+00
         21   -1    0    0  501  502  0.00000000000E+00  0.00000000000E+00  0.32702626374E+03  0.32702626374E+03  0.00000000000E+00 0.  1.
          1   -1    0    0  502    0 -0.00000000000E+00 -0.00000000000E+00 -0.11316615941E+03  0.11316615941E+03  0.00000000000E+00 0. -1.
         23    2    1    2    0    0  0.59177256236E+02  0.38874068567E+02  0.10395704284E+01  0.11816026030E+03  0.94591889421E+02 0.  0.
         23    2    1    2    0    0 -0.79229185381E+02 -0.65505404041E+02  0.35903581982E+02  0.14200184382E+03  0.91144032579E+02 0.  0.
        -13    1    3    3    0    0 -0.13674180016E+02  0.42920700512E+02  0.32466065276E+01  0.45163150748E+02  0.00000000000E+00 0.  1.
         13    1    3    3    0    0  0.72851436252E+02 -0.40466319448E+01 -0.22070360991E+01  0.72997109549E+02  0.00000000000E+00 0. -1.
        -13    1    4    4    0    0 -0.81730105329E+02 -0.41545085806E+02  0.58676027505E+02  0.10885164434E+03  0.00000000000E+00 0.  1.
         13    1    4    4    0    0  0.25009199479E+01 -0.23960318235E+02 -0.22772445524E+02  0.33150199481E+02  0.00000000000E+00 0. -1.
          1    1    1    2  501    0  0.20051929144E+02  0.26631335474E+02  0.17691695192E+03  0.18003031903E+03  0.00000000000E+00 0. -1.
<scales pt_clust_5="13000.00000" pt_clust_6="13000.00000" pt_clust_7="13000.00000" pt_clust_8="13000.00000" pt_clust_9="33.33628"></scales>
<clustering>
<clus scale="   33.336">  1  9  2 -1</clus>
<clus scale="   91.144">  7  8 -1 -1</clus>
<clus scale="   94.592">  5  6 -1 -1</clus>
<clus scale="  123.621">  1  7  2 -1</clus>
<clus scale="   33.336">  1  5  2 -1</clus>
</clustering>
</event>
<event>
 9    1  0.1636528E-005  0.1016509E+03  0.7546771E-02  0.1278132E+00
         21   -1    0    0  501  502  0.00000000000E+00  0.00000000000E+00  0.75319007418E+03  0.75319007418E+03  0.00000000000E+00 0. -1.
          1   -1    0    0  502    0 -0.00000000000E+00 -0.00000000000E+00 -0.74407792197E+02  0.74407792197E+02  0.00000000000E+00 0. -1.
         23    2    1    2    0    0 -0.25459702535E+02 -0.34418887086E+02 -0.27255883255E+02  0.10489659140E+03  0.91801718248E+02 0.  0.
         23    2    1    2    0    0  0.64826823345E+02  0.19125562679E+02  0.52965263083E+03  0.54133007352E+03  0.89095650709E+02 0.  0.
        -11    1    4    4    0    0  0.43212978601E+02 -0.31963981796E+02  0.20273023892E+03  0.20973461189E+03  0.00000000000E+00 0.  1.
         11    1    4    4    0    0  0.21613844744E+02  0.51089544476E+02  0.32692239191E+03  0.33159546163E+03  0.00000000000E+00 0. -1.
        -11    1    3    3    0    0  0.34049679917E+02 -0.12082444799E+02 -0.10554709451E+01  0.36145265163E+02  0.00000000000E+00 0.  1.
         11    1    3    3    0    0 -0.59509382452E+02 -0.22336442287E+02 -0.26200412309E+02  0.68751326235E+02  0.00000000000E+00 0. -1.
          1    1    1    2  501    0 -0.39367120811E+02  0.15293324407E+02  0.17638553440E+03  0.18137120146E+03  0.00000000000E+00 0. -1.
<scales pt_clust_5="13000.00000" pt_clust_6="13000.00000" pt_clust_7="13000.00000" pt_clust_8="13000.00000" pt_clust_9="42.23335"></scales>
<clustering>
<clus scale="   42.233">  1  9  2 -1</clus>
<clus scale="   89.096">  5  6 -1 -1</clus>
<clus scale="   91.802">  7  8 -1 -1</clus>
<clus scale="   99.214">  1  5  2 -1</clus>
<clus scale="   42.233">  1  5  2 -1</clus>
</clustering>
</event>
<event>
 9    1  0.1636528E-005  0.1761450E+03  0.7546771E-02  0.1199573E+00
         21   -1    0    0  501  502  0.00000000000E+00  0.00000000000E+00  0.51711080304E+03  0.51711080304E+03  0.00000000000E+00 0.  1.
         -4   -1    0    0    0  501 -0.00000000000E+00 -0.00000000000E+00 -0.14276198429E+03  0.14276198429E+03  0.00000000000E+00 0.  1.
         23    2    1    2    0    0  0.22988093011E+02  0.13239402639E+02 -0.10507307015E+02  0.95042055827E+02  0.90657899119E+02 0.  0.
         23    2    1    2    0    0 -0.15089153168E+03  0.61112560237E+02  0.42303166083E+02  0.19169532151E+03  0.91948567566E+02 0.  0.
        -11    1    3    3    0    0  0.28749117211E+02  0.49740448150E+02 -0.79832183404E+01  0.58003066278E+02  0.00000000000E+00 0.  1.
         11    1    3    3    0    0 -0.57610242000E+01 -0.36501045511E+02 -0.25240886743E+01  0.37038989550E+02  0.00000000000E+00 0. -1.
        -13    1    4    4    0    0 -0.92863324533E+02  0.56063992254E+02 -0.15568563425E+02  0.10958626026E+03  0.00000000000E+00 0.  1.
         13    1    4    4    0    0 -0.58028207149E+02  0.50485679829E+01  0.57871729508E+02  0.82109061253E+02  0.00000000000E+00 0. -1.
         -4    1    1    2    0  502  0.12790343867E+03 -0.74351962876E+02  0.34255295968E+03  0.37313540999E+03  0.00000000000E+00 0.  1.
<scales pt_clust_5="13000.00000" pt_clust_6="13000.00000" pt_clust_7="13000.00000" pt_clust_8="13000.00000" pt_clust_9="150.24159"></scales>
<clustering>
<clus scale="   90.658">  5  6 -1 -1</clus>
<clus scale="   91.949">  7  8 -1 -1</clus>
<clus scale="   94.459">  2  5  1 -1</clus>
<clus scale="  150.242">  1  9  2 -1</clus>
<clus scale="  150.242">  1  5  2 -1</clus>
</clustering>
</event>
<event>
 9    1  0.1636528E-005  0.9465846E+02  0.7546771E-02  0.1292086E+00
         21   -1    0    0  501  502  0.00000000000E+00  0.00000000000E+00  0.23404248627E+03  0.23404248627E+03  0.00000000000E+00 0.  1.
          3   -1    0    0  502    0 -0.00000000000E+00 -0.00000000000E+00 -0.81539612367E+02  0.81539612367E+02  0.00000000000E+00 0. -1.
         23    2    1    2    0    0 -0.17784106915E+02 -0.18265765436E+02 -0.25014827617E+02  0.98214782681E+02  0.91490378132E+02 0.  0.
         23    2    1    2    0    0 -0.26645101352E+01  0.27745741324E+02  0.10708873509E+03  0.14341966424E+03  0.91237476572E+02 0.  0.
        -13    1    3    3    0    0 -0.37192604980E+02  0.94780200934E+00  0.22450378662E+02  0.43453511894E+02  0.00000000000E+00 0.  1.
         13    1    3    3    0    0  0.19408498065E+02 -0.19213567446E+02 -0.47465206279E+02  0.54761270787E+02  0.00000000000E+00 0. -1.
        -13    1    4    4    0    0 -0.56297854145E+01 -0.32707259232E+02  0.51332527680E+02  0.61126816442E+02  0.00000000000E+00 0. -1.
         13    1    4    4    0    0  0.29652752793E+01  0.60453000557E+02  0.55756207415E+02  0.82292847800E+02  0.00000000000E+00 0.  1.
          3    1    1    2  501    0  0.20448617051E+02 -0.94799758881E+01  0.70428966423E+02  0.73947651711E+02  0.00000000000E+00 0. -1.
<scales pt_clust_5="13000.00000" pt_clust_6="13000.00000" pt_clust_7="13000.00000" pt_clust_8="13000.00000" pt_clust_9="22.53921"></scales>
<clustering>
<clus scale="   22.539">  1  9  2 -1</clus>
<clus scale="   91.237">  7  8 -1 -1</clus>
<clus scale="   91.490">  5  6 -1 -1</clus>
<clus scale="   94.414">  1  7  2 -1</clus>
<clus scale="   22.539">  1  5  2 -1</clus>
</clustering>
</event>
<event>
 9    1  0.1636528E-005  0.1014882E+03  0.7546771E-02  0.1277882E+00
         21   -1    0    0  501  502  0.00000000000E+00  0.00000000000E+00  0.50373420422E+03  0.50373420422E+03  0.00000000000E+00 0. -1.
         -2   -1    0    0    0  501 -0.00000000000E+00 -0.00000000000E+00 -0.37540737489E+02  0.37540737489E+02  0.00000000000E+00 0.  1.
         23    2    1    2    0    0 -0.16467549044E+01  0.32523094400E+02  0.10956845575E+03  0.14636206223E+03  0.91411942840E+02 0.  0.
         23    2    1    2    0    0 -0.20948369928E+02 -0.49371574313E+02  0.13942623013E+03  0.17589296864E+03  0.92856212585E+02 0.  0.
        -13    1    3    3    0    0 -0.38512830672E+02  0.33183301261E+02  0.92894934099E+02  0.10589541251E+03  0.00000000000E+00 0. -1.
         13    1    3    3    0    0  0.36866075767E+02 -0.66020686071E+00  0.16673521654E+02  0.40466649724E+02  0.00000000000E+00 0.  1.
        -13    1    4    4    0    0 -0.26907398936E+01 -0.75148807637E+02  0.10527246865E+03  0.12937107879E+03  0.00000000000E+00 0.  1.
         13    1    4    4    0    0 -0.18257630034E+02  0.25777233324E+02  0.34153761473E+02  0.46521889848E+02  0.00000000000E+00 0. -1.
         -2    1    1    2    0  502  0.22595124832E+02  0.16848479913E+02  0.21719878086E+03  0.21901991084E+03  0.00000000000E+00 0.  1.
<scales pt_clust_5="13000.00000" pt_clust_6="13000.00000" pt_clust_7="13000.00000" pt_clust_8="13000.00000" pt_clust_9="28.18530"></scales>
<clustering>
<clus scale="   28.185">  1  9  2 -1</clus>
<clus scale="   91.412">  5  6 -1 -1</clus>
<clus scale="   92.856">  7  8 -1 -1</clus>
<clus scale="  100.168">  2  5  1 -1</clus>
<clus scale="   28.185">  1  5  2 -1</clus>
</clustering>
</event>
<event>
 9    1  0.1636528E-005  0.1438483E+03  0.7546771E-02  0.1208329E+00
         21   -1    0    0  501  502  0.00000000000E+00  0.00000000000E+00  0.17677881923E+03  0.17677881923E+03  0.00000000000E+00 0. -1.
          4   -1    0    0  502    0 -0.00000000000E+00 -0.00000000000E+00 -0.60574106811E+03  0.60574106811E+03  0.00000000000E+00 0. -1.
         23    2    1    2    0    0 -0.32713386573E+02  0.12628874855E+03 -0.45296399803E+03  0.48006311044E+03  0.90913105844E+02 0.  0.
         23    2    1    2    0    0 -0.33637743935E+02 -0.76528531072E+02 -0.96279936101E+02  0.15635326712E+03  0.90489801400E+02 0.  0.
        -11    1    4    4    0    0  0.29993742898E+02 -0.11288629993E+02 -0.26024551272E+02  0.41283592977E+02  0.00000000000E+00 0.  1.
         11    1    4    4    0    0 -0.63631486833E+02 -0.65239901079E+02 -0.70255384828E+02  0.11506967414E+03  0.00000000000E+00 0. -1.
        -11    1    3    3    0    0  0.31285914682E+02  0.54354408915E+02 -0.18150110011E+03  0.19203088181E+03  0.00000000000E+00 0.  1.
         11    1    3    3    0    0 -0.63999301255E+02  0.71934339634E+02 -0.27146289792E+03  0.28803222863E+03  0.00000000000E+00 0. -1.
          4    1    1    2  501    0  0.66351130508E+02 -0.49760217478E+02  0.12028168526E+03  0.14610350979E+03  0.00000000000E+00 0. -1.
<scales pt_clust_5="13000.00000" pt_clust_6="13000.00000" pt_clust_7="13000.00000" pt_clust_8="13000.00000" pt_clust_9="82.93703"></scales>
<clustering>
<clus scale="   82.937">  1  9  2 -1</clus>
<clus scale="   90.490">  5  6 -1 -1</clus>
<clus scale="   90.913">  7  8 -1 -1</clus>
<clus scale="  143.581">  1  5  2 -1</clus>
<clus scale="   82.937">  1  5  2 -1</clus>
</clustering>
</event>
<event>
 9    1  0.1636528E-005  0.9719691E+02  0.7546771E-02  0.1286802E+00
         21   -1    0    0  501  502  0.00000000000E+00  0.00000000000E+00  0.71997364894E+03  0.71997364894E+03  0.00000000000E+00 0.  1.
         -3   -1    0    0    0  501 -0.00000000000E+00 -0.00000000000E+00 -0.19129332834E+02  0.19129332834E+02  0.00000000000E+00 0.  1.
         23    2    1    2    0    0  0.52138471490E+01 -0.32216100532E+02  0.21978938223E+03  0.24062486174E+03  0.92346576599E+02 0.  0.
         23    2    1    2    0    0 -0.28012820657E+02  0.18551313524E+02  0.29802649880E+03  0.31352967413E+03  0.91390334381E+02 0.  0.
        -13    1    4    4    0    0 -0.20083060155E+02 -0.33277440247E+02  0.75593033563E+02  0.85000141517E+02  0.00000000000E+00 0. -1.
         13    1    4    4    0    0 -0.79297605015E+01  0.51828753771E+02  0.22243346523E+03  0.22852953261E+03  0.00000000000E+00 0.  1.
        -13    1    3    3    0    0 -0.22160621314E+02 -0.42975453342E+02  0.55005446896E+02  0.73236479402E+02  0.00000000000E+00 0.  1.
         13    1    3    3    0    0  0.27374468463E+02  0.10759352810E+02  0.16478393534E+03  0.16738838234E+03  0.00000000000E+00 0. -1.
         -3    1    1    2    0  502  0.22798973508E+02  0.13664787008E+02  0.18302843508E+03  0.18494844591E+03  0.00000000000E+00 0.  1.
<scales pt_clust_5="13000.00000" pt_clust_6="13000.00000" pt_clust_7="13000.00000" pt_clust_8="13000.00000" pt_clust_9="26.58044"></scales>
<clustering>
<clus scale="   26.580">  1  9  2 -1</clus>
<clus scale="   91.390">  5  6 -1 -1</clus>
<clus scale="   92.347">  7  8 -1 -1</clus>
<clus scale="   96.289">  1  5  2 -1</clus>
<clus scale="   26.580">  1  5  2 -1</clus>
</clustering>
</event>
<event>
 9    1  0.1636528E-005  0.9692033E+02  0.7546771E-02  0.1287980E+00
         -2   -1    0    0    0  501 -0.00000000000E+00  0.00000000000E+00  0.11548241894E+03  0.11548241894E+03  0.00000000000E+00 0.  1.
         21   -1    0    0  501  502  0.00000000000E+00 -0.00000000000E+00 -0.20873911103E+03  0.20873911103E+03  0.00000000000E+00 0. -1.
         23    2    1    2    0    0  0.14458351103E+02 -0.13979257515E+02  0.45340987022E+02  0.10528520114E+03  0.92869289417E+02 0.  0.
         23    2    1    2    0    0 -0.14427820912E+02  0.46380836702E+02 -0.32535908330E+02  0.10803564133E+03  0.90850263826E+02 0.  0.
        -11    1    3    3    0    0  0.52574062926E+02 -0.63866702225E+01  0.12530343509E+02  0.54422708105E+02  0.00000000000E+00 0.  1.
         11    1    3    3    0    0 -0.38115711823E+02 -0.75925872928E+01  0.32810643513E+02  0.50862493031E+02  0.00000000000E+00 0. -1.
        -11    1    4    4    0    0  0.22585944858E+02  0.28960691571E+02 -0.51249406255E+02  0.63050362433E+02  0.00000000000E+00 0. -1.
         11    1    4    4    0    0 -0.37013765770E+02  0.17420145131E+02  0.18713497925E+02  0.44985278897E+02  0.00000000000E+00 0.  1.
         -2    1    1    2    0  502 -0.30530190958E-01 -0.32401579187E+02 -0.10606177079E+03  0.11090068750E+03  0.00000000000E+00 0.  1.
<scales pt_clust_5="13000.00000" pt_clust_6="13000.00000" pt_clust_7="13000.00000" pt_clust_8="13000.00000" pt_clust_9="32.40159"></scales>
<clustering>
<clus scale="   32.402">  2  9  1 -1</clus>
<clus scale="   90.850">  7  8 -1 -1</clus>
<clus scale="   92.869">  5  6 -1 -1</clus>
<clus scale="   94.987">  2  7  1 -1</clus>
<clus scale="   32.402">  2  5  1 -1</clus>
</clustering>
</event>
<event>
 9    1  0.1636528E-005  0.9818421E+02  0.7546771E-02  0.1284990E+00
          2   -1    0    0  502    0 -0.00000000000E+00  0.00000000000E+00  0.58601148609E+03  0.58601148609E+03  0.00000000000E+00 0. -1.
         21   -1    0    0  501  502  0.00000000000E+00 -0.00000000000E+00 -0.53816544037E+02  0.53816544037E+02  0.00000000000E+00 0. -1.
         23    2    1    2    0    0 -0.13140950580E-01 -0.33682374704E+02  0.36707183282E+03  0.37990129550E+03  0.91917143869E+02 0.  0.
         23    2    1    2    0    0  0.68936665066E+02  0.19068991254E+02  0.14778094701E+03  0.18736811182E+03  0.90286825238E+02 0.  0.
        -11    1    3    3    0    0 -0.17190956579E+02 -0.58042693026E+02  0.30615963380E+03  0.31208685421E+03  0.00000000000E+00 0. -1.
         11    1    3    3    0    0  0.17177815628E+02  0.24360318322E+02  0.60912199016E+02  0.67814441290E+02  0.00000000000E+00 0.  1.
        -11    1    4    4    0    0  0.21654557558E+01  0.43875221053E+02  0.54438356010E+02  0.69951832186E+02  0.00000000000E+00 0. -1.
         11    1    4    4    0    0  0.66771209310E+02 -0.24806229799E+02  0.93342591000E+02  0.11741627964E+03  0.00000000000E+00 0.  1.
          2    1    1    2  501    0 -0.68923524115E+02  0.14613383450E+02  0.17342162228E+02  0.72558622803E+02  0.00000000000E+00 0. -1.
<scales pt_clust_5="13000.00000" pt_clust_6="13000.00000" pt_clust_7="13000.00000" pt_clust_8="13000.00000" pt_clust_9="70.45568"></scales>
<clustering>
<clus scale="   70.456">  2  9  1 -1</clus>
<clus scale="   90.287">  7  8 -1 -1</clus>
<clus scale="   91.917">  5  6 -1 -1</clus>
<clus scale="   96.660">  2  7  1 -1</clus>
<clus scale="   70.456">  2  5  1 -1</clus>
</clustering>
</event>
<event>
 9    1  0.1636528E-005  0.9393377E+02  0.7546771E-02  0.1294584E+00
         21   -1    0    0  501  502  0.00000000000E+00  0.00000000000E+00  0.15798847400E+03  0.15798847400E+03  0.00000000000E+00 0. -1.
         -1   -1    0    0    0  501 -0.00000000000E+00 -0.00000000000E+00 -0.24593933031E+03  0.24593933031E+03  0.00000000000E+00 0.  1.
         23    2    1    2    0    0  0.15456956769E+02 -0.20224623247E+02 -0.20155014050E+03  0.22175730934E+03  0.88915084281E+02 0.  0.
         23    2    1    2    0    0  0.21145389885E+02  0.29428469502E+02  0.10512534094E+03  0.14348910047E+03  0.90689703470E+02 0.  0.
        -11    1    3    3    0    0  0.18151589181E+02  0.33432536773E+02 -0.97428107787E+02  0.10459182995E+03  0.00000000000E+00 0.  1.
         11    1    3    3    0    0 -0.26946324127E+01 -0.53657160020E+02 -0.10412203271E+03  0.11716547939E+03  0.00000000000E+00 0. -1.
        -13    1    4    4    0    0 -0.29565329193E+02  0.27306421265E+02  0.73182128087E+02  0.83518699726E+02  0.00000000000E+00 0. -1.
         13    1    4    4    0    0  0.50710719078E+02  0.21220482369E+01  0.31943212855E+02  0.59970400746E+02  0.00000000000E+00 0.  1.
         -1    1    1    2    0  502 -0.36602346654E+02 -0.92038462547E+01  0.84739432431E+01  0.38681394501E+02  0.00000000000E+00 0.  1.
<scales pt_clust_5="13000.00000" pt_clust_6="13000.00000" pt_clust_7="13000.00000" pt_clust_8="13000.00000" pt_clust_9="37.74179"></scales>
<clustering>
<clus scale="   37.742">  1  9  2 -1</clus>
<clus scale="   88.915">  5  6 -1 -1</clus>
<clus scale="   90.690">  7  8 -1 -1</clus>
<clus scale="   92.222">  2  5  1 -1</clus>
<clus scale="   37.742">  1  5  2 -1</clus>
</clustering>
</event>
<event>
 9    1  0.1636528E-005  0.3201994E+03  0.7546771E-02  0.1075670E+00
          2   -1    0    0  502    0 -0.00000000000E+00  0.00000000000E+00  0.29524436154E+03  0.29524436154E+03  0.00000000000E+00 0. -1.
         21   -1    0    0  501  502  0.00000000000E+00 -0.00000000000E+00 -0.58033704598E+03  0.58033704598E+03  0.00000000000E+00 0.  1.
         23    2    1    2    0    0 -0.29881946803E+03  0.15475620039E+02  0.60518451941E+02  0.31848014590E+03  0.90744426937E+02 0.  0.
         23    2    1    2    0    0  0.32224011749E+03 -0.28960536788E+02 -0.16323899429E+03  0.37273757752E+03  0.87229160441E+02 0.  0.
        -11    1    4    4    0    0  0.22392269414E+03  0.14606561357E+02 -0.85903296504E+02  0.24027921453E+03  0.00000000000E+00 0.  1.
         11    1    4    4    0    0  0.98317423352E+02 -0.43567098145E+02 -0.77335697785E+02  0.13245836300E+03  0.00000000000E+00 0. -1.
        -13    1    3    3    0    0 -0.59673654288E+02  0.25738270788E+02 -0.16461880426E+02  0.67040264815E+02  0.00000000000E+00 0.  1.
         13    1    3    3    0    0 -0.23914581374E+03 -0.10262650749E+02  0.76980332368E+02  0.25143988109E+03  0.00000000000E+00 0. -1.
          2    1    1    2  501    0 -0.23420649464E+02  0.13484916749E+02 -0.18237214209E+03  0.18436368409E+03  0.00000000000E+00 0. -1.
<scales pt_clust_5="13000.00000" pt_clust_6="13000.00000" pt_clust_7="13000.00000" pt_clust_8="13000.00000" pt_clust_9="27.02535"></scales>
<clustering>
<clus scale="   27.025">  2  9  1 -1</clus>
<clus scale="   87.229">  5  6 -1 -1</clus>
<clus scale="   90.744">  7  8 -1 -1</clus>
<clus scale="  319.221">  2  5  1 -1</clus>
<clus scale="   27.025">  2  5  1 -1</clus>
</clustering>
</event>
<event>
 9    1  0.1636528E-005  0.9684838E+02  0.7546771E-02  0.1287893E+00
         21   -1    0    0  501  502  0.00000000000E+00  0.00000000000E+00  0.20300641468E+03  0.20300641468E+03  0.00000000000E+00 0. -1.
         -3   -1    0    0    0  501 -0.00000000000E+00 -0.00000000000E+00 -0.76441877577E+02  0.76441877577E+02  0.00000000000E+00 0.  1.
         23    2    1    2    0    0 -0.36028818860E+02  0.16761149438E+02  0.24530160547E+02  0.99523442520E+02  0.87887285290E+02 0.  0.
         23    2    1    2    0    0  0.13975838475E+02 -0.37785257780E+02  0.31489935531E+02  0.10308172880E+03  0.89505178657E+02 0.  0.
        -13    1    3    3    0    0 -0.33979542466E+01 -0.23288008695E+02  0.39287662972E+02  0.45797356953E+02  0.00000000000E+00 0.  1.
         13    1    3    3    0    0 -0.32630864613E+02  0.40049158132E+02 -0.14757502426E+02  0.53726085567E+02  0.00000000000E+00 0. -1.
        -13    1    4    4    0    0  0.36459191352E+02 -0.62160967459E+01  0.48301594028E+02  0.60835486999E+02  0.00000000000E+00 0. -1.
         13    1    4    4    0    0 -0.22483352877E+02 -0.31569161034E+02 -0.16811658498E+02  0.42246241802E+02  0.00000000000E+00 0.  1.
         -3    1    1    2    0  502  0.22052980385E+02  0.21024108342E+02  0.70544441026E+02  0.76843120936E+02  0.00000000000E+00 0.  1.
<scales pt_clust_5="13000.00000" pt_clust_6="13000.00000" pt_clust_7="13000.00000" pt_clust_8="13000.00000" pt_clust_9="30.46879"></scales>
<clustering>
<clus scale="   30.469">  1  9  2 -1</clus>
<clus scale="   87.887">  5  6 -1 -1</clus>
<clus scale="   89.505">  7  8 -1 -1</clus>
<clus scale="   95.355">  2  5  1 -1</clus>
<clus scale="   30.469">  1  5  2 -1</clus>
</clustering>
</event>
<event>
 9    1  0.1636528E-005  0.1480190E+03  0.7546771E-02  0.1210707E+00
         21   -1    0    0  501  502  0.00000000000E+00  0.00000000000E+00  0.45921476020E+02  0.45921476020E+02  0.00000000000E+00 0. -1.
          1   -1    0    0  502    0 -0.00000000000E+00 -0.00000000000E+00 -0.12402059570E+04  0.12402059570E+04  0.00000000000E+00 0. -1.
         23    2    1    2    0    0  0.26086661922E+02  0.80340046036E+02 -0.28619586953E+03  0.31240445306E+03  0.92484753503E+02 0.  0.
         23    2    1    2    0    0  0.11081396331E+03 -0.15852010563E+02 -0.18341993438E+03  0.23342224415E+03  0.91170450434E+02 0.  0.
        -13    1    3    3    0    0 -0.98930692050E+01 -0.17973583342E+02 -0.43810498005E+02  0.48376463822E+02  0.00000000000E+00 0.  1.
         13    1    3    3    0    0  0.35979731126E+02  0.98313629379E+02 -0.24238537152E+03  0.26402798924E+03  0.00000000000E+00 0. -1.
        -13    1    4    4    0    0  0.79396738914E+01 -0.35018324622E+02 -0.72653129394E+02  0.81041956366E+02  0.00000000000E+00 0.  1.
         13    1    4    4    0    0  0.10287428942E+03  0.19166314060E+02 -0.11076680499E+03  0.15238028779E+03  0.00000000000E+00 0. -1.
          1    1    1    2  501    0 -0.13690062523E+03 -0.64488035473E+02 -0.72466867706E+03  0.74030073580E+03  0.00000000000E+00 0. -1.
<scales pt_clust_5="13000.00000" pt_clust_6="13000.00000" pt_clust_7="13000.00000" pt_clust_8="13000.00000" pt_clust_9="116.60872"></scales>
<clustering>
<clus scale="   91.170">  7  8 -1 -1</clus>
<clus scale="   92.485">  5  6 -1 -1</clus>
<clus scale="  125.254">  2  5  1 -1</clus>
<clus scale="  116.609">  1  9  2 -1</clus>
<clus scale="  116.609">  1  5  2 -1</clus>
</clustering>
</event>
<event>
 9    1  0.1636528E-005  0.1115337E+03  0.7546771E-02  0.1260650E+00
         21   -1    0    0  501  502  0.00000000000E+00  0.00000000000E+00  0.12606331972E+03  0.12606331972E+03  0.00000000000E+00 0.  1.
          1   -1    0    0  502    0 -0.00000000000E+00 -0.00000000000E+00 -0.32293278832E+03  0.32293278832E+03  0.00000000000E+00 0. -1.
         23    2    1    2    0    0  0.42216324708E+02 -0.27292234686E+02 -0.26672412335E+03  0.28663928785E+03  0.92158771769E+02 0.  0.
         23    2    1    2    0    0 -0.59425299826E+02  0.12711757448E+02  0.36126212176E+02  0.12178161866E+03  0.99159993951E+02 0.  0.
        -11    1    3    3    0    0 -0.22062857815E+02 -0.25677023222E+02 -0.48552173608E+02  0.59189465097E+02  0.00000000000E+00 0.  1.
         11    1    3    3    0    0  0.64279182523E+02 -0.16152114637E+01 -0.21817194974E+03  0.22744982275E+03  0.00000000000E+00 0. -1.
        -13    1    4    4    0    0 -0.37157048889E+02  0.14805767657E+02 -0.31270148198E+02  0.50770849968E+02  0.00000000000E+00 0. -1.
         13    1    4    4    0    0 -0.22268250937E+02 -0.20940102096E+01  0.67396360374E+02  0.71010768692E+02  0.00000000000E+00 0.  1.
          1    1    1    2  501    0  0.17208975118E+02  0.14580477238E+02  0.33728442571E+02  0.40575201532E+02  0.00000000000E+00 0. -1.
<scales pt_clust_5="13000.00000" pt_clust_6="13000.00000" pt_clust_7="13000.00000" pt_clust_8="13000.00000" pt_clust_9="22.55525"></scales>
<clustering>
<clus scale="   22.555">  1  9  2 -1</clus>
<clus scale="   92.159">  5  6 -1 -1</clus>
<clus scale="   99.160">  7  8 -1 -1</clus>
<clus scale="  105.358">  2  5  1 -1</clus>
<clus scale="   22.555">  1  5  2 -1</clus>
</clustering>
</event>
<event>
 9    1  0.1636528E-005  0.1155866E+03  0.7546771E-02  0.1251077E+00
          2   -1    0    0  502    0 -0.00000000000E+00  0.00000000000E+00  0.75042529860E+03  0.75042529860E+03  0.00000000000E+00 0. -1.
         21   -1    0    0  501  502  0.00000000000E+00 -0.00000000000E+00 -0.29081822018E+02  0.29081822018E+02  0.00000000000E+00 0.  1.
         23    2    1    2    0    0 -0.19907775904E+02 -0.52839991312E+02  0.33580566351E+03  0.35267761188E+03  0.91802342306E+02 0.  0.
         23    2    1    2    0    0  0.25178598960E+02  0.95838704170E+02  0.23914243297E+03  0.27415901978E+03  0.90305292302E+02 0.  0.
        -13    1    3    3    0    0 -0.37995122958E+02  0.25087767769E+01  0.21761758917E+03  0.22092382951E+03  0.00000000000E+00 0. -1.
         13    1    3    3    0    0  0.18087347053E+02 -0.55348768089E+02  0.11818807433E+03  0.13175378236E+03  0.00000000000E+00 0.  1.
        -13    1    4    4    0    0  0.62513609109E+01  0.48085689293E+02  0.20910578886E+03  0.21465447576E+03  0.00000000000E+00 0. -1.
         13    1    4    4    0    0  0.18927238049E+02  0.47753014876E+02  0.30036644110E+02  0.59504544023E+02  0.00000000000E+00 0.  1.
          2    1    1    2  501    0 -0.52708230554E+01 -0.42998712858E+02  0.14639538010E+03  0.15267048896E+03  0.00000000000E+00 0. -1.
<scales pt_clust_5="13000.00000" pt_clust_6="13000.00000" pt_clust_7="13000.00000" pt_clust_8="13000.00000" pt_clust_9="43.32058"></scales>
<clustering>
<clus scale="   43.321">  2  9  1 -1</clus>
<clus scale="   90.305">  7  8 -1 -1</clus>
<clus scale="   91.802">  5  6 -1 -1</clus>
<clus scale="  114.401">  2  7  1 -1</clus>
<clus scale="   43.321">  2  5  1 -1</clus>
</clustering>
</event>
<event>
 9    1  0.1636528E-005  0.1063029E+03  0.7546771E-02  0.1268000E+00
         21   -1    0    0  501  502  0.00000000000E+00  0.00000000000E+00  0.33001651948E+03  0.33001651948E+03  0.00000000000E+00 0.  1.
         -1   -1    0    0    0  501 -0.00000000000E+00 -0.00000000000E+00 -0.16396908383E+03  0.16396908383E+03  0.00000000000E+00 0.  1.
         23    2    1    2    0    0 -0.47922369746E+02  0.20707710248E+02 -0.94356898134E+02  0.14193562194E+03  0.92288318681E+02 0.  0.
         23    2    1    2    0    0  0.33613499686E+02 -0.51868627724E+02  0.23544453961E+02  0.11272102530E+03  0.91276866342E+02 0.  0.
        -11    1    4    4    0    0 -0.98774475490E+01 -0.52404795873E+02  0.39531182572E+02  0.66381782111E+02  0.00000000000E+00 0.  1.
         11    1    4    4    0    0  0.43490947235E+02  0.53616814950E+00 -0.15986728611E+02  0.46339243189E+02  0.00000000000E+00 0. -1.
        -11    1    3    3    0    0 -0.17283288933E+02 -0.29367656144E+02 -0.41767296317E+01  0.34330982714E+02  0.00000000000E+00 0. -1.
         11    1    3    3    0    0 -0.30639080813E+02  0.50075366392E+02 -0.90180168503E+02  0.10760463923E+03  0.00000000000E+00 0.  1.
         -1    1    1    2    0  502  0.14308870060E+02  0.31160917476E+02  0.23685987982E+03  0.23932895606E+03  0.00000000000E+00 0.  1.
<scales pt_clust_5="13000.00000" pt_clust_6="13000.00000" pt_clust_7="13000.00000" pt_clust_8="13000.00000" pt_clust_9="34.28916"></scales>
<clustering>
<clus scale="   34.289">  1  9  2 -1</clus>
<clus scale="   91.277">  5  6 -1 -1</clus>
<clus scale="   92.288">  7  8 -1 -1</clus>
<clus scale="  105.426">  1  5  2 -1</clus>
<clus scale="   34.289">  1  5  2 -1</clus>
</clustering>
</event>
<event>
 9    1  0.1636528E-005  0.1044212E+03  0.7546771E-02  0.1271301E+00
          2   -1    0    0  502    0 -0.00000000000E+00  0.00000000000E+00  0.38363870509E+02  0.38363870509E+02  0.00000000000E+00 0. -1.
         21   -1    0    0  501  502  0.00000000000E+00 -0.00000000000E+00 -0.38569581903E+03  0.38569581903E+03  0.00000000000E+00 0. -1.
         23    2    1    2    0    0  0.94979649137E+00 -0.64281190684E+02 -0.13949391676E+03  0.17795198371E+03  0.89863129840E+02 0.  0.
         23    2    1    2    0    0 -0.13483026410E+02  0.38250457060E+02 -0.18343970396E+03  0.20829290258E+03  0.89949534794E+02 0.  0.
        -11    1    3    3    0    0 -0.26307619516E+02 -0.43326498198E+01 -0.35501200330E+01  0.26897324241E+02  0.00000000000E+00 0.  1.
         11    1    3    3    0    0  0.27257416008E+02 -0.59948540865E+02 -0.13594379673E+03  0.15105465947E+03  0.00000000000E+00 0. -1.
        -11    1    4    4    0    0 -0.33136744784E+02  0.53546101102E+02 -0.79532350305E+02  0.10144271065E+03  0.00000000000E+00 0.  1.
         11    1    4    4    0    0  0.19653718374E+02 -0.15295644042E+02 -0.10390735366E+03  0.10685019194E+03  0.00000000000E+00 0. -1.
          2    1    1    2  501    0  0.12533229919E+02  0.26030733625E+02 -0.24398327799E+02  0.37814803247E+02  0.00000000000E+00 0. -1.
<scales pt_clust_5="13000.00000" pt_clust_6="13000.00000" pt_clust_7="13000.00000" pt_clust_8="13000.00000" pt_clust_9="28.89086"></scales>
<clustering>
<clus scale="   28.891">  2  9  1 -1</clus>
<clus scale="   89.863">  5  6 -1 -1</clus>
<clus scale="   89.950">  7  8 -1 -1</clus>
<clus scale="  104.347">  1  5  2 -1</clus>
<clus scale="   28.891">  2  5  1 -1</clus>
</clustering>
</event>
<event>
 9    1  0.1636528E-005  0.2135354E+03  0.7546771E-02  0.1138961E+00
         21   -1    0    0  501  502  0.00000000000E+00  0.00000000000E+00  0.73268254790E+02  0.73268254790E+02  0.00000000000E+00 0.  1.
         -1   -1    0    0    0  501 -0.00000000000E+00 -0.00000000000E+00 -0.74953403488E+03  0.74953403488E+03  0.00000000000E+00 0.  1.
         23    2    1    2    0    0  0.89668117118E+02  0.15555621050E+03 -0.31800669144E+03  0.37604178664E+03  0.89671978048E+02 0.  0.
         23    2    1    2    0    0 -0.11955328427E+03 -0.17435145072E+03 -0.29507101736E+03  0.37437876069E+03  0.91657705744E+02 0.  0.
        -11    1    3    3    0    0  0.78509922159E+02  0.93025633669E+02 -0.27080421750E+03  0.29690486795E+03  0.00000000000E+00 0.  1.
         11    1    3    3    0    0  0.11158194959E+02  0.62530576832E+02 -0.47202473935E+02  0.79136918687E+02  0.00000000000E+00 0. -1.
        -13    1    4    4    0    0 -0.76461193328E+02 -0.36579877885E+02 -0.12880353649E+03  0.15419063708E+03  0.00000000000E+00 0. -1.
         13    1    4    4    0    0 -0.43092090937E+02 -0.13777157284E+03 -0.16626748087E+03  0.22018812361E+03  0.00000000000E+00 0.  1.
         -1    1    1    2    0  502  0.29885167148E+02  0.18795240221E+02 -0.63188071294E+02  0.72381742340E+02  0.00000000000E+00 0.  1.
<scales pt_clust_5="13000.00000" pt_clust_6="13000.00000" pt_clust_7="13000.00000" pt_clust_8="13000.00000" pt_clust_9="35.30419"></scales>
<clustering>
<clus scale="   35.304">  1  9  2 -1</clus>
<clus scale="   89.672">  5  6 -1 -1</clus>
<clus scale="   91.658">  7  8 -1 -1</clus>
<clus scale="  212.691">  2  5  1 -1</clus>
<clus scale="   35.304">  1  5  2 -1</clus>
</clustering>
</event>
<event>
 9    1  0.1636528E-005  0.1032658E+03  0.7546771E-02  0.1273634E+00
         -1   -1    0    0    0  501 -0.00000000000E+00  0.00000000000E+00  0.11655361421E+03  0.11655361421E+03  0.00000000000E+00 0.  1.
         21   -1    0    0  501  502  0.00000000000E+00 -0.00000000000E+00 -0.23736725929E+03  0.23736725929E+03  0.00000000000E+00 0.  1.
         23    2    1    2    0    0  0.42294465640E+01 -0.44523551383E+02  0.42761582989E+02  0.11011202409E+03  0.91081666777E+02 0.  0.
         23    2    1    2    0    0  0.52045363304E+02  0.59723885411E+02 -0.94217468651E+02  0.15320861115E+03  0.91215595167E+02 0.  0.
        -11    1    4    4    0    0  0.28654520957E+01  0.70392629801E+02 -0.53036456064E+02  0.88182758053E+02  0.00000000000E+00 0. -1.
         11    1    4    4    0    0  0.49179911208E+02 -0.10668744391E+02 -0.41181012587E+02  0.65025853098E+02  0.00000000000E+00 0.  1.
        -11    1    3    3    0    0 -0.24372906246E+02 -0.62859571920E+02  0.30425492855E+02  0.73966715192E+02  0.00000000000E+00 0.  1.
         11    1    3    3    0    0  0.28602352810E+02  0.18336020537E+02  0.12336090135E+02  0.36145308896E+02  0.00000000000E+00 0. -1.
         -1    1    1    2    0  502 -0.56274809868E+02 -0.15200334027E+02 -0.69357759417E+02  0.90600238253E+02  0.00000000000E+00 0.  1.
<scales pt_clust_5="13000.00000" pt_clust_6="13000.00000" pt_clust_7="13000.00000" pt_clust_8="13000.00000" pt_clust_9="58.29155"></scales>
<clustering>
<clus scale="   58.292">  2  9  1 -1</clus>
<clus scale="   91.082">  7  8 -1 -1</clus>
<clus scale="   91.216">  5  6 -1 -1</clus>
<clus scale="  103.148">  1  7  2 -1</clus>
<clus scale="   58.292">  2  5  1 -1</clus>
</clustering>
</event>
<event>
 9    1  0.1636528E-005  0.1190380E+03  0.7546771E-02  0.1244826E+00
         21   -1    0    0  501  502  0.00000000000E+00  0.00000000000E+00  0.33680113356E+03  0.33680113356E+03  0.00000000000E+00 0.  1.
         -2   -1    0    0    0  501 -0.00000000000E+00 -0.00000000000E+00 -0.69493469248E+02  0.69493469248E+02  0.00000000000E+00 0.  1.
         23    2    1    2    0    0 -0.56645143207E+02  0.22701012959E+02  0.58514514972E+02  0.12426516010E+03  0.91070705028E+02 0.  0.
         23    2    1    2    0    0  0.87383158676E+02 -0.54293061315E+02  0.11719384107E+03  0.18037652150E+03  0.90651752305E+02 0.  0.
        -11    1    4    4    0    0  0.10030300693E+03 -0.29075877443E+02  0.10883539711E+03  0.15083515344E+03  0.00000000000E+00 0.  1.
         11    1    4    4    0    0 -0.12919848255E+02 -0.25217183872E+02  0.83584439563E+01  0.29541368058E+02  0.00000000000E+00 0. -1.
        -13    1    3    3    0    0 -0.76803436698E+02  0.19323357885E+01  0.56279690439E+02  0.95236050769E+02  0.00000000000E+00 0.  1.
         13    1    3    3    0    0  0.20158293492E+02  0.20768677171E+02  0.22348245337E+01  0.29029109332E+02  0.00000000000E+00 0. -1.
         -2    1    1    2    0  502 -0.30738015470E+02  0.31592048356E+02  0.91599308272E+02  0.10165292121E+03  0.00000000000E+00 0.  1.
<scales pt_clust_5="13000.00000" pt_clust_6="13000.00000" pt_clust_7="13000.00000" pt_clust_8="13000.00000" pt_clust_9="44.07815"></scales>
<clustering>
<clus scale="   44.078">  1  9  2 -1</clus>
<clus scale="   90.652">  5  6 -1 -1</clus>
<clus scale="   91.071">  7  8 -1 -1</clus>
<clus scale="  118.718">  1  5  2 -1</clus>
<clus scale="   44.078">  1  5  2 -1</clus>
</clustering>
</event>
<event>
 9    1  0.1636528E-005  0.9951411E+02  0.7546771E-02  0.1285240E+00
         21   -1    0    0  501  502  0.00000000000E+00  0.00000000000E+00  0.17477620696E+03  0.17477620696E+03  0.00000000000E+00 0.  1.
         -2   -1    0    0    0  501 -0.00000000000E+00 -0.00000000000E+00 -0.17056944656E+03  0.17056944656E+03  0.00000000000E+00 0.  1.
         23    2    1    2    0    0  0.28429521235E+02  0.29632105061E+02 -0.62775062598E+02  0.11858653972E+03  0.91846391281E+02 0.  0.
         23    2    1    2    0    0  0.42625818297E+01 -0.43112559962E+02 -0.48277954102E+02  0.10619663007E+03  0.84083892364E+02 0.  0.
        -13    1    3    3    0    0  0.46673982417E+02 -0.10409329264E+02 -0.56689898111E+02  0.74165755698E+02  0.00000000000E+00 0.  1.
         13    1    3    3    0    0 -0.18244461182E+02  0.40041434325E+02 -0.60851644875E+01  0.44420784026E+02  0.00000000000E+00 0. -1.
        -13    1    4    4    0    0  0.23154531625E+02  0.66768451182E+01 -0.47127391301E+02  0.52931121340E+02  0.00000000000E+00 0.  1.
         13    1    4    4    0    0 -0.18891949795E+02 -0.49789405080E+02 -0.11505628015E+01  0.53265508728E+02  0.00000000000E+00 0. -1.
         -2    1    1    2    0  502 -0.32692103065E+02  0.13480454901E+02  0.11525977710E+03  0.12056248373E+03  0.00000000000E+00 0.  1.
<scales pt_clust_5="13000.00000" pt_clust_6="13000.00000" pt_clust_7="13000.00000" pt_clust_8="13000.00000" pt_clust_9="35.36236"></scales>
<clustering>
<clus scale="   35.362">  1  9  2 -1</clus>
<clus scale="   84.084">  7  8 -1 -1</clus>
<clus scale="   91.846">  5  6 -1 -1</clus>
<clus scale="   92.398">  1  7  2 -1</clus>
<clus scale="   35.362">  1  5  2 -1</clus>
</clustering>
</event>
<event>
 9    1  0.1636528E-005  0.9404866E+02  0.7546771E-02  0.1293622E+00
         21   -1    0    0  501  502  0.00000000000E+00  0.00000000000E+00  0.78358192349E+03  0.78358192349E+03  0.00000000000E+00 0.  1.
         -1   -1    0    0    0  501 -0.00000000000E+00 -0.00000000000E+00 -0.61950673409E+02  0.61950673409E+02  0.00000000000E+00 0.  1.
         23    2    1    2    0    0  0.38584510911E+00  0.12742692866E+02  0.38364705177E+02  0.99502080342E+02  0.90919130501E+02 0.  0.
         23    2    1    2    0    0 -0.52219174179E+02  0.53682188772E+02  0.94666372301E+02  0.15143054843E+03  0.91437789842E+02 0.  0.
        -11    1    3    3    0    0  0.45814252837E+01  0.50504735619E+02  0.90500922664E+01  0.51513318157E+02  0.00000000000E+00 0. -1.
         11    1    3    3    0    0 -0.41955801745E+01 -0.37762042753E+02  0.29314612911E+02  0.47988762185E+02  0.00000000000E+00 0.  1.
        -13    1    4    4    0    0 -0.22438528596E+02  0.72314167281E+02  0.87259293249E+02  0.11552926302E+03  0.00000000000E+00 0.  1.
         13    1    4    4    0    0 -0.29780645583E+02 -0.18631978509E+02  0.74070790519E+01  0.35901285417E+02  0.00000000000E+00 0. -1.
         -1    1    1    2    0  502  0.51833329070E+02 -0.66424881638E+02  0.58860017260E+03  0.59459996812E+03  0.00000000000E+00 0.  1.
<scales pt_clust_5="13000.00000" pt_clust_6="13000.00000" pt_clust_7="13000.00000" pt_clust_8="13000.00000" pt_clust_9="84.25532"></scales>
<clustering>
<clus scale="   84.255">  1  9  2 -1</clus>
<clus scale="   90.919">  5  6 -1 -1</clus>
<clus scale="   91.438">  7  8 -1 -1</clus>
<clus scale="   93.544">  2  5  1 -1</clus>
<clus scale="   84.255">  1  5  2 -1</clus>
</clustering>
</event>
<event>
 9    1  0.1636528E-005  0.2349389E+03  0.7546771E-02  0.1123524E+00
         21   -1    0    0  501  502  0.00000000000E+00  0.00000000000E+00  0.32331159241E+03  0.32331159241E+03  0.00000000000E+00 0.  1.
         -3   -1    0    0    0  501 -0.00000000000E+00 -0.00000000000E+00 -0.37882718211E+03  0.37882718211E+03  0.00000000000E+00 0.  1.
         23    2    1    2    0    0 -0.10609422469E+03  0.19946829452E+03 -0.23152348986E+03  0.33495095200E+03  0.86864428048E+02 0.  0.
         23    2    1    2    0    0  0.14838420729E+03 -0.11598760551E+03  0.17604910082E+03  0.27360646880E+03  0.91630869607E+02 0.  0.
        -11    1    4    4    0    0  0.14120075551E+03 -0.90652933419E+02  0.10526228599E+03  0.19808017706E+03  0.00000000000E+00 0.  1.
         11    1    4    4    0    0  0.71834517791E+01 -0.25334672089E+02  0.70786814831E+02  0.75526291735E+02  0.00000000000E+00 0. -1.
        -13    1    3    3    0    0 -0.80038103453E+02  0.68859458544E+02 -0.13006558038E+03  0.16752545549E+03  0.00000000000E+00 0.  1.
         13    1    3    3    0    0 -0.26056121240E+02  0.13060883598E+03 -0.10145790947E+03  0.16742549652E+03  0.00000000000E+00 0. -1.
         -3    1    1    2    0  502 -0.42289982598E+02 -0.83480689012E+02 -0.41200660052E-01  0.93581353717E+02  0.00000000000E+00 0.  1.
<scales pt_clust_5="13000.00000" pt_clust_6="13000.00000" pt_clust_7="13000.00000" pt_clust_8="13000.00000" pt_clust_9="93.58134"></scales>
<clustering>
<clus scale="   86.864">  7  8 -1 -1</clus>
<clus scale="   91.631">  5  6 -1 -1</clus>
<clus scale="   93.581">  1  9  2 -1</clus>
<clus scale="  233.121">  2  7  1 -1</clus>
<clus scale="   93.581">  1  5  2 -1</clus>
</clustering>
</event>
<event>
 9    1  0.1636528E-005  0.1007930E+03  0.7546771E-02  0.1279718E+00
          2   -1    0    0  502    0 -0.00000000000E+00  0.00000000000E+00  0.16105202293E+03  0.16105202293E+03  0.00000000000E+00 0. -1.
         21   -1    0    0  501  502  0.00000000000E+00 -0.00000000000E+00 -0.99836052500E+02  0.99836052500E+02  0.00000000000E+00 0.  1.
         23    2    1    2    0    0 -0.19096021011E+02  0.43139440516E+02  0.80850438363E+02  0.13073488177E+03  0.91264158253E+02 0.  0.
         23    2    1    2    0    0  0.27849918897E+02 -0.20314633413E+02 -0.34575149412E+02  0.10150312367E+03  0.88989554690E+02 0.  0.
        -11    1    3    3    0    0 -0.49797831605E+02  0.44422687581E+02  0.73231161275E+02  0.99075739645E+02  0.00000000000E+00 0. -1.
         11    1    3    3    0    0  0.30701810595E+02 -0.12832470648E+01  0.76192770884E+01  0.31659142126E+02  0.00000000000E+00 0.  1.
        -11    1    4    4    0    0  0.24700645299E+02 -0.52108481422E+02 -0.38464785610E+02  0.69317785931E+02  0.00000000000E+00 0.  1.
         11    1    4    4    0    0  0.31492735984E+01  0.31793848009E+02  0.38896361983E+01  0.32185337736E+02  0.00000000000E+00 0. -1.
          2    1    1    2  501    0 -0.87538978867E+01 -0.22824807103E+02  0.14940681479E+02  0.28650069992E+02  0.00000000000E+00 0. -1.
<scales pt_clust_5="13000.00000" pt_clust_6="13000.00000" pt_clust_7="13000.00000" pt_clust_8="13000.00000" pt_clust_9="24.44592"></scales>
<clustering>
<clus scale="   24.446">  2  9  1 -1</clus>
<clus scale="   88.990">  7  8 -1 -1</clus>
<clus scale="   91.264">  5  6 -1 -1</clus>
<clus scale="   98.738">  2  7  1 -1</clus>
<clus scale="   24.446">  2  5  1 -1</clus>
</clustering>
</event>
<event>
 9    1  0.1636528E-005  0.1687037E+03  0.7546771E-02  0.1184666E+00
         21   -1    0    0  501  502  0.00000000000E+00  0.00000000000E+00  0.14716349596E+03  0.14716349596E+03  0.00000000000E+00 0. -1.
         -3   -1    0    0    0  501 -0.00000000000E+00 -0.00000000000E+00 -0.43199453811E+03  0.43199453811E+03  0.00000000000E+00 0.  1.
         23    2    1    2    0    0 -0.11341385081E+03  0.22007736951E+02 -0.86315946986E+02  0.17243885207E+03  0.94539266746E+02 0.  0.
         23    2    1    2    0    0  0.27726604484E+02 -0.14660295155E+03 -0.28332265531E+02  0.17906051823E+03  0.94861804335E+02 0.  0.
        -11    1    3    3    0    0  0.68402196509E+01  0.25674971203E+02 -0.28477291266E+02  0.38948027794E+02  0.00000000000E+00 0. -1.
         11    1    3    3    0    0 -0.12025407047E+03 -0.36672342520E+01 -0.57838655719E+02  0.13349082428E+03  0.00000000000E+00 0.  1.
        -13    1    4    4    0    0 -0.34650115267E+02 -0.56345376328E+02 -0.17431442315E+01  0.66170011889E+02  0.00000000000E+00 0.  1.
         13    1    4    4    0    0  0.62376719751E+02 -0.90257575220E+02 -0.26589121300E+02  0.11289050635E+03  0.00000000000E+00 0. -1.
         -3    1    1    2    0  502  0.85687246331E+02  0.12459521460E+03 -0.17018282963E+03  0.22765866376E+03  0.00000000000E+00 0.  1.
<scales pt_clust_5="13000.00000" pt_clust_6="13000.00000" pt_clust_7="13000.00000" pt_clust_8="13000.00000" pt_clust_9="139.50693"></scales>
<clustering>
<clus scale="   94.539">  5  6 -1 -1</clus>
<clus scale="   94.862">  7  8 -1 -1</clus>
<clus scale="  149.281">  2  5  1 -1</clus>
<clus scale="  139.507">  1  9  2 -1</clus>
<clus scale="  139.507">  1  5  2 -1</clus>
</clustering>
</event>
<event>
 9    1  0.1636528E-005  0.1075644E+03  0.7546771E-02  0.1265213E+00
          2   -1    0    0  502    0 -0.00000000000E+00  0.00000000000E+00  0.12346204570E+03  0.12346204570E+03  0.00000000000E+00 0. -1.
         21   -1    0    0  501  502  0.00000000000E+00 -0.00000000000E+00 -0.24070288084E+03  0.24070288084E+03  0.00000000000E+00 0.  1.
         23    2    1    2    0    0 -0.52522468957E+02 -0.97882482369E+01  0.70113919925E+02  0.12725630688E+03  0.91781187207E+02 0.  0.
         23    2    1    2    0    0  0.72142982690E+02 -0.94660916081E+01 -0.14602037304E+03  0.18726765573E+03  0.91940245256E+02 0.  0.
        -13    1    4    4    0    0  0.66344534046E+02 -0.36650685861E+02 -0.59402692049E+02  0.96299272035E+02  0.00000000000E+00 0.  1.
         13    1    4    4    0    0  0.57984486432E+01  0.27184594253E+02 -0.86617680993E+02  0.90968383695E+02  0.00000000000E+00 0. -1.
        -13    1    3    3    0    0 -0.14431401630E+02  0.37016681932E+02  0.77567404783E+01  0.40480453519E+02  0.00000000000E+00 0.  1.
         13    1    3    3    0    0 -0.38091067326E+02 -0.46804930169E+02  0.62357179447E+02  0.86775853363E+02  0.00000000000E+00 0. -1.
          2    1    1    2  501    0 -0.19620513733E+02  0.19254339845E+02 -0.41334382028E+02  0.49640963927E+02  0.00000000000E+00 0. -1.
<scales pt_clust_5="13000.00000" pt_clust_6="13000.00000" pt_clust_7="13000.00000" pt_clust_8="13000.00000" pt_clust_9="27.48989"></scales>
<clustering>
<clus scale="   27.490">  2  9  1 -1</clus>
<clus scale="   91.781">  7  8 -1 -1</clus>
<clus scale="   91.940">  5  6 -1 -1</clus>
<clus scale="  107.428">  1  7  2 -1</clus>
<clus scale="   27.490">  2  5  1 -1</clus>
</clustering>
</event>
<event>
 9    1  0.1636528E-005  0.1164281E+03  0.7546771E-02  0.1253696E+00
          1   -1    0    0  502    0 -0.00000000000E+00  0.00000000000E+00  0.23697307376E+03  0.23697307376E+03  0.00000000000E+00 0. -1.
         21   -1    0    0  501  502  0.00000000000E+00 -0.00000000000E+00 -0.10143987342E+03  0.10143987342E+03  0.00000000000E+00 0.  1.
         23    2    1    2    0    0  0.65272522914E+02 -0.83402212941E+00  0.11564945000E+03  0.15312569727E+03  0.76233103300E+02 0.  0.
         23    2    1    2    0    0 -0.96315968292E+02  0.29616542357E+02  0.36405874516E+02  0.13984377338E+03  0.89872064209E+02 0.  0.
        -13    1    3    3    0    0  0.18096849646E+02 -0.20346915642E+02  0.93662287033E+02  0.97540335018E+02  0.00000000000E+00 0. -1.
         13    1    3    3    0    0  0.47175673268E+02  0.19512893512E+02  0.21987162970E+02  0.55585362255E+02  0.00000000000E+00 0.  1.
        -13    1    4    4    0    0 -0.20337210824E+02 -0.23438800815E+02 -0.14345200000E+02  0.34187194836E+02  0.00000000000E+00 0. -1.
         13    1    4    4    0    0 -0.75978757468E+02  0.53055343172E+02  0.50751074516E+02  0.10565657855E+03  0.00000000000E+00 0.  1.
          1    1    1    2  501    0  0.31043445378E+02 -0.28782520228E+02 -0.16522124174E+02  0.45443476527E+02  0.00000000000E+00 0. -1.
<scales pt_clust_5="13000.00000" pt_clust_6="13000.00000" pt_clust_7="13000.00000" pt_clust_8="13000.00000" pt_clust_9="42.33354"></scales>
<clustering>
<clus scale="   42.334">  2  9  1 -1</clus>
<clus scale="   76.233">  5  6 -1 -1</clus>
<clus scale="   89.872">  7  8 -1 -1</clus>
<clus scale="  106.254">  1  5  2 -1</clus>
<clus scale="   42.334">  2  5  1 -1</clus>
</clustering>
</event>
<event>
 9    1  0.1636528E-005  0.1094137E+03  0.7546771E-02  0.1263449E+00
         21   -1    0    0  501  502  0.00000000000E+00  0.00000000000E+00  0.90107825298E+02  0.90107825298E+02  0.00000000000E+00 0.  1.
         -2   -1    0    0    0  501 -0.00000000000E+00 -0.00000000000E+00 -0.28799004522E+03  0.28799004522E+03  0.00000000000E+00 0.  1.
         23    2    1    2    0    0 -0.68701837943E+02  0.29991893408E+02 -0.14712367206E+03  0.19053703694E+03  0.95076450065E+02 0.  0.
         23    2    1    2    0    0  0.35624820033E+02  0.22243529739E+01 -0.85586203572E+02  0.12972536655E+03  0.90717125925E+02 0.  0.
        -11    1    4    4    0    0 -0.21102124775E+02  0.50544280472E+01 -0.66271669078E+02  0.69733643497E+02  0.00000000000E+00 0. -1.
         11    1    4    4    0    0  0.56726944808E+02 -0.28300750733E+01 -0.19314534494E+02  0.59991723053E+02  0.00000000000E+00 0.  1.
        -11    1    3    3    0    0 -0.72191807052E+02  0.24077374032E+01 -0.14578797566E+03  0.16270091595E+03  0.00000000000E+00 0.  1.
         11    1    3    3    0    0  0.34899691087E+01  0.27584156005E+02 -0.13356964087E+01  0.27836120990E+02  0.00000000000E+00 0. -1.
         -2    1    1    2    0  502  0.33077017910E+02 -0.32216246382E+02  0.34827655710E+02  0.57835467034E+02  0.00000000000E+00 0.  1.
<scales pt_clust_5="13000.00000" pt_clust_6="13000.00000" pt_clust_7="13000.00000" pt_clust_8="13000.00000" pt_clust_9="46.17332"></scales>
<clustering>
<clus scale="   46.173">  1  9  2 -1</clus>
<clus scale="   90.717">  5  6 -1 -1</clus>
<clus scale="   95.076">  7  8 -1 -1</clus>
<clus scale="  105.648">  1  5  2 -1</clus>
<clus scale="   46.173">  1  5  2 -1</clus>
</clustering>
</event>
<event>
 9    1  0.1636528E-005  0.1133807E+03  0.7546771E-02  0.1255063E+00
          1   -1    0    0  502    0 -0.00000000000E+00  0.00000000000E+00  0.71527618877E+03  0.71527618877E+03  0.00000000000E+00 0. -1.
         21   -1    0    0  501  502  0.00000000000E+00 -0.00000000000E+00 -0.72471310169E+02  0.72471310169E+02  0.00000000000E+00 0.  1.
         23    2    1    2    0    0 -0.44920050179E+01  0.64570272216E+02  0.62068551440E+03  0.63071576465E+03  0.91445994068E+02 0.  0.
         23    2    1    2    0    0  0.48519185423E+01 -0.90438061969E+02  0.27984833181E+02  0.13050484584E+03  0.89698270516E+02 0.  0.
        -11    1    3    3    0    0  0.56920696674E+01  0.86698637327E+02  0.51334982071E+03  0.52065064275E+03  0.00000000000E+00 0. -1.
         11    1    3    3    0    0 -0.10184074685E+02 -0.22128365111E+02  0.10733569369E+03  0.11006512190E+03  0.00000000000E+00 0.  1.
        -13    1    4    4    0    0  0.45998942415E+02 -0.63026144735E+02  0.17284541003E+02  0.79918414531E+02  0.00000000000E+00 0.  1.
         13    1    4    4    0    0 -0.41147023873E+02 -0.27411917234E+02  0.10700292179E+02  0.50586431311E+02  0.00000000000E+00 0. -1.
          1    1    1    2  501    0 -0.35991352442E+00  0.25867789753E+02 -0.58654689768E+01  0.26526888449E+02  0.00000000000E+00 0. -1.
<scales pt_clust_5="13000.00000" pt_clust_6="13000.00000" pt_clust_7="13000.00000" pt_clust_8="13000.00000" pt_clust_9="25.87029"></scales>
<clustering>
<clus scale="   25.870">  2  9  1 -1</clus>
<clus scale="   89.698">  7  8 -1 -1</clus>
<clus scale="   91.446">  5  6 -1 -1</clus>
<clus scale="  111.976">  2  7  1 -1</clus>
<clus scale="   25.870">  2  5  1 -1</clus>
</clustering>
</event>
<event>
 9    1  0.1636528E-005  0.1077102E+03  0.7546771E-02  0.1265552E+00
         -2   -1    0    0    0  501 -0.00000000000E+00  0.00000000000E+00  0.36923373456E+03  0.36923373456E+03  0.00000000000E+00 0.  1.
         21   -1    0    0  501  502  0.00000000000E+00 -0.00000000000E+00 -0.53418962913E+02  0.53418962913E+02  0.00000000000E+00 0. -1.
         23    2    1    2    0    0 -0.29492446559E+02 -0.63380912280E+02  0.21984354940E+03  0.24835440427E+03  0.91987931070E+02 0.  0.
         23    2    1    2    0    0  0.31750984000E+02  0.22091327983E+02  0.88587087000E+02  0.13229286240E+03  0.90319309688E+02 0.  0.
        -13    1    3    3    0    0 -0.50391670857E+02 -0.70504780834E+02  0.13296056672E+03  0.15870966232E+03  0.00000000000E+00 0.  1.
         13    1    3    3    0    0  0.20899224298E+02  0.71238685541E+01  0.86882982687E+02  0.89644741954E+02  0.00000000000E+00 0. -1.
        -13    1    4    4    0    0  0.14436043636E+02 -0.27225624329E+02  0.16589326931E+01  0.30860752318E+02  0.00000000000E+00 0. -1.
         13    1    4    4    0    0  0.17314940364E+02  0.49316952311E+02  0.86928154307E+02  0.10143211009E+03  0.00000000000E+00 0.  1.
         -2    1    1    2    0  502 -0.22585374410E+01  0.41289584298E+02  0.73841352412E+01  0.42005430793E+02  0.00000000000E+00 0.  1.
<scales pt_clust_5="13000.00000" pt_clust_6="13000.00000" pt_clust_7="13000.00000" pt_clust_8="13000.00000" pt_clust_9="41.35131"></scales>
<clustering>
<clus scale="   41.351">  2  9  1 -1</clus>
<clus scale="   90.319">  7  8 -1 -1</clus>
<clus scale="   91.988">  5  6 -1 -1</clus>
<clus scale="  106.289">  2  7  1 -1</clus>
<clus scale="   41.351">  2  5  1 -1</clus>
</clustering>
</event>
<event>
 9    1  0.1636528E-005  0.1179593E+03  0.7546771E-02  0.1248194E+00
          1   -1    0    0  502    0 -0.00000000000E+00  0.00000000000E+00  0.35474752221E+02  0.35474752221E+02  0.00000000000E+00 0. -1.
         21   -1    0    0  501  502  0.00000000000E+00 -0.00000000000E+00 -0.48956878438E+03  0.48956878438E+03  0.00000000000E+00 0.  1.
         23    2    1    2    0    0 -0.17013671796E+02 -0.61041173203E+02 -0.18868128289E+03  0.21825507315E+03  0.89549765997E+02 0.  0.
         23    2    1    2    0    0  0.30561482595E+02  0.86747075329E+02 -0.21212463314E+03  0.24609283014E+03  0.84295680591E+02 0.  0.
        -11    1    3    3    0    0 -0.18929154875E+02 -0.36157259034E+02 -0.18893852896E+03  0.19329621830E+03  0.00000000000E+00 0.  1.
         11    1    3    3    0    0  0.19154830795E+01 -0.24883914168E+02  0.25724607156E+00  0.24958854848E+02  0.00000000000E+00 0. -1.
        -13    1    4    4    0    0  0.83876250414E+01  0.98500173638E+02 -0.17962776586E+03  0.20503358439E+03  0.00000000000E+00 0. -1.
         13    1    4    4    0    0  0.22173857553E+02 -0.11753098309E+02 -0.32496867282E+02  0.41059245753E+02  0.00000000000E+00 0.  1.
          1    1    1    2  501    0 -0.13547810799E+02 -0.25705902127E+02 -0.53288116127E+02  0.60695633302E+02  0.00000000000E+00 0. -1.
<scales pt_clust_5="13000.00000" pt_clust_6="13000.00000" pt_clust_7="13000.00000" pt_clust_8="13000.00000" pt_clust_9="29.05747"></scales>
<clustering>
<clus scale="   29.057">  2  9  1 -1</clus>
<clus scale="   84.296">  7  8 -1 -1</clus>
<clus scale="   89.550">  5  6 -1 -1</clus>
<clus scale="  114.022">  2  7  1 -1</clus>
<clus scale="   29.057">  2  5  1 -1</clus>
</clustering>
</event>
<event>
 9    1  0.1636528E-005  0.1309716E+03  0.7546771E-02  0.1255052E+00
         21   -1    0    0  501  502  0.00000000000E+00  0.00000000000E+00  0.37144718647E+03  0.37144718647E+03  0.00000000000E+00 0.  1.
         -4   -1    0    0    0  501 -0.00000000000E+00 -0.00000000000E+00 -0.67067617515E+02  0.67067617515E+02  0.00000000000E+00 0.  1.
         23    2    1    2    0    0  0.28890095025E+02  0.20941337306E+01  0.12080317327E+03  0.14097228321E+03  0.66638989893E+02 0.  0.
         23    2    1    2    0    0  0.52663238505E+02 -0.61368142815E+02  0.53336491211E+02  0.13284040458E+03  0.90897338527E+02 0.  0.
        -13    1    3    3    0    0  0.74523902267E+00  0.23557616877E+02  0.93064993545E+02  0.96003175560E+02  0.00000000000E+00 0.  1.
         13    1    3    3    0    0  0.28144856002E+02 -0.21463483146E+02  0.27738179728E+02  0.44969107649E+02  0.00000000000E+00 0. -1.
        -13    1    4    4    0    0  0.56128526691E+02 -0.10945971108E+02 -0.28628947450E+01  0.57257505694E+02  0.00000000000E+00 0.  1.
         13    1    4    4    0    0 -0.34652881857E+01 -0.50422171707E+02  0.56199385955E+02  0.75582898884E+02  0.00000000000E+00 0. -1.
         -4    1    1    2    0  502 -0.81553333530E+02  0.59274009085E+02  0.13023990447E+03  0.16470211619E+03  0.00000000000E+00 0.  1.
<scales pt_clust_5="13000.00000" pt_clust_6="13000.00000" pt_clust_7="13000.00000" pt_clust_8="13000.00000" pt_clust_9="94.29333"></scales>
<clustering>
<clus scale="   66.639">  5  6 -1 -1</clus>
<clus scale="   72.662">  2  5  1 -1</clus>
<clus scale="   90.897">  7  8 -1 -1</clus>
<clus scale="   94.293">  1  9  2 -1</clus>
<clus scale="   94.293">  1  5  2 -1</clus>
</clustering>
</event>
<event>
 9    1  0.1636528E-005  0.1146785E+03  0.7546771E-02  0.1253252E+00
          1   -1    0    0  502    0 -0.00000000000E+00  0.00000000000E+00  0.39558221513E+03  0.39558221513E+03  0.00000000000E+00 0. -1.
         21   -1    0    0  501  502  0.00000000000E+00 -0.00000000000E+00 -0.18449744499E+03  0.18449744499E+03  0.00000000000E+00 0. -1.
         23    2    1    2    0    0  0.26495087837E+02  0.68207535083E+02  0.34116640815E+03  0.35990114577E+03  0.88204643591E+02 0.  0.
         23    2    1    2    0    0 -0.47496257402E+02 -0.23236884067E+02 -0.32085526222E+02  0.11033022578E+03  0.91364273540E+02 0.  0.
        -11    1    3    3    0    0 -0.26307216154E+02  0.51443531746E+02  0.20237129321E+03  0.21045818325E+03  0.00000000000E+00 0.  1.
         11    1    3    3    0    0  0.52802303991E+02  0.16764003336E+02  0.13879511494E+03  0.14944296251E+03  0.00000000000E+00 0. -1.
        -13    1    4    4    0    0 -0.26061336151E+02  0.26739133610E+02 -0.40745258865E+02  0.55266179786E+02  0.00000000000E+00 0.  1.
         13    1    4    4    0    0 -0.21434921251E+02 -0.49976017677E+02  0.86597326426E+01  0.55064045994E+02  0.00000000000E+00 0. -1.
          1    1    1    2  501    0  0.21001169565E+02 -0.44970651016E+02 -0.97996111788E+02  0.10984828857E+03  0.00000000000E+00 0. -1.
<scales pt_clust_5="13000.00000" pt_clust_6="13000.00000" pt_clust_7="13000.00000" pt_clust_8="13000.00000" pt_clust_9="49.63274"></scales>
<clustering>
<clus scale="   49.633">  2  9  1 -1</clus>
<clus scale="   88.205">  5  6 -1 -1</clus>
<clus scale="   91.364">  7  8 -1 -1</clus>
<clus scale="  112.178">  1  5  2 -1</clus>
<clus scale="   49.633">  2  5  1 -1</clus>
</clustering>
</event>
<event>
 9    1  0.1636528E-005  0.1262356E+03  0.7546771E-02  0.1233754E+00
         21   -1    0    0  501  502  0.00000000000E+00  0.00000000000E+00  0.39199838337E+02  0.39199838337E+02  0.00000000000E+00 0. -1.
          3   -1    0    0  502    0 -0.00000000000E+00 -0.00000000000E+00 -0.82128771874E+03  0.82128771874E+03  0.00000000000E+00 0. -1.
         23    2    1    2    0    0  0.10301216743E+02 -0.78260088343E+02 -0.48313408082E+03  0.49736408413E+03  0.87873406903E+02 0.  0.
         23    2    1    2    0    0 -0.12000555114E+02  0.10913322128E+03 -0.30029033024E+03  0.33217473465E+03  0.90064968734E+02 0.  0.
        -13    1    3    3    0    0  0.28409818583E+02 -0.90794683512E+02 -0.41474063485E+03  0.42551214618E+03  0.00000000000E+00 0.  1.
         13    1    3    3    0    0 -0.18108601840E+02  0.12534595169E+02 -0.68393445967E+02  0.71851937955E+02  0.00000000000E+00 0. -1.
        -13    1    4    4    0    0 -0.27003852691E+02  0.12514800461E+01 -0.28059751664E+02  0.38963109807E+02  0.00000000000E+00 0.  1.
         13    1    4    4    0    0  0.15003297576E+02  0.10788174123E+03 -0.27223057857E+03  0.29321162484E+03  0.00000000000E+00 0. -1.
          3    1    1    2  501    0  0.16993383711E+01 -0.30873132936E+02  0.13365306548E+01  0.30948738300E+02  0.00000000000E+00 0. -1.
<scales pt_clust_5="13000.00000" pt_clust_6="13000.00000" pt_clust_7="13000.00000" pt_clust_8="13000.00000" pt_clust_9="30.91987"></scales>
<clustering>
<clus scale="   30.920">  1  9  2 -1</clus>
<clus scale="   87.873">  5  6 -1 -1</clus>
<clus scale="   90.065">  7  8 -1 -1</clus>
<clus scale="  124.681">  2  5  1 -1</clus>
<clus scale="   30.920">  1  5  2 -1</clus>
</clustering>
</event>
<event>
 9    1  0.1636528E-005  0.9601427E+02  0.7546771E-02  0.1290161E+00
         21   -1    0    0  501  502  0.00000000000E+00  0.00000000000E+00  0.53913442015E+02  0.53913442015E+02  0.00000000000E+00 0.  1.
         -3   -1    0    0    0  501 -0.00000000000E+00 -0.00000000000E+00 -0.45422347980E+03  0.45422347980E+03  0.00000000000E+00 0.  1.
         23    2    1    2    0    0 -0.85056382320E+01 -0.27957376852E+02 -0.29611047145E+03  0.31101712759E+03  0.90533317350E+02 0.  0.
         23    2    1    2    0    0  0.64233792324E+02  0.15123329701E+02 -0.67341639075E+02  0.12908416586E+03  0.88165357968E+02 0.  0.
        -11    1    4    4    0    0  0.16959263768E+02  0.46715477916E+02 -0.47815704275E+02  0.68965890698E+02  0.00000000000E+00 0. -1.
         11    1    4    4    0    0  0.47274528555E+02 -0.31592148214E+02 -0.19525934799E+02  0.60118275164E+02  0.00000000000E+00 0.  1.
        -11    1    3    3    0    0 -0.16215709768E+02  0.30855796640E+02 -0.13165890970E+03  0.13619507309E+03  0.00000000000E+00 0. -1.
         11    1    3    3    0    0  0.77100715356E+01 -0.58813173492E+02 -0.16445156175E+03  0.17482205450E+03  0.00000000000E+00 0.  1.
         -3    1    1    2    0  502 -0.55728154092E+02  0.12834047150E+02 -0.36857927261E+02  0.68035628363E+02  0.00000000000E+00 0.  1.
<scales pt_clust_5="13000.00000" pt_clust_6="13000.00000" pt_clust_7="13000.00000" pt_clust_8="13000.00000" pt_clust_9="57.18689"></scales>
<clustering>
<clus scale="   57.187">  1  9  2 -1</clus>
<clus scale="   88.165">  5  6 -1 -1</clus>
<clus scale="   90.533">  7  8 -1 -1</clus>
<clus scale="   93.785">  1  5  2 -1</clus>
<clus scale="   57.187">  1  5  2 -1</clus>
</clustering>
</event>
<event>
 9    1  0.1636528E-005  0.1287377E+03  0.7546771E-02  0.1229739E+00
         -1   -1    0    0    0  501 -0.00000000000E+00  0.00000000000E+00  0.13334815909E+03  0.13334815909E+03  0.00000000000E+00 0.  1.
         21   -1    0    0  501  502  0.00000000000E+00 -0.00000000000E+00 -0.16015824881E+03  0.16015824881E+03  0.00000000000E+00 0. -1.
         23    2    1    2    0    0  0.87871396743E+02  0.36237144664E+02  0.36352300997E+02  0.13608907344E+03  0.90356145907E+02 0.  0.
         23    2    1    2    0    0 -0.68684788398E+02 -0.44331385543E+02 -0.58090525765E+02  0.13598449775E+03  0.91839003383E+02 0.  0.
        -11    1    3    3    0    0 -0.85551605958E+01  0.26571446859E+02 -0.86720594941E+01  0.29230757377E+02  0.00000000000E+00 0.  1.
         11    1    3    3    0    0  0.96426557339E+02  0.96656978054E+01  0.45024360491E+02  0.10685831606E+03  0.00000000000E+00 0. -1.
        -11    1    4    4    0    0 -0.73681857274E+02 -0.57271597389E+01 -0.10728823233E+02  0.74678806217E+02  0.00000000000E+00 0.  1.
         11    1    4    4    0    0  0.49970688758E+01 -0.38604225804E+02 -0.47361702532E+02  0.61305691530E+02  0.00000000000E+00 0. -1.
         -1    1    1    2    0  502 -0.19186608345E+02  0.80942408785E+01 -0.50718649491E+01  0.21432836705E+02  0.00000000000E+00 0.  1.
<scales pt_clust_5="13000.00000" pt_clust_6="13000.00000" pt_clust_7="13000.00000" pt_clust_8="13000.00000" pt_clust_9="20.82409"></scales>
<clustering>
<clus scale="   20.824">  2  9  1 -1</clus>
<clus scale="   90.356">  5  6 -1 -1</clus>
<clus scale="   91.839">  7  8 -1 -1</clus>
<clus scale="  127.684">  1  5  2 -1</clus>
<clus scale="   20.824">  2  5  1 -1</clus>
</clustering>
</event>
<event>
 9    1  0.1636528E-005  0.9588594E+02  0.7546771E-02  0.1290906E+00
         21   -1    0    0  501  502  0.00000000000E+00  0.00000000000E+00  0.49152435726E+02  0.49152435726E+02  0.00000000000E+00 0. -1.
          2   -1    0    0  502    0 -0.00000000000E+00 -0.00000000000E+00 -0.39365139787E+03  0.39365139787E+03  0.00000000000E+00 0. -1.
         23    2    1    2    0    0 -0.26250348219E+02 -0.44037167210E+01 -0.24984030561E+03  0.26792236330E+03  0.93025485459E+02 0.  0.
         23    2    1    2    0    0  0.16538990546E+02 -0.19912746937E+02 -0.11010254771E+03  0.14448221624E+03  0.89902636772E+02 0.  0.
        -11    1    4    4    0    0 -0.55852026714E+00 -0.53427913847E+02 -0.47754096448E+02  0.71661060908E+02  0.00000000000E+00 0.  1.
         11    1    4    4    0    0  0.17097510813E+02  0.33515166910E+02 -0.62348451261E+02  0.72821155330E+02  0.00000000000E+00 0. -1.
        -13    1    3    3    0    0 -0.55217820256E+02 -0.22267735862E+02 -0.18965690214E+03  0.19878279670E+03  0.00000000000E+00 0.  1.
         13    1    3    3    0    0  0.28967472037E+02  0.17864019141E+02 -0.60183403470E+02  0.69139566598E+02  0.00000000000E+00 0. -1.
          2    1    1    2  501    0  0.97113576734E+01  0.24316463658E+02  0.15443891175E+02  0.30399254059E+02  0.00000000000E+00 0. -1.
<scales pt_clust_5="13000.00000" pt_clust_6="13000.00000" pt_clust_7="13000.00000" pt_clust_8="13000.00000" pt_clust_9="26.18398"></scales>
<clustering>
<clus scale="   26.184">  1  9  2 -1</clus>
<clus scale="   89.903">  5  6 -1 -1</clus>
<clus scale="   92.859">  1  5  2 -1</clus>
<clus scale="   93.025">  7  8 -1 -1</clus>
<clus scale="   26.184">  1  5  2 -1</clus>
</clustering>
</event>
<event>
 9    1  0.1636528E-005  0.2483287E+03  0.7546771E-02  0.1114427E+00
         21   -1    0    0  501  502  0.00000000000E+00  0.00000000000E+00  0.20313476301E+03  0.20313476301E+03  0.00000000000E+00 0. -1.
          2   -1    0    0  502    0 -0.00000000000E+00 -0.00000000000E+00 -0.85468444749E+03  0.85468444749E+03  0.00000000000E+00 0. -1.
         23    2    1    2    0    0 -0.22812976744E+03 -0.74154383806E+02 -0.65712061966E+03  0.70615175661E+03  0.96440298338E+02 0.  0.
         23    2    1    2    0    0  0.19507239734E+03  0.33072214061E+02 -0.94042606551E+02  0.23895812825E+03  0.95446129640E+02 0.  0.
        -11    1    4    4    0    0  0.16104714182E+03  0.62842955767E+02 -0.85826881248E+02  0.19300692351E+03  0.00000000000E+00 0.  1.
         11    1    4    4    0    0  0.34025255524E+02 -0.29770741706E+02 -0.82157253036E+01  0.45951204744E+02  0.00000000000E+00 0. -1.
        -13    1    3    3    0    0 -0.66227090322E+02  0.12404684613E+02 -0.26097378155E+03  0.26953147933E+03  0.00000000000E+00 0.  1.
         13    1    3    3    0    0 -0.16190267712E+03 -0.86559068419E+02 -0.39614683811E+03  0.43662027728E+03  0.00000000000E+00 0. -1.
          2    1    1    2  501    0  0.33057370102E+02  0.41082169745E+02  0.99613541735E+02  0.11270932564E+03  0.00000000000E+00 0. -1.
<scales pt_clust_5="13000.00000" pt_clust_6="13000.00000" pt_clust_7="13000.00000" pt_clust_8="13000.00000" pt_clust_9="52.73077"></scales>
<clustering>
<clus scale="   52.731">  1  9  2 -1</clus>
<clus scale="   95.446">  5  6 -1 -1</clus>
<clus scale="   96.440">  7  8 -1 -1</clus>
<clus scale="  247.944">  1  5  2 -1</clus>
<clus scale="   52.731">  1  5  2 -1</clus>
</clustering>
</event>
<event>
 9    1  0.1636528E-005  0.9276941E+02  0.7546771E-02  0.1299569E+00
         21   -1    0    0  501  502  0.00000000000E+00  0.00000000000E+00  0.10637933546E+03  0.10637933546E+03  0.00000000000E+00 0. -1.
          1   -1    0    0  502    0 -0.00000000000E+00 -0.00000000000E+00 -0.11511599382E+03  0.11511599382E+03  0.00000000000E+00 0. -1.
         23    2    1    2    0    0  0.13640659436E+02 -0.35530541137E+02 -0.36131274653E+02  0.98240718135E+02  0.83049881085E+02 0.  0.
         23    2    1    2    0    0 -0.32575848476E+01  0.62179775373E+01  0.19569533066E+02  0.91188015597E+02  0.88786330369E+02 0.  0.
        -13    1    4    4    0    0 -0.29540654270E+02 -0.88033308511E+01 -0.23347405978E+02  0.38668465895E+02  0.00000000000E+00 0.  1.
         13    1    4    4    0    0  0.26283069423E+02  0.15021308388E+02  0.42916939044E+02  0.52519549702E+02  0.00000000000E+00 0. -1.
        -13    1    3    3    0    0 -0.32113094387E+02  0.16754539432E+01 -0.16080222270E+02  0.35953185190E+02  0.00000000000E+00 0.  1.
         13    1    3    3    0    0  0.45753753823E+02 -0.37205995081E+02 -0.20051052383E+02  0.62287532946E+02  0.00000000000E+00 0. -1.
          1    1    1    2  501    0 -0.10383074588E+02  0.29312563600E+02  0.78250832212E+01  0.32066595549E+02  0.00000000000E+00 0. -1.
<scales pt_clust_5="13000.00000" pt_clust_6="13000.00000" pt_clust_7="13000.00000" pt_clust_8="13000.00000" pt_clust_9="31.09718"></scales>
<clustering>
<clus scale="   31.097">  1  9  2 -1</clus>
<clus scale="   83.050">  7  8 -1 -1</clus>
<clus scale="   87.295">  2  7  1 -1</clus>
<clus scale="   88.786">  5  6 -1 -1</clus>
<clus scale="   31.097">  1  5  2 -1</clus>
</clustering>
</event>
<event>
 9    1  0.1636528E-005  0.1074153E+03  0.7546771E-02  0.1268595E+00
          1   -1    0    0  502    0 -0.00000000000E+00  0.00000000000E+00  0.24519081542E+03  0.24519081542E+03  0.00000000000E+00 0. -1.
         21   -1    0    0  501  502  0.00000000000E+00 -0.00000000000E+00 -0.76546522098E+02  0.76546522098E+02  0.00000000000E+00 0.  1.
         23    2    1    2    0    0  0.56375644302E+02 -0.19968147064E+02  0.13351439451E+03  0.17471807692E+03  0.95516347779E+02 0.  0.
         23    2    1    2    0    0 -0.25660713675E+02  0.27423862547E+02  0.54136938297E+02  0.11013752790E+03  0.88254895056E+02 0.  0.
        -11    1    4    4    0    0  0.23746250147E+02  0.32644053068E+02  0.57293021485E+01  0.40771846903E+02  0.00000000000E+00 0.  1.
         11    1    4    4    0    0 -0.49406963822E+02 -0.52201905214E+01  0.48407636149E+02  0.69365681001E+02  0.00000000000E+00 0. -1.
        -13    1    3    3    0    0  0.23410315611E+02 -0.57579573432E+02  0.82295897685E+02  0.10313129947E+03  0.00000000000E+00 0.  1.
         13    1    3    3    0    0  0.32965328691E+02  0.37611426368E+02  0.51218496826E+02  0.71586777454E+02  0.00000000000E+00 0. -1.
          1    1    1    2  501    0 -0.30714930627E+02 -0.74557154829E+01 -0.19007039484E+02  0.36881732697E+02  0.00000000000E+00 0. -1.
<scales pt_clust_5="13000.00000" pt_clust_6="13000.00000" pt_clust_7="13000.00000" pt_clust_8="13000.00000" pt_clust_9="31.60688"></scales>
<clustering>
<clus scale="   31.607">  2  9  1 -1</clus>
<clus scale="   88.255">  5  6 -1 -1</clus>
<clus scale="   95.516">  7  8 -1 -1</clus>
<clus scale="  101.013">  2  5  1 -1</clus>
<clus scale="   31.607">  2  5  1 -1</clus>
</clustering>
</event>
<event>
 9    1  0.1636528E-005  0.9712917E+02  0.7546771E-02  0.1286522E+00
         21   -1    0    0  501  502  0.00000000000E+00  0.00000000000E+00  0.15670075520E+03  0.15670075520E+03  0.00000000000E+00 0. -1.
          2   -1    0    0  502    0 -0.00000000000E+00 -0.00000000000E+00 -0.23779534468E+03  0.23779534468E+03  0.00000000000E+00 0. -1.
         23    2    1    2    0    0 -0.13140671541E+02 -0.28528559352E+02 -0.17699650428E+03  0.20134808377E+03  0.90701336077E+02 0.  0.
         23    2    1    2    0    0  0.90386989104E+01  0.51054047794E+02  0.10675339665E+02  0.10489954351E+03  0.90563444485E+02 0.  0.
        -11    1    3    3    0    0 -0.18337095461E+02  0.24666022370E+02 -0.23139856615E+02  0.38472258754E+02  0.00000000000E+00 0. -1.
         11    1    3    3    0    0  0.51964239196E+01 -0.53194581722E+02 -0.15385664766E+03  0.16287582502E+03  0.00000000000E+00 0.  1.
        -13    1    4    4    0    0 -0.40784204681E+02  0.26593806703E+02  0.20661457609E+01  0.48732441604E+02  0.00000000000E+00 0. -1.
         13    1    4    4    0    0  0.49822903591E+02  0.24460241091E+02  0.86091939041E+01  0.56167101903E+02  0.00000000000E+00 0.  1.
          2    1    1    2  501    0  0.41019726305E+01 -0.22525488442E+02  0.85226575130E+02  0.88248472606E+02  0.00000000000E+00 0. -1.
<scales pt_clust_5="13000.00000" pt_clust_6="13000.00000" pt_clust_7="13000.00000" pt_clust_8="13000.00000" pt_clust_9="22.89593"></scales>
<clustering>
<clus scale="   22.896">  1  9  2 -1</clus>
<clus scale="   90.563">  7  8 -1 -1</clus>
<clus scale="   90.701">  5  6 -1 -1</clus>
<clus scale="   97.000">  1  7  2 -1</clus>
<clus scale="   22.896">  1  5  2 -1</clus>
</clustering>
</event>
<event>
 9    1  0.2629579E-005  0.1122122E+03  0.7546771E-02  0.1262730E+00
         -1   -1    0    0    0  501 -0.00000000000E+00  0.00000000000E+00  0.46592962936E+03  0.46592962936E+03  0.00000000000E+00 0.  1.
         21   -1    0    0  501  502  0.00000000000E+00 -0.00000000000E+00 -0.17094460916E+03  0.17094460916E+03  0.00000000000E+00 0.  1.
         23    2    1    2    0    0 -0.21784821408E+02 -0.34529117669E+02  0.39008791801E+03  0.40225502587E+03  0.89295485071E+02 0.  0.
         23    2    1    2    0    0  0.14757554981E+02  0.73212349150E+02  0.43696341810E+01  0.12765866155E+03  0.10343986982E+03 0.  0.
        -11    1    3    3    0    0 -0.44607866187E+02 -0.38793657836E+02  0.35683297821E+03  0.36169681220E+03  0.00000000000E+00 0.  1.
         11    1    3    3    0    0  0.22823044779E+02  0.42645401675E+01  0.33254939798E+02  0.40558213678E+02  0.00000000000E+00 0. -1.
        -13    1    4    4    0    0 -0.30795020640E+02 -0.10252692516E+02  0.25120633759E+01  0.32553977675E+02  0.00000000000E+00 0.  1.
         13    1    4    4    0    0  0.45552575621E+02  0.83465041666E+02  0.18575708051E+01  0.95104683877E+02  0.00000000000E+00 0. -1.
         -1    1    1    2    0  502  0.70272664271E+01 -0.38683231481E+02 -0.99472531987E+02  0.10696055110E+03  0.00000000000E+00 0.  1.
<scales pt_clust_5="13000.00000" pt_clust_6="13000.00000" pt_clust_7="13000.00000" pt_clust_8="13000.00000" pt_clust_9="39.31634"></scales>
<clustering>
<clus scale="   39.316">  2  9  1 -1</clus>
<clus scale="   89.295">  5  6 -1 -1</clus>
<clus scale="   99.325">  1  5  2 -1</clus>
<clus scale="  103.440">  7  8 -1 -1</clus>
<clus scale="   39.316">  2  5  1 -1</clus>
</clustering>
</event>
<event>
 9    1  0.1636528E-005  0.9854599E+02  0.7546771E-02  0.1288307E+00
         21   -1    0    0  501  502  0.00000000000E+00  0.00000000000E+00  0.30755483966E+03  0.30755483966E+03  0.00000000000E+00 0. -1.
          3   -1    0    0  502    0 -0.00000000000E+00 -0.00000000000E+00 -0.88346446023E+02  0.88346446023E+02  0.00000000000E+00 0. -1.
         23    2    1    2    0    0 -0.43822175546E+01 -0.94970423569E+01 -0.14464135039E+01  0.85625812742E+02  0.84972289903E+02 0.  0.
         23    2    1    2    0    0  0.53628724772E+01  0.92227500261E+02  0.10788568504E+03  0.17041066233E+03  0.94158380361E+02 0.  0.
        -13    1    3    3    0    0  0.21332410664E+02  0.30830595057E+02  0.28820066542E+01  0.37601905519E+02  0.00000000000E+00 0.  1.
         13    1    3    3    0    0 -0.25714628219E+02 -0.40327637414E+02 -0.43284201581E+01  0.48023907222E+02  0.00000000000E+00 0. -1.
        -13    1    4    4    0    0  0.24550333613E+02  0.25765989992E+01  0.64341153190E+02  0.68914016983E+02  0.00000000000E+00 0.  1.
         13    1    4    4    0    0 -0.19187461136E+02  0.89650901262E+02  0.43544531850E+02  0.10149664534E+03  0.00000000000E+00 0. -1.
          3    1    1    2  501    0 -0.98065492264E+00 -0.82730457904E+02  0.11276912210E+03  0.13986481061E+03  0.00000000000E+00 0. -1.
<scales pt_clust_5="13000.00000" pt_clust_6="13000.00000" pt_clust_7="13000.00000" pt_clust_8="13000.00000" pt_clust_9="82.73627"></scales>
<clustering>
<clus scale="   82.736">  1  9  2 -1</clus>
<clus scale="   84.972">  5  6 -1 -1</clus>
<clus scale="   89.810">  2  5  1 -1</clus>
<clus scale="   94.158">  7  8 -1 -1</clus>
<clus scale="   82.736">  1  5  2 -1</clus>
</clustering>
</event>
<event>
 9    1  0.1636528E-005  0.1120465E+03  0.7546771E-02  0.1265315E+00
         -1   -1    0    0    0  501 -0.00000000000E+00  0.00000000000E+00  0.13554270554E+03  0.13554270554E+03  0.00000000000E+00 0.  1.
         21   -1    0    0  501  502  0.00000000000E+00 -0.00000000000E+00 -0.11417393796E+03  0.11417393796E+03  0.00000000000E+00 0. -1.
         23    2    1    2    0    0 -0.10298259527E+02  0.39014970605E+02  0.53192967001E+02  0.12667662250E+03  0.10765339227E+03 0.  0.
         23    2    1    2    0    0  0.14628706849E+02 -0.12435245602E+02 -0.21118941845E+02  0.94060078023E+02  0.89625075597E+02 0.  0.
        -13    1    3    3    0    0 -0.43412002563E+00  0.72684980032E+02  0.13907498137E+02  0.74004819349E+02  0.00000000000E+00 0. -1.
         13    1    3    3    0    0 -0.98641395016E+01 -0.33670009427E+02  0.39285468864E+02  0.52671803147E+02  0.00000000000E+00 0.  1.
        -13    1    4    4    0    0  0.34537599475E+02  0.21557094418E+02 -0.33545903445E+02  0.52753025839E+02  0.00000000000E+00 0. -1.
         13    1    4    4    0    0 -0.19908892626E+02 -0.33992340020E+02  0.12426961599E+02  0.41307052185E+02  0.00000000000E+00 0.  1.
         -1    1    1    2    0  502 -0.43304473221E+01 -0.26579725003E+02 -0.10705257575E+02  0.28979942978E+02  0.00000000000E+00 0.  1.
<scales pt_clust_5="13000.00000" pt_clust_6="13000.00000" pt_clust_7="13000.00000" pt_clust_8="13000.00000" pt_clust_9="26.93018"></scales>
<clustering>
<clus scale="   26.930">  2  9  1 -1</clus>
<clus scale="   89.625">  7  8 -1 -1</clus>
<clus scale="   94.857">  2  7  1 -1</clus>
<clus scale="  107.653">  5  6 -1 -1</clus>
<clus scale="   26.930">  2  5  1 -1</clus>
</clustering>
</event>
<event>
 9    1  0.1636528E-005  0.1403266E+03  0.7546771E-02  0.1213050E+00
         -1   -1    0    0    0  501 -0.00000000000E+00  0.00000000000E+00  0.31283493317E+03  0.31283493317E+03  0.00000000000E+00 0.  1.
         21   -1    0    0  501  502  0.00000000000E+00 -0.00000000000E+00 -0.23700541124E+03  0.23700541124E+03  0.00000000000E+00 0.  1.
         23    2    1    2    0    0 -0.40876789699E+02 -0.10106175180E+03  0.13777802155E+03  0.19813071074E+03  0.91589331811E+02 0.  0.
         23    2    1    2    0    0 -0.28800567188E+02  0.11193522241E+03  0.98148013701E+02  0.17676947247E+03  0.90859491059E+02 0.  0.
        -11    1    3    3    0    0 -0.65213450297E+02 -0.58050605603E+02  0.11314106061E+03  0.14291104404E+03  0.00000000000E+00 0.  1.
         11    1    3    3    0    0  0.24336660598E+02 -0.43011146201E+02  0.24636960938E+02  0.55219666704E+02  0.00000000000E+00 0. -1.
        -11    1    4    4    0    0 -0.16873358620E+02  0.12456873998E+02 -0.14889238132E+02  0.25721068272E+02  0.00000000000E+00 0. -1.
         11    1    4    4    0    0 -0.11927208568E+02  0.99478348415E+02  0.11303725183E+03  0.15104840419E+03  0.00000000000E+00 0.  1.
         -1    1    1    2    0  502  0.69677356887E+02 -0.10873470609E+02 -0.16009651332E+03  0.17494016120E+03  0.00000000000E+00 0.  1.
<scales pt_clust_5="13000.00000" pt_clust_6="13000.00000" pt_clust_7="13000.00000" pt_clust_8="13000.00000" pt_clust_9="70.52068"></scales>
<clustering>
<clus scale="   70.521">  2  9  1 -1</clus>
<clus scale="   90.859">  7  8 -1 -1</clus>
<clus scale="   91.589">  5  6 -1 -1</clus>
<clus scale="  139.851">  2  7  1 -1</clus>
<clus scale="   70.521">  2  5  1 -1</clus>
</clustering>
</event>
<event>
 9    1  0.1636528E-005  0.1013550E+03  0.7546771E-02  0.1279372E+00
         21   -1    0    0  501  502  0.00000000000E+00  0.00000000000E+00  0.35308015535E+03  0.35308015535E+03  0.00000000000E+00 0. -1.
          4   -1    0    0  502    0 -0.00000000000E+00 -0.00000000000E+00 -0.65227146489E+02  0.65227146489E+02  0.00000000000E+00 0. -1.
         23    2    1    2    0    0 -0.29578443716E+02  0.10825454886E+02  0.29378891430E+02  0.10026582195E+03  0.90543033872E+02 0.  0.
         23    2    1    2    0    0  0.62210951150E+02 -0.62054158091E+02  0.15495774109E+03  0.19802106186E+03  0.86484209179E+02 0.  0.
        -11    1    4    4    0    0  0.74021949304E+02 -0.16443555966E+02  0.88234637079E+02  0.11633997891E+03  0.00000000000E+00 0. -1.
         11    1    4    4    0    0 -0.11810998154E+02 -0.45610602125E+02  0.66723104010E+02  0.81681082953E+02  0.00000000000E+00 0.  1.
        -11    1    3    3    0    0  0.18697576251E+02  0.32534365697E+02 -0.39229060767E+01  0.37728947787E+02  0.00000000000E+00 0. -1.
         11    1    3    3    0    0 -0.48276019967E+02 -0.21708910811E+02  0.33301797507E+02  0.62536874159E+02  0.00000000000E+00 0.  1.
          4    1    1    2  501    0 -0.32632507434E+02  0.51228703205E+02  0.10351637634E+03  0.12002041803E+03  0.00000000000E+00 0. -1.
<scales pt_clust_5="13000.00000" pt_clust_6="13000.00000" pt_clust_7="13000.00000" pt_clust_8="13000.00000" pt_clust_9="60.73928"></scales>
<clustering>
<clus scale="   60.739">  1  9  2 -1</clus>
<clus scale="   86.484">  5  6 -1 -1</clus>
<clus scale="   90.543">  7  8 -1 -1</clus>
<clus scale="   97.746">  1  5  2 -1</clus>
<clus scale="   60.739">  1  5  2 -1</clus>
</clustering>
</event>
<event>
 9    1  0.1636528E-005  0.1346124E+03  0.7546771E-02  0.1225908E+00
         -3   -1    0    0    0  501 -0.00000000000E+00  0.00000000000E+00  0.47133647068E+03  0.47133647068E+03  0.00000000000E+00 0.  1.
         21   -1    0    0  501  502  0.00000000000E+00 -0.00000000000E+00 -0.70621546059E+02  0.70621546059E+02  0.00000000000E+00 0. -1.
         23    2    1    2    0    0  0.52782613548E+02 -0.42883279982E+02  0.24984462295E+03  0.27534128038E+03  0.93624276049E+02 0.  0.
         23    2    1    2    0    0 -0.73084593497E+02  0.58755284201E+02  0.17769209995E+03  0.22942130962E+03  0.11075248842E+03 0.  0.
        -11    1    4    4    0    0 -0.70472766107E+02  0.28684905708E+02  0.18353132423E+03  0.19867808524E+03  0.00000000000E+00 0.  1.
         11    1    4    4    0    0 -0.26118273902E+01  0.30070378493E+02 -0.58392242811E+01  0.30743224379E+02  0.00000000000E+00 0. -1.
        -11    1    3    3    0    0  0.36502655068E+02  0.24046637389E+02  0.12949847748E+03  0.13667677295E+03  0.00000000000E+00 0. -1.
         11    1    3    3    0    0  0.16279958481E+02 -0.66929917370E+02  0.12034614548E+03  0.13866450742E+03  0.00000000000E+00 0.  1.
         -3    1    1    2    0  502  0.20301979948E+02 -0.15872004220E+02 -0.26821798284E+02  0.37195426748E+02  0.00000000000E+00 0.  1.
<scales pt_clust_5="13000.00000" pt_clust_6="13000.00000" pt_clust_7="13000.00000" pt_clust_8="13000.00000" pt_clust_9="25.76996"></scales>
<clustering>
<clus scale="   25.770">  2  9  1 -1</clus>
<clus scale="   93.624">  7  8 -1 -1</clus>
<clus scale="  110.752">  5  6 -1 -1</clus>
<clus scale="  120.913">  1  7  2 -1</clus>
<clus scale="   25.770">  2  5  1 -1</clus>
</clustering>
</event>
<event>
 9    1  0.1636528E-005  0.1331516E+03  0.7546771E-02  0.1223795E+00
         -2   -1    0    0    0  501 -0.00000000000E+00  0.00000000000E+00  0.31153917303E+03  0.31153917303E+03  0.00000000000E+00 0.  1.
         21   -1    0    0  501  502  0.00000000000E+00 -0.00000000000E+00 -0.15857900167E+03  0.15857900167E+03  0.00000000000E+00 0.  1.
         23    2    1    2    0    0 -0.85151748321E+02  0.25290129941E+02  0.91094952473E+02  0.15530904401E+03  0.89062887176E+02 0.  0.
         23    2    1    2    0    0  0.42708947635E+02 -0.12456706622E+03  0.11154566987E+03  0.19595860011E+03  0.92824179465E+02 0.  0.
        -11    1    3    3    0    0 -0.44538930937E+02  0.56941584204E+02  0.66584051105E+02  0.98282736237E+02  0.00000000000E+00 0. -1.
         11    1    3    3    0    0 -0.40612817384E+02 -0.31651454264E+02  0.24510901368E+02  0.57026307777E+02  0.00000000000E+00 0.  1.
        -11    1    4    4    0    0  0.67462023732E+02 -0.11015288613E+03  0.74443797752E+02  0.14908608920E+03  0.00000000000E+00 0. -1.
         11    1    4    4    0    0 -0.24753076098E+02 -0.14414180094E+02  0.37101872121E+02  0.46872510910E+02  0.00000000000E+00 0.  1.
         -2    1    1    2    0  502  0.42442800686E+02  0.99276936283E+02 -0.49680450992E+02  0.11885053058E+03  0.00000000000E+00 0.  1.
<scales pt_clust_5="13000.00000" pt_clust_6="13000.00000" pt_clust_7="13000.00000" pt_clust_8="13000.00000" pt_clust_9="107.96898"></scales>
<clustering>
<clus scale="   89.063">  5  6 -1 -1</clus>
<clus scale="   92.824">  7  8 -1 -1</clus>
<clus scale="  107.969">  2  9  1 -1</clus>
<clus scale="  130.557">  1  5  2 -1</clus>
<clus scale="  107.969">  2  5  1 -1</clus>
</clustering>
</event>
<event>
 9    1  0.1636528E-005  0.9883229E+02  0.7546771E-02  0.1284993E+00
          1   -1    0    0  502    0 -0.00000000000E+00  0.00000000000E+00  0.14747043314E+03  0.14747043314E+03  0.00000000000E+00 0. -1.
         21   -1    0    0  501  502  0.00000000000E+00 -0.00000000000E+00 -0.22671690749E+03  0.22671690749E+03  0.00000000000E+00 0. -1.
         23    2    1    2    0    0  0.31939370996E+01 -0.17336477780E+02  0.31745494115E+02  0.10023021505E+03  0.93421437134E+02 0.  0.
         23    2    1    2    0    0  0.65682939968E+01 -0.61995762775E+02  0.22912250236E+02  0.11801083568E+03  0.97544702771E+02 0.  0.
        -11    1    3    3    0    0 -0.27513077978E+02  0.27139210420E+02  0.23746388241E+01  0.38718795327E+02  0.00000000000E+00 0.  1.
         11    1    3    3    0    0  0.30707015077E+02 -0.44475688199E+02  0.29370855290E+02  0.61511419722E+02  0.00000000000E+00 0. -1.
        -13    1    4    4    0    0  0.51805434260E+02 -0.27670716962E+02  0.15503256544E+02  0.60743909650E+02  0.00000000000E+00 0. -1.
         13    1    4    4    0    0 -0.45237140264E+02 -0.34325045814E+02  0.74089936921E+01  0.57266926030E+02  0.00000000000E+00 0.  1.
          1    1    1    2  501    0 -0.97622310964E+01  0.79332240555E+02 -0.13390421870E+03  0.15594628990E+03  0.00000000000E+00 0. -1.
<scales pt_clust_5="13000.00000" pt_clust_6="13000.00000" pt_clust_7="13000.00000" pt_clust_8="13000.00000" pt_clust_9="79.93063"></scales>
<clustering>
<clus scale="   79.931">  2  9  1 -1</clus>
<clus scale="   93.421">  5  6 -1 -1</clus>
<clus scale="   94.765">  1  5  2 -1</clus>
<clus scale="   97.545">  7  8 -1 -1</clus>
<clus scale="   79.931">  2  5  1 -1</clus>
</clustering>
</event>
<event>
 9    1  0.1636528E-005  0.1108511E+03  0.7546771E-02  0.1265381E+00
          1   -1    0    0  502    0 -0.00000000000E+00  0.00000000000E+00  0.23071486797E+03  0.23071486797E+03  0.00000000000E+00 0. -1.
         21   -1    0    0  501  502  0.00000000000E+00 -0.00000000000E+00 -0.13387724500E+03  0.13387724500E+03  0.00000000000E+00 0. -1.
         23    2    1    2    0    0 -0.37922521608E+02  0.78408799377E+01  0.17441602140E+03  0.20680946239E+03  0.10416145242E+03 0.  0.
         23    2    1    2    0    0  0.27129903937E+02 -0.31545955178E+02 -0.30354839825E+02  0.10385236524E+03  0.90181586199E+02 0.  0.
        -11    1    4    4    0    0  0.55307089425E+02  0.21919918695E+01 -0.16193169906E+02  0.57670596673E+02  0.00000000000E+00 0.  1.
         11    1    4    4    0    0 -0.28177185488E+02 -0.33737947048E+02 -0.14161669919E+02  0.46181768566E+02  0.00000000000E+00 0. -1.
        -13    1    3    3    0    0 -0.73051782252E+02  0.14046355042E+02  0.13068045135E+03  0.15037035395E+03  0.00000000000E+00 0. -1.
         13    1    3    3    0    0  0.35129260644E+02 -0.62054751046E+01  0.43735570048E+02  0.56439108445E+02  0.00000000000E+00 0.  1.
          1    1    1    2  501    0  0.10792617671E+02  0.23705075241E+02 -0.47223558608E+02  0.53930285331E+02  0.00000000000E+00 0. -1.
<scales pt_clust_5="13000.00000" pt_clust_6="13000.00000" pt_clust_7="13000.00000" pt_clust_8="13000.00000" pt_clust_9="26.04633"></scales>
<clustering>
<clus scale="   26.046">  2  9  1 -1</clus>
<clus scale="   90.182">  5  6 -1 -1</clus>
<clus scale="   97.832">  2  5  1 -1</clus>
<clus scale="  104.161">  7  8 -1 -1</clus>
<clus scale="   26.046">  2  5  1 -1</clus>
</clustering>
</event>
<event>
 9    1  0.1636528E-005  0.1128605E+03  0.7546771E-02  0.1256137E+00
         21   -1    0    0  501  502  0.00000000000E+00  0.00000000000E+00  0.26862768930E+02  0.26862768930E+02  0.00000000000E+00 0.  1.
          2   -1    0    0  502    0 -0.00000000000E+00 -0.00000000000E+00 -0.68879107676E+03  0.68879107676E+03  0.00000000000E+00 0. -1.
         23    2    1    2    0    0 -0.12323888026E+02 -0.45387604706E+02 -0.24790077148E+03  0.26822964457E+03  0.90996905717E+02 0.  0.
         23    2    1    2    0    0  0.34532862443E+02  0.79468749327E+02 -0.28379381158E+03  0.31098525495E+03  0.93086522109E+02 0.  0.
        -11    1    4    4    0    0  0.66407655353E+02  0.60996764763E+02 -0.20845978797E+03  0.22712565950E+03  0.00000000000E+00 0. -1.
         11    1    4    4    0    0 -0.31874792910E+02  0.18471984564E+02 -0.75334023608E+02  0.83859595454E+02  0.00000000000E+00 0.  1.
        -13    1    3    3    0    0  0.15515510197E+01 -0.60039613508E+02 -0.23854009846E+03  0.24598483911E+03  0.00000000000E+00 0. -1.
         13    1    3    3    0    0 -0.13875439046E+02  0.14652008802E+02 -0.93606730261E+01  0.22244805464E+02  0.00000000000E+00 0.  1.
          2    1    1    2  501    0 -0.22208974417E+02 -0.34081144621E+02 -0.13023372477E+03  0.13643894616E+03  0.00000000000E+00 0. -1.
<scales pt_clust_5="13000.00000" pt_clust_6="13000.00000" pt_clust_7="13000.00000" pt_clust_8="13000.00000" pt_clust_9="40.67880"></scales>
<clustering>
<clus scale="   40.679">  1  9  2 -1</clus>
<clus scale="   90.997">  7  8 -1 -1</clus>
<clus scale="   93.087">  5  6 -1 -1</clus>
<clus scale="  111.143">  2  7  1 -1</clus>
<clus scale="   40.679">  1  5  2 -1</clus>
</clustering>
</event>
<event>
 9    1  0.1636528E-005  0.1105689E+03  0.7546771E-02  0.1262217E+00
         -1   -1    0    0    0  501 -0.00000000000E+00  0.00000000000E+00  0.44383414838E+03  0.44383414838E+03  0.00000000000E+00 0.  1.
         21   -1    0    0  501  502  0.00000000000E+00 -0.00000000000E+00 -0.12336200662E+03  0.12336200662E+03  0.00000000000E+00 0.  1.
         23    2    1    2    0    0  0.45542215560E+02 -0.45266677583E+02  0.30629266233E+03  0.32608517277E+03  0.91614296939E+02 0.  0.
         23    2    1    2    0    0 -0.53971084135E+02  0.25003987859E+02  0.10516184771E+03  0.14751924244E+03  0.84645350403E+02 0.  0.
        -11    1    3    3    0    0 -0.26294987427E+02 -0.22401278929E+02  0.12638434354E+03  0.13102002119E+03  0.00000000000E+00 0.  1.
         11    1    3    3    0    0  0.71837202987E+02 -0.22865398654E+02  0.17990831879E+03  0.19506515158E+03  0.00000000000E+00 0. -1.
        -13    1    4    4    0    0 -0.21542447610E+02 -0.31347867515E+02  0.32650416054E+02  0.50127991335E+02  0.00000000000E+00 0.  1.
         13    1    4    4    0    0 -0.32428636525E+02  0.56351855374E+02  0.72511431653E+02  0.97391251103E+02  0.00000000000E+00 0. -1.
         -1    1    1    2    0  502  0.84288685752E+01  0.20262689724E+02 -0.90982368280E+02  0.93591739796E+02  0.00000000000E+00 0.  1.
<scales pt_clust_5="13000.00000" pt_clust_6="13000.00000" pt_clust_7="13000.00000" pt_clust_8="13000.00000" pt_clust_9="21.94590"></scales>
<clustering>
<clus scale="   21.946">  2  9  1 -1</clus>
<clus scale="   84.645">  7  8 -1 -1</clus>
<clus scale="   91.614">  5  6 -1 -1</clus>
<clus scale="  104.867">  2  7  1 -1</clus>
<clus scale="   21.946">  2  5  1 -1</clus>
</clustering>
</event>
<event>
 9    1  0.1636528E-005  0.2020126E+03  0.7546771E-02  0.1148075E+00
         21   -1    0    0  501  502  0.00000000000E+00  0.00000000000E+00  0.32733813699E+02  0.32733813699E+02  0.00000000000E+00 0. -1.
          3   -1    0    0  502    0 -0.00000000000E+00 -0.00000000000E+00 -0.14483947658E+04  0.14483947658E+04  0.00000000000E+00 0. -1.
         23    2    1    2    0    0  0.18590434881E+03 -0.13434838636E+02 -0.77013217043E+03  0.79776677416E+03  0.92667924513E+02 0.  0.
         23    2    1    2    0    0 -0.17076660691E+03 -0.11556597632E+01 -0.50103482520E+03  0.53734626736E+03  0.92425891375E+02 0.  0.
        -11    1    3    3    0    0  0.67088263357E+02  0.39621026048E+02 -0.27563486150E+03  0.28643539875E+03  0.00000000000E+00 0.  1.
         11    1    3    3    0    0  0.11881608545E+03 -0.53055864684E+02 -0.49449730893E+03  0.51133137541E+03  0.00000000000E+00 0. -1.
        -11    1    4    4    0    0 -0.10995200868E+03 -0.22010902401E+02 -0.19782494525E+03  0.22739532317E+03  0.00000000000E+00 0.  1.
         11    1    4    4    0    0 -0.60814598230E+02  0.20855242638E+02 -0.30320987995E+03  0.30995094419E+03  0.00000000000E+00 0. -1.
          3    1    1    2  501    0 -0.15137741901E+02  0.14590498399E+02 -0.14449395645E+03  0.14601553796E+03  0.00000000000E+00 0. -1.
<scales pt_clust_5="13000.00000" pt_clust_6="13000.00000" pt_clust_7="13000.00000" pt_clust_8="13000.00000" pt_clust_9="21.02461"></scales>
<clustering>
<clus scale="   21.025">  1  9  2 -1</clus>
<clus scale="   92.426">  7  8 -1 -1</clus>
<clus scale="   92.668">  5  6 -1 -1</clus>
<clus scale="  201.902">  1  7  2 -1</clus>
<clus scale="   21.025">  1  5  2 -1</clus>
</clustering>
</event>
<event>
 9    1  0.1636528E-005  0.9800160E+02  0.7546771E-02  0.1284702E+00
         21   -1    0    0  501  502  0.00000000000E+00  0.00000000000E+00  0.37096186634E+03  0.37096186634E+03  0.00000000000E+00 0.  1.
          1   -1    0    0  502    0 -0.00000000000E+00 -0.00000000000E+00 -0.37765931686E+02  0.37765931686E+02  0.00000000000E+00 0. -1.
         23    2    1    2    0    0 -0.16024593900E+02 -0.39704336528E+02  0.87954326348E+02  0.13463117537E+03  0.92500637344E+02 0.  0.
         23    2    1    2    0    0  0.38161659756E+01  0.14753798052E+02  0.17181308142E+03  0.19558978446E+03  0.92213833883E+02 0.  0.
        -11    1    3    3    0    0  0.30093169077E+02 -0.37954739912E+02  0.19814590948E+02  0.52333346170E+02  0.00000000000E+00 0.  1.
         11    1    3    3    0    0 -0.46117762977E+02 -0.17495966162E+01  0.68139735401E+02  0.82297829199E+02  0.00000000000E+00 0. -1.
        -13    1    4    4    0    0 -0.12836784801E+02 -0.34700371353E+02  0.43712894825E+02  0.57268804685E+02  0.00000000000E+00 0.  1.
         13    1    4    4    0    0  0.16652950776E+02  0.49454169405E+02  0.12810018660E+03  0.13832097978E+03  0.00000000000E+00 0. -1.
          1    1    1    2  501    0  0.12208427924E+02  0.24950538476E+02  0.73428526884E+02  0.78506838192E+02  0.00000000000E+00 0. -1.
<scales pt_clust_5="13000.00000" pt_clust_6="13000.00000" pt_clust_7="13000.00000" pt_clust_8="13000.00000" pt_clust_9="27.77724"></scales>
<clustering>
<clus scale="   27.777">  1  9  2 -1</clus>
<clus scale="   92.214">  7  8 -1 -1</clus>
<clus scale="   92.501">  5  6 -1 -1</clus>
<clus scale="   97.731">  1  7  2 -1</clus>
<clus scale="   27.777">  1  5  2 -1</clus>
</clustering>
</event>
<event>
 9    1  0.1636528E-005  0.1176797E+03  0.7546771E-02  0.1248519E+00
          3   -1    0    0  502    0 -0.00000000000E+00  0.00000000000E+00  0.45706479955E+03  0.45706479955E+03  0.00000000000E+00 0. -1.
         21   -1    0    0  501  502  0.00000000000E+00 -0.00000000000E+00 -0.70273190622E+02  0.70273190622E+02  0.00000000000E+00 0. -1.
         23    2    1    2    0    0  0.10622177506E+02  0.69910225295E+02  0.28422136550E+03  0.30752923544E+03  0.93766602749E+02 0.  0.
         23    2    1    2    0    0  0.23868426265E+02 -0.73425896168E+02  0.13002934381E+03  0.17558247426E+03  0.89221695868E+02 0.  0.
        -11    1    4    4    0    0  0.34364640577E+02 -0.51792842649E+02  0.13708963041E+03  0.15052240311E+03  0.00000000000E+00 0. -1.
         11    1    4    4    0    0 -0.10496214312E+02 -0.21633053519E+02 -0.70602865925E+01  0.25060071153E+02  0.00000000000E+00 0.  1.
        -13    1    3    3    0    0  0.35569087102E+02  0.76498259332E+02  0.25476717189E+03  0.26837186051E+03  0.00000000000E+00 0.  1.
         13    1    3    3    0    0 -0.24946909596E+02 -0.65880340373E+01  0.29454193604E+02  0.39157374934E+02  0.00000000000E+00 0. -1.
          3    1    1    2  501    0 -0.34490603772E+02  0.35156708727E+01 -0.27459100384E+02  0.44226280469E+02  0.00000000000E+00 0. -1.
<scales pt_clust_5="13000.00000" pt_clust_6="13000.00000" pt_clust_7="13000.00000" pt_clust_8="13000.00000" pt_clust_9="34.66932"></scales>
<clustering>
<clus scale="   34.669">  2  9  1 -1</clus>
<clus scale="   89.222">  5  6 -1 -1</clus>
<clus scale="   93.767">  7  8 -1 -1</clus>
<clus scale="  114.091">  2  5  1 -1</clus>
<clus scale="   34.669">  2  5  1 -1</clus>
</clustering>
</event>
<event>
 9    1  0.1636528E-005  0.1858066E+03  0.7546771E-02  0.1162453E+00
         21   -1    0    0  501  502  0.00000000000E+00  0.00000000000E+00  0.46417021533E+03  0.46417021533E+03  0.00000000000E+00 0. -1.
          1   -1    0    0  502    0 -0.00000000000E+00 -0.00000000000E+00 -0.92080564451E+03  0.92080564451E+03  0.00000000000E+00 0. -1.
         23    2    1    2    0    0 -0.25801122582E+02 -0.18377080423E+03 -0.76996018345E+03  0.79737354168E+03  0.92349739861E+02 0.  0.
         23    2    1    2    0    0  0.54514586888E+02  0.88452153334E+02 -0.94789853174E+02  0.16752180083E+03  0.91009965799E+02 0.  0.
        -13    1    3    3    0    0 -0.21080659876E+02 -0.57082900908E+02 -0.11349240537E+03  0.12877646475E+03  0.00000000000E+00 0.  1.
         13    1    3    3    0    0 -0.47204627061E+01 -0.12668790332E+03 -0.65646777808E+03  0.66859707693E+03  0.00000000000E+00 0. -1.
        -13    1    4    4    0    0  0.75339489776E+01  0.89607630489E+02 -0.51498726392E+02  0.10362628358E+03  0.00000000000E+00 0.  1.
         13    1    4    4    0    0  0.46980637911E+02 -0.11554771553E+01 -0.43291126782E+02  0.63895517245E+02  0.00000000000E+00 0. -1.
          1    1    1    2  501    0 -0.28713464307E+02  0.95318650899E+02  0.40811460744E+03  0.42008051734E+03  0.00000000000E+00 0. -1.
<scales pt_clust_5="13000.00000" pt_clust_6="13000.00000" pt_clust_7="13000.00000" pt_clust_8="13000.00000" pt_clust_9="99.54953"></scales>
<clustering>
<clus scale="   91.010">  7  8 -1 -1</clus>
<clus scale="   92.350">  5  6 -1 -1</clus>
<clus scale="   99.550">  1  9  2 -1</clus>
<clus scale="  185.144">  1  7  2 -1</clus>
<clus scale="   99.550">  1  5  2 -1</clus>
</clustering>
</event>
<event>
 9    1  0.1636528E-005  0.1220296E+03  0.7546771E-02  0.1242435E+00
         -1   -1    0    0    0  501 -0.00000000000E+00  0.00000000000E+00  0.38348118714E+02  0.38348118714E+02  0.00000000000E+00 0.  1.
         21   -1    0    0  501  502  0.00000000000E+00 -0.00000000000E+00 -0.86008258925E+03  0.86008258925E+03  0.00000000000E+00 0.  1.
         23    2    1    2    0    0 -0.24969154727E+02 -0.50831547146E+02 -0.17829968848E+03  0.20756384245E+03  0.89914764668E+02 0.  0.
         23    2    1    2    0    0  0.39979073032E+00  0.13334253956E+03 -0.31776356306E+03  0.35400864550E+03  0.81043484539E+02 0.  0.
        -11    1    4    4    0    0  0.36422933653E+02  0.35612856023E+02 -0.86764209845E+02  0.10061279104E+03  0.00000000000E+00 0. -1.
         11    1    4    4    0    0 -0.36023142922E+02  0.97729683540E+02 -0.23099935322E+03  0.25339585446E+03  0.00000000000E+00 0.  1.
        -13    1    3    3    0    0 -0.58335239511E+02 -0.32164706342E+02 -0.96372530171E+02  0.11715473987E+03  0.00000000000E+00 0.  1.
         13    1    3    3    0    0  0.33366084784E+02 -0.18666840805E+02 -0.81927158312E+02  0.90409102576E+02  0.00000000000E+00 0. -1.
         -1    1    1    2    0  502  0.24569363996E+02 -0.82510992417E+02 -0.32567121899E+03  0.33685822002E+03  0.00000000000E+00 0.  1.
<scales pt_clust_5="13000.00000" pt_clust_6="13000.00000" pt_clust_7="13000.00000" pt_clust_8="13000.00000" pt_clust_9="86.09133"></scales>
<clustering>
<clus scale="   81.043">  5  6 -1 -1</clus>
<clus scale="   86.091">  2  9  1 -1</clus>
<clus scale="   89.915">  7  8 -1 -1</clus>
<clus scale="  115.649">  2  5  1 -1</clus>
<clus scale="   86.091">  2  5  1 -1</clus>
</clustering>
</event>
<event>
 9    1  0.1636528E-005  0.9833428E+02  0.7546771E-02  0.1285437E+00
          2   -1    0    0  502    0 -0.00000000000E+00  0.00000000000E+00  0.44545135359E+03  0.44545135359E+03  0.00000000000E+00 0. -1.
         21   -1    0    0  501  502  0.00000000000E+00 -0.00000000000E+00 -0.92247474318E+02  0.92247474318E+02  0.00000000000E+00 0. -1.
         23    2    1    2    0    0 -0.35128549726E+02 -0.44756817072E+02  0.25694792596E+03  0.27991369600E+03  0.95353305498E+02 0.  0.
         23    2    1    2    0    0  0.10912649399E+00 -0.36636718331E+02  0.12944344642E+03  0.16316654332E+03  0.92333385079E+02 0.  0.
        -11    1    3    3    0    0  0.15919951896E+02 -0.21837354826E+02  0.13673584444E+02  0.30286661184E+02  0.00000000000E+00 0.  1.
         11    1    3    3    0    0 -0.51048501622E+02 -0.22919462247E+02  0.24327434152E+03  0.24962703481E+03  0.00000000000E+00 0. -1.
        -13    1    4    4    0    0  0.40919749825E+02 -0.18442239246E+01  0.81576533450E+02  0.91282845581E+02  0.00000000000E+00 0.  1.
         13    1    4    4    0    0 -0.40810623331E+02 -0.34792494407E+02  0.47866912965E+02  0.71883697738E+02  0.00000000000E+00 0. -1.
          2    1    1    2  501    0  0.35019423232E+02  0.81393535404E+02 -0.33187493105E+02  0.94618588595E+02  0.00000000000E+00 0. -1.
<scales pt_clust_5="13000.00000" pt_clust_6="13000.00000" pt_clust_7="13000.00000" pt_clust_8="13000.00000" pt_clust_9="88.60738"></scales>
<clustering>
<clus scale="   88.607">  2  9  1 -1</clus>
<clus scale="   92.333">  7  8 -1 -1</clus>
<clus scale="   95.353">  5  6 -1 -1</clus>
<clus scale="   95.409">  2  7  1 -1</clus>
<clus scale="   88.607">  2  5  1 -1</clus>
</clustering>
</event>
<event>
 9    1  0.1636528E-005  0.1226572E+03  0.7546771E-02  0.1239399E+00
          2   -1    0    0  502    0 -0.00000000000E+00  0.00000000000E+00  0.43867795745E+03  0.43867795745E+03  0.00000000000E+00 0. -1.
         21   -1    0    0  501  502  0.00000000000E+00 -0.00000000000E+00 -0.78094395159E+02  0.78094395159E+02  0.00000000000E+00 0. -1.
         23    2    1    2    0    0  0.10214296931E+03 -0.14636491217E+02  0.11997146495E+03  0.18521605014E+03  0.96251855932E+02 0.  0.
         23    2    1    2    0    0 -0.28558609917E+02  0.58773114672E+02  0.55303262699E+02  0.12734547104E+03  0.94279079979E+02 0.  0.
        -11    1    4    4    0    0 -0.37262137242E+02  0.81280797226E+02  0.50666363829E+02  0.10277215232E+03  0.00000000000E+00 0. -1.
         11    1    4    4    0    0  0.87035273251E+01 -0.22507682554E+02  0.46368988699E+01  0.24573318721E+02  0.00000000000E+00 0.  1.
        -13    1    3    3    0    0  0.10140055183E+02 -0.32374133217E+02  0.72795843956E+02  0.80312764352E+02  0.00000000000E+00 0.  1.
         13    1    3    3    0    0  0.92002914128E+02  0.17737642000E+02  0.47175620996E+02  0.10490328578E+03  0.00000000000E+00 0. -1.
          2    1    1    2  501    0 -0.73584359393E+02 -0.44136623455E+02  0.18530883464E+03  0.20421083143E+03  0.00000000000E+00 0. -1.
<scales pt_clust_5="13000.00000" pt_clust_6="13000.00000" pt_clust_7="13000.00000" pt_clust_8="13000.00000" pt_clust_9="85.80622"></scales>
<clustering>
<clus scale="   85.806">  2  9  1 -1</clus>
<clus scale="   94.279">  5  6 -1 -1</clus>
<clus scale="   96.252">  7  8 -1 -1</clus>
<clus scale="  121.115">  2  5  1 -1</clus>
<clus scale="   85.806">  2  5  1 -1</clus>
</clustering>
</event>
<event>
 9    1  0.1636528E-005  0.1293668E+03  0.7546771E-02  0.1228715E+00
          2   -1    0    0  502    0 -0.00000000000E+00  0.00000000000E+00  0.45782783491E+03  0.45782783491E+03  0.00000000000E+00 0. -1.
         21   -1    0    0  501  502  0.00000000000E+00 -0.00000000000E+00 -0.12951141316E+03  0.12951141316E+03  0.00000000000E+00 0. -1.
         23    2    1    2    0    0 -0.85916554217E+02 -0.16939020471E+02  0.20831822264E+03  0.24349591901E+03  0.90692866226E+02 0.  0.
         23    2    1    2    0    0  0.96059984213E+02 -0.32246612279E+01  0.21137428668E+03  0.24972078866E+03  0.91888324681E+02 0.  0.
        -11    1    3    3    0    0 -0.70920127879E+02  0.29279342618E+02  0.11430856179E+03  0.13767131779E+03  0.00000000000E+00 0.  1.
         11    1    3    3    0    0 -0.14996426337E+02 -0.46218363089E+02  0.94009660855E+02  0.10582460122E+03  0.00000000000E+00 0. -1.
        -11    1    4    4    0    0 -0.39000486136E+01  0.27057199985E+02  0.31378191045E+02  0.41616022437E+02  0.00000000000E+00 0.  1.
         11    1    4    4    0    0  0.99960032827E+02 -0.30281861213E+02  0.17999609563E+03  0.20810476622E+03  0.00000000000E+00 0. -1.
          2    1    1    2  501    0 -0.10143429996E+02  0.20163681699E+02 -0.91376087570E+02  0.94122540400E+02  0.00000000000E+00 0. -1.
<scales pt_clust_5="13000.00000" pt_clust_6="13000.00000" pt_clust_7="13000.00000" pt_clust_8="13000.00000" pt_clust_9="22.57129"></scales>
<clustering>
<clus scale="   22.571">  2  9  1 -1</clus>
<clus scale="   90.693">  5  6 -1 -1</clus>
<clus scale="   91.888">  7  8 -1 -1</clus>
<clus scale="  128.520">  1  5  2 -1</clus>
<clus scale="   22.571">  2  5  1 -1</clus>
</clustering>
</event>
<event>
 9    1  0.1636528E-005  0.1146266E+03  0.7546771E-02  0.1254999E+00
         21   -1    0    0  501  502  0.00000000000E+00  0.00000000000E+00  0.38272412964E+03  0.38272412964E+03  0.00000000000E+00 0. -1.
          1   -1    0    0  502    0 -0.00000000000E+00 -0.00000000000E+00 -0.14159043838E+03  0.14159043838E+03  0.00000000000E+00 0. -1.
         23    2    1    2    0    0 -0.53190441253E+02 -0.42526382813E+02 -0.63772160490E+02  0.13504160033E+03  0.97630062435E+02 0.  0.
         23    2    1    2    0    0  0.66721020998E+02 -0.49922031137E+02  0.82499276648E+02  0.14803766662E+03  0.90361032841E+02 0.  0.
        -11    1    3    3    0    0  0.14312136671E+02  0.21599211731E+02 -0.12904478301E+02  0.28946308291E+02  0.00000000000E+00 0.  1.
         11    1    3    3    0    0 -0.67502577924E+02 -0.64125594544E+02 -0.50867682189E+02  0.10609529204E+03  0.00000000000E+00 0. -1.
        -13    1    4    4    0    0  0.78127671002E+01  0.25803265077E+02  0.17040525924E+02  0.31894001664E+02  0.00000000000E+00 0.  1.
         13    1    4    4    0    0  0.58908253898E+02 -0.75725296214E+02  0.65458750724E+02  0.11614366496E+03  0.00000000000E+00 0. -1.
          1    1    1    2  501    0 -0.13530579745E+02  0.92448413950E+02  0.22240657510E+03  0.24123530106E+03  0.00000000000E+00 0. -1.
<scales pt_clust_5="13000.00000" pt_clust_6="13000.00000" pt_clust_7="13000.00000" pt_clust_8="13000.00000" pt_clust_9="93.43332"></scales>
<clustering>
<clus scale="   90.361">  7  8 -1 -1</clus>
<clus scale="   93.433">  1  9  2 -1</clus>
<clus scale="   97.630">  5  6 -1 -1</clus>
<clus scale="  108.502">  1  7  2 -1</clus>
<clus scale="   93.433">  1  5  2 -1</clus>
</clustering>
</event>
<event>
 9    1  0.1636528E-005  0.9787708E+02  0.7546771E-02  0.1286145E+00
         21   -1    0    0  501  502  0.00000000000E+00  0.00000000000E+00  0.12471344204E+03  0.12471344204E+03  0.00000000000E+00 0.  1.
         -2   -1    0    0    0  501 -0.00000000000E+00 -0.00000000000E+00 -0.19447986247E+03  0.19447986247E+03  0.00000000000E+00 0.  1.
         23    2    1    2    0    0 -0.63646082356E+00 -0.29567349105E+02 -0.12841777658E+03  0.16285227954E+03  0.95682320171E+02 0.  0.
         23    2    1    2    0    0 -0.17670867287E+02 -0.14809745232E+02  0.30817330611E+02  0.10085032536E+03  0.93217445551E+02 0.  0.
        -11    1    3    3    0    0  0.34642901132E+02  0.90888924618E+01 -0.93003098717E+02  0.99661000075E+02  0.00000000000E+00 0. -1.
         11    1    3    3    0    0 -0.35279361955E+02 -0.38656241567E+02 -0.35414677865E+02  0.63191279464E+02  0.00000000000E+00 0.  1.
        -13    1    4    4    0    0  0.18982060696E+02  0.23894982650E+02 -0.11681815388E+02  0.32676499734E+02  0.00000000000E+00 0. -1.
         13    1    4    4    0    0 -0.36652927983E+02 -0.38704727882E+02  0.42499145999E+02  0.68173825628E+02  0.00000000000E+00 0.  1.
         -2    1    1    2    0  502  0.18307328111E+02  0.44377094337E+02  0.27834025541E+02  0.55490699601E+02  0.00000000000E+00 0.  1.
<scales pt_clust_5="13000.00000" pt_clust_6="13000.00000" pt_clust_7="13000.00000" pt_clust_8="13000.00000" pt_clust_9="48.00505"></scales>
<clustering>
<clus scale="   48.005">  1  9  2 -1</clus>
<clus scale="   93.217">  7  8 -1 -1</clus>
<clus scale="   95.469">  1  7  2 -1</clus>
<clus scale="   95.682">  5  6 -1 -1</clus>
<clus scale="   48.005">  1  5  2 -1</clus>
</clustering>
</event>
<event>
 9    1  0.1636528E-005  0.9360334E+02  0.7546771E-02  0.1295147E+00
          3   -1    0    0  502    0 -0.00000000000E+00  0.00000000000E+00  0.59276266406E+03  0.59276266406E+03  0.00000000000E+00 0. -1.
         21   -1    0    0  501  502  0.00000000000E+00 -0.00000000000E+00 -0.23824745292E+02  0.23824745292E+02  0.00000000000E+00 0. -1.
         23    2    1    2    0    0  0.20493754230E+02 -0.73730689977E+01  0.30558419808E+03  0.31968923992E+03  0.91351802932E+02 0.  0.
         23    2    1    2    0    0  0.32148133619E+01 -0.23976378380E+02  0.16251371916E+03  0.18866882989E+03  0.92736275063E+02 0.  0.
        -13    1    3    3    0    0  0.31427162621E+02 -0.42147140809E+02  0.22778684558E+03  0.23377530889E+03  0.00000000000E+00 0. -1.
         13    1    3    3    0    0 -0.10933408391E+02  0.34774071811E+02  0.77797352495E+02  0.85913931028E+02  0.00000000000E+00 0.  1.
        -13    1    4    4    0    0 -0.80467099269E+00 -0.55526460008E+02  0.13722406962E+03  0.14803472747E+03  0.00000000000E+00 0.  1.
         13    1    4    4    0    0  0.40194843545E+01  0.31550081628E+02  0.25289649541E+02  0.40634102416E+02  0.00000000000E+00 0. -1.
          3    1    1    2  501    0 -0.23708567592E+02  0.31349447377E+02  0.10084000154E+03  0.10822933955E+03  0.00000000000E+00 0. -1.
<scales pt_clust_5="13000.00000" pt_clust_6="13000.00000" pt_clust_7="13000.00000" pt_clust_8="13000.00000" pt_clust_9="39.30503"></scales>
<clustering>
<clus scale="   39.305">  2  9  1 -1</clus>
<clus scale="   91.352">  5  6 -1 -1</clus>
<clus scale="   92.232">  1  5  2 -1</clus>
<clus scale="   92.736">  7  8 -1 -1</clus>
<clus scale="   39.305">  2  5  1 -1</clus>
</clustering>
</event>
<event>
 9    1  0.1636528E-005  0.1072106E+03  0.7546771E-02  0.1266659E+00
         21   -1    0    0  501  502  0.00000000000E+00  0.00000000000E+00  0.48326127297E+02  0.48326127297E+02  0.00000000000E+00 0.  1.
          3   -1    0    0  502    0 -0.00000000000E+00 -0.00000000000E+00 -0.46731879220E+03  0.46731879220E+03  0.00000000000E+00 0. -1.
         23    2    1    2    0    0  0.26857477676E+02  0.38888497489E+02 -0.32342735517E+03  0.33988014524E+03  0.93164476664E+02 0.  0.
         23    2    1    2    0    0 -0.35538569710E+02 -0.64066449605E+02 -0.92178385783E+02  0.14891776538E+03  0.91170972016E+02 0.  0.
        -11    1    3    3    0    0 -0.14651448754E+01  0.65535832605E+02 -0.20669159465E+03  0.21683751360E+03  0.00000000000E+00 0. -1.
         11    1    3    3    0    0  0.28322622551E+02 -0.26647335116E+02 -0.11673576052E+03  0.12304263164E+03  0.00000000000E+00 0.  1.
        -13    1    4    4    0    0 -0.60830212357E+02 -0.64157876003E+02 -0.84959458434E+02  0.12261589361E+03  0.00000000000E+00 0.  1.
         13    1    4    4    0    0  0.25291642647E+02  0.91426397542E-01 -0.72189273491E+01  0.26301871770E+02  0.00000000000E+00 0. -1.
          3    1    1    2  501    0  0.86810920343E+01  0.25177952117E+02 -0.33869239481E+01  0.26847008875E+02  0.00000000000E+00 0. -1.
<scales pt_clust_5="13000.00000" pt_clust_6="13000.00000" pt_clust_7="13000.00000" pt_clust_8="13000.00000" pt_clust_9="26.63251"></scales>
<clustering>
<clus scale="   26.633">  1  9  2 -1</clus>
<clus scale="   91.171">  7  8 -1 -1</clus>
<clus scale="   93.164">  5  6 -1 -1</clus>
<clus scale="  105.483">  1  7  2 -1</clus>
<clus scale="   26.633">  1  5  2 -1</clus>
</clustering>
</event>
<event>
 9    1  0.1636528E-005  0.1161017E+03  0.7546771E-02  0.1249895E+00
          3   -1    0    0  502    0 -0.00000000000E+00  0.00000000000E+00  0.43194850095E+03  0.43194850095E+03  0.00000000000E+00 0. -1.
         21   -1    0    0  501  502  0.00000000000E+00 -0.00000000000E+00 -0.45856387888E+02  0.45856387888E+02  0.00000000000E+00 0.  1.
         23    2    1    2    0    0 -0.14887319418E+02  0.55517297913E+02  0.16467558078E+03  0.19702036567E+03  0.91625187247E+02 0.  0.
         23    2    1    2    0    0 -0.10350706219E+02 -0.88718180392E+02  0.18622917655E+03  0.22621890634E+03  0.92280196891E+02 0.  0.
        -13    1    4    4    0    0 -0.32188132192E+02 -0.44167378247E+02  0.30093033133E+02  0.62389292338E+02  0.00000000000E+00 0.  1.
         13    1    4    4    0    0  0.21837425973E+02 -0.44550802145E+02  0.15613614341E+03  0.16382961400E+03  0.00000000000E+00 0. -1.
        -13    1    3    3    0    0 -0.51255049593E+02  0.46825944989E+02  0.91623973296E+02  0.11495521613E+03  0.00000000000E+00 0.  1.
         13    1    3    3    0    0  0.36367730175E+02  0.86913529246E+01  0.73051607482E+02  0.82065149543E+02  0.00000000000E+00 0. -1.
          3    1    1    2  501    0  0.25238025636E+02  0.33200882479E+02  0.35187355733E+02  0.54565616819E+02  0.00000000000E+00 0. -1.
<scales pt_clust_5="13000.00000" pt_clust_6="13000.00000" pt_clust_7="13000.00000" pt_clust_8="13000.00000" pt_clust_9="41.70439"></scales>
<clustering>
<clus scale="   41.704">  2  9  1 -1</clus>
<clus scale="   91.625">  7  8 -1 -1</clus>
<clus scale="   92.280">  5  6 -1 -1</clus>
<clus scale="  115.582">  1  7  2 -1</clus>
<clus scale="   41.704">  2  5  1 -1</clus>
</clustering>
</event>
<event>
 9    1  0.1636528E-005  0.1233824E+03  0.7546771E-02  0.1238822E+00
          3   -1    0    0  502    0 -0.00000000000E+00  0.00000000000E+00  0.74106327708E+02  0.74106327708E+02  0.00000000000E+00 0. -1.
         21   -1    0    0  501  502  0.00000000000E+00 -0.00000000000E+00 -0.37808751191E+03  0.37808751191E+03  0.00000000000E+00 0.  1.
         23    2    1    2    0    0 -0.77334158232E+02 -0.17566495983E+02 -0.22316001373E+02  0.12085472375E+03  0.88423450084E+02 0.  0.
         23    2    1    2    0    0  0.83440731606E+02  0.42614125203E+02 -0.27474280869E+03  0.30464467390E+03  0.92446995929E+02 0.  0.
        -11    1    4    4    0    0  0.31419489600E+02 -0.29187391353E+02 -0.84863383579E+02  0.95083552800E+02  0.00000000000E+00 0. -1.
         11    1    4    4    0    0  0.52021242006E+02  0.71801516556E+02 -0.18987942511E+03  0.20956112110E+03  0.00000000000E+00 0.  1.
        -13    1    3    3    0    0 -0.43985859708E+01  0.29176631156E+02 -0.17022597597E+02  0.34064529838E+02  0.00000000000E+00 0.  1.
         13    1    3    3    0    0 -0.72935572261E+02 -0.46743127138E+02 -0.52934037761E+01  0.86790193912E+02  0.00000000000E+00 0. -1.
          3    1    1    2  501    0 -0.61065733745E+01 -0.25047629221E+02 -0.69223741438E+01  0.26694441964E+02  0.00000000000E+00 0. -1.
<scales pt_clust_5="13000.00000" pt_clust_6="13000.00000" pt_clust_7="13000.00000" pt_clust_8="13000.00000" pt_clust_9="25.78128"></scales>
<clustering>
<clus scale="   25.781">  2  9  1 -1</clus>
<clus scale="   88.423">  7  8 -1 -1</clus>
<clus scale="   92.447">  5  6 -1 -1</clus>
<clus scale="  120.397">  1  7  2 -1</clus>
<clus scale="   25.781">  2  5  1 -1</clus>
</clustering>
</event>
<event>
 9    1  0.1636528E-005  0.1197264E+03  0.7546771E-02  0.1254223E+00
         21   -1    0    0  501  502  0.00000000000E+00  0.00000000000E+00  0.30009951026E+03  0.30009951026E+03  0.00000000000E+00 0. -1.
         -1   -1    0    0    0  501 -0.00000000000E+00 -0.00000000000E+00 -0.97757693312E+02  0.97757693312E+02  0.00000000000E+00 0.  1.
         23    2    1    2    0    0 -0.16647065873E+02 -0.18272763200E+02 -0.32179132813E+02  0.10007480184E+03  0.91479236430E+02 0.  0.
         23    2    1    2    0    0  0.30246761381E+02  0.64116094093E+02  0.16857055523E+03  0.21632064847E+03  0.11555453591E+03 0.  0.
        -11    1    4    4    0    0 -0.36017937945E+02  0.52582371378E+02  0.54326126121E+02  0.83746794642E+02  0.00000000000E+00 0. -1.
         11    1    4    4    0    0  0.66264699326E+02  0.11533722715E+02  0.11424442911E+03  0.13257385383E+03  0.00000000000E+00 0.  1.
        -11    1    3    3    0    0 -0.18691243015E+01  0.27325909229E+02  0.16321774412E+02  0.31884153757E+02  0.00000000000E+00 0. -1.
         11    1    3    3    0    0 -0.14777941571E+02 -0.45598672430E+02 -0.48500907225E+02  0.68190648084E+02  0.00000000000E+00 0.  1.
         -1    1    1    2    0  502 -0.13599695508E+02 -0.45843330893E+02  0.65950394529E+02  0.81461753258E+02  0.00000000000E+00 0.  1.
<scales pt_clust_5="13000.00000" pt_clust_6="13000.00000" pt_clust_7="13000.00000" pt_clust_8="13000.00000" pt_clust_9="47.81802"></scales>
<clustering>
<clus scale="   47.818">  1  9  2 -1</clus>
<clus scale="   91.479">  7  8 -1 -1</clus>
<clus scale="   96.695">  2  7  1 -1</clus>
<clus scale="  115.555">  5  6 -1 -1</clus>
<clus scale="   47.818">  1  5  2 -1</clus>
</clustering>
</event>
<event>
 9    1  0.1636528E-005  0.1530800E+03  0.7546771E-02  0.1200405E+00
         21   -1    0    0  501  502  0.00000000000E+00  0.00000000000E+00  0.50530785748E+02  0.50530785748E+02  0.00000000000E+00 0.  1.
          3   -1    0    0  502    0 -0.00000000000E+00 -0.00000000000E+00 -0.77648283023E+03  0.77648283023E+03  0.00000000000E+00 0. -1.
         23    2    1    2    0    0 -0.57318432897E+02  0.10607715577E+03 -0.55378139955E+03  0.57308428650E+03  0.84935241309E+02 0.  0.
         23    2    1    2    0    0  0.52796890798E+02 -0.77958209917E+02 -0.17647742236E+03  0.22512537505E+03  0.10330614560E+03 0.  0.
        -13    1    3    3    0    0 -0.69017576819E+01  0.82900977370E+02 -0.22998047633E+03  0.24456333699E+03  0.00000000000E+00 0.  1.
         13    1    3    3    0    0 -0.50416675215E+02  0.23176178400E+02 -0.32380092322E+03  0.32852094951E+03  0.00000000000E+00 0. -1.
        -13    1    4    4    0    0 -0.26224642753E+02  0.13664235273E+01 -0.47925181904E+02  0.54648166129E+02  0.00000000000E+00 0. -1.
         13    1    4    4    0    0  0.79021533551E+02 -0.79324633444E+02 -0.12855224046E+03  0.17047720892E+03  0.00000000000E+00 0.  1.
          3    1    1    2  501    0  0.45215420980E+01 -0.28118945853E+02  0.43067774300E+01  0.28803954428E+02  0.00000000000E+00 0. -1.
<scales pt_clust_5="13000.00000" pt_clust_6="13000.00000" pt_clust_7="13000.00000" pt_clust_8="13000.00000" pt_clust_9="28.48016"></scales>
<clustering>
<clus scale="   28.480">  1  9  2 -1</clus>
<clus scale="   84.935">  5  6 -1 -1</clus>
<clus scale="  103.306">  7  8 -1 -1</clus>
<clus scale="  141.334">  2  5  1 -1</clus>
<clus scale="   28.480">  1  5  2 -1</clus>
</clustering>
</event>
<event>
 9    1  0.1636528E-005  0.2054607E+03  0.7546771E-02  0.1179137E+00
          2   -1    0    0  502    0 -0.00000000000E+00  0.00000000000E+00  0.91629104370E+03  0.91629104370E+03  0.00000000000E+00 0. -1.
         21   -1    0    0  501  502  0.00000000000E+00 -0.00000000000E+00 -0.70874076392E+02  0.70874076392E+02  0.00000000000E+00 0. -1.
         23    2    1    2    0    0  0.13361980308E+02 -0.61043975634E+01  0.30765425488E+03  0.32155983462E+03  0.92378463438E+02 0.  0.
         23    2    1    2    0    0  0.16653465917E+02  0.18818998239E+03  0.28296185135E+03  0.35099510443E+03  0.86240052229E+02 0.  0.
        -11    1    4    4    0    0 -0.30078077379E+02  0.53804848186E+02  0.11816848015E+03  0.13327956380E+03  0.00000000000E+00 0.  1.
         11    1    4    4    0    0  0.46731543295E+02  0.13438513421E+03  0.16479337121E+03  0.21771554062E+03  0.00000000000E+00 0. -1.
        -13    1    3    3    0    0  0.48090752729E+02  0.15717965979E+01  0.24347717691E+03  0.24818607277E+03  0.00000000000E+00 0.  1.
         13    1    3    3    0    0 -0.34728772421E+02 -0.76761941613E+01  0.64177077972E+02  0.73373761848E+02  0.00000000000E+00 0. -1.
          2    1    1    2  501    0 -0.30015446225E+02 -0.18208558483E+03  0.25480086107E+03  0.31461018105E+03  0.00000000000E+00 0. -1.
<scales pt_clust_5="13000.00000" pt_clust_6="13000.00000" pt_clust_7="13000.00000" pt_clust_8="13000.00000" pt_clust_9="186.48527"></scales>
<clustering>
<clus scale="   86.240">  5  6 -1 -1</clus>
<clus scale="   92.378">  7  8 -1 -1</clus>
<clus scale="   93.539">  1  7  2 -1</clus>
<clus scale="  186.485">  2  9  1 -1</clus>
<clus scale="  186.485">  2  5  1 -1</clus>
</clustering>
</event>
<event>
 9    1  0.1636528E-005  0.1432492E+03  0.7546771E-02  0.1209164E+00
         -1   -1    0    0    0  501 -0.00000000000E+00  0.00000000000E+00  0.16894967190E+03  0.16894967190E+03  0.00000000000E+00 0.  1.
         21   -1    0    0  501  502  0.00000000000E+00 -0.00000000000E+00 -0.41594444040E+03  0.41594444040E+03  0.00000000000E+00 0.  1.
         23    2    1    2    0    0 -0.15690277541E+03 -0.66156013833E+00  0.41862063051E+02  0.18658502991E+03  0.91883744324E+02 0.  0.
         23    2    1    2    0    0  0.59268428233E+02  0.35867754885E+02 -0.28501397021E+02  0.11802905423E+03  0.91210117773E+02 0.  0.
        -13    1    4    4    0    0  0.20170566205E+02 -0.25150492156E+02  0.12717289388E+02  0.34657300040E+02  0.00000000000E+00 0.  1.
         13    1    4    4    0    0  0.39097862027E+02  0.61018247041E+02 -0.41218686409E+02  0.83371754188E+02  0.00000000000E+00 0. -1.
        -13    1    3    3    0    0 -0.37817167363E+02  0.12617019513E+02 -0.27220884754E+02  0.48273221309E+02  0.00000000000E+00 0. -1.
         13    1    3    3    0    0 -0.11908560804E+03 -0.13278579651E+02  0.69082947805E+02  0.13831180860E+03  0.00000000000E+00 0.  1.
         -1    1    1    2    0  502  0.97634347175E+02 -0.35206194747E+02 -0.26035543453E+03  0.28028002816E+03  0.00000000000E+00 0.  1.
<scales pt_clust_5="13000.00000" pt_clust_6="13000.00000" pt_clust_7="13000.00000" pt_clust_8="13000.00000" pt_clust_9="103.78797"></scales>
<clustering>
<clus scale="   91.210">  5  6 -1 -1</clus>
<clus scale="   91.884">  7  8 -1 -1</clus>
<clus scale="  103.788">  2  9  1 -1</clus>
<clus scale="  142.818">  2  5  1 -1</clus>
<clus scale="  103.788">  2  5  1 -1</clus>
</clustering>
</event>
<event>
 9    1  0.1636528E-005  0.1047070E+03  0.7546771E-02  0.1272731E+00
          4   -1    0    0  502    0 -0.00000000000E+00  0.00000000000E+00  0.46938623249E+03  0.46938623249E+03  0.00000000000E+00 0.  1.
         21   -1    0    0  501  502  0.00000000000E+00 -0.00000000000E+00 -0.30706343197E+02  0.30706343197E+02  0.00000000000E+00 0. -1.
         23    2    1    2    0    0 -0.37882125902E+02  0.26073605376E+02  0.21819750738E+03  0.24262571473E+03  0.95614835978E+02 0.  0.
         23    2    1    2    0    0  0.43107023613E+02 -0.10047923216E+01  0.20232468829E+03  0.22607503429E+03  0.91188905821E+02 0.  0.
        -11    1    3    3    0    0 -0.52993408046E+02  0.53159563169E+02  0.15661261579E+03  0.17367139049E+03  0.00000000000E+00 0. -1.
         11    1    3    3    0    0  0.15111282144E+02 -0.27085957793E+02  0.61584891594E+02  0.68954324232E+02  0.00000000000E+00 0.  1.
        -13    1    4    4    0    0  0.21691572187E+02  0.25727312003E+02  0.17169820008E+02  0.37778586606E+02  0.00000000000E+00 0. -1.
         13    1    4    4    0    0  0.21415451425E+02 -0.26732104324E+02  0.18515486828E+03  0.18829644769E+03  0.00000000000E+00 0.  1.
          4    1    1    2  501    0 -0.52248977105E+01 -0.25068813054E+02  0.18157693622E+02  0.31391826670E+02  0.00000000000E+00 0.  1.
<scales pt_clust_5="13000.00000" pt_clust_6="13000.00000" pt_clust_7="13000.00000" pt_clust_8="13000.00000" pt_clust_9="25.60752"></scales>
<clustering>
<clus scale="   25.608">  2  9  1 -1</clus>
<clus scale="   91.189">  7  8 -1 -1</clus>
<clus scale="   95.615">  5  6 -1 -1</clus>
<clus scale="  100.682">  2  7  1 -1</clus>
<clus scale="   25.608">  2  5  1 -1</clus>
</clustering>
</event>
<event>
 9    1  0.1636528E-005  0.9368483E+02  0.7546771E-02  0.1294248E+00
          1   -1    0    0  502    0 -0.00000000000E+00  0.00000000000E+00  0.21106180471E+03  0.21106180471E+03  0.00000000000E+00 0. -1.
         21   -1    0    0  501  502  0.00000000000E+00 -0.00000000000E+00 -0.13865138350E+03  0.13865138350E+03  0.00000000000E+00 0.  1.
         23    2    1    2    0    0 -0.35913884000E+02  0.40198204286E+01  0.10608731734E+03  0.14491427937E+03  0.91867640893E+02 0.  0.
         23    2    1    2    0    0 -0.14466969166E+02 -0.18136488871E+02  0.49314164261E+02  0.10669168791E+03  0.91722429354E+02 0.  0.
        -13    1    4    4    0    0  0.23096603997E+02 -0.30238333484E+02  0.54938027909E+02  0.66828114133E+02  0.00000000000E+00 0. -1.
         13    1    4    4    0    0 -0.37563573163E+02  0.12101844613E+02 -0.56238636475E+01  0.39863573775E+02  0.00000000000E+00 0.  1.
        -13    1    3    3    0    0 -0.34195188379E+02 -0.40045720276E+02  0.71871064930E+02  0.89097814759E+02  0.00000000000E+00 0. -1.
         13    1    3    3    0    0 -0.17186956213E+01  0.44065540704E+02  0.34216252413E+02  0.55816464609E+02  0.00000000000E+00 0.  1.
          1    1    1    2  501    0  0.50380853166E+02  0.14116668443E+02 -0.82991060391E+02  0.98107220929E+02  0.00000000000E+00 0. -1.
<scales pt_clust_5="13000.00000" pt_clust_6="13000.00000" pt_clust_7="13000.00000" pt_clust_8="13000.00000" pt_clust_9="52.32123"></scales>
<clustering>
<clus scale="   52.321">  2  9  1 -1</clus>
<clus scale="   91.722">  5  6 -1 -1</clus>
<clus scale="   91.868">  7  8 -1 -1</clus>
<clus scale="   93.542">  2  5  1 -1</clus>
<clus scale="   52.321">  2  5  1 -1</clus>
</clustering>
</event>
<event>
 9    1  0.1636528E-005  0.2194609E+03  0.7546771E-02  0.1134633E+00
          2   -1    0    0  502    0 -0.00000000000E+00  0.00000000000E+00  0.45198233010E+03  0.45198233010E+03  0.00000000000E+00 0. -1.
         21   -1    0    0  501  502  0.00000000000E+00 -0.00000000000E+00 -0.29438962439E+03  0.29438962439E+03  0.00000000000E+00 0. -1.
         23    2    1    2    0    0  0.13963695840E+03 -0.14650395964E+03  0.37349790175E+03  0.43497027626E+03  0.93469611534E+02 0.  0.
         23    2    1    2    0    0 -0.11771145151E+03  0.12381225592E+03 -0.18082537952E+03  0.26421868556E+03  0.89040638948E+02 0.  0.
        -11    1    4    4    0    0 -0.23153979559E+02  0.80264183342E+02 -0.11076850086E+03  0.13873754604E+03  0.00000000000E+00 0.  1.
         11    1    4    4    0    0 -0.94557471952E+02  0.43548072580E+02 -0.70056878660E+02  0.12548113952E+03  0.00000000000E+00 0. -1.
        -13    1    3    3    0    0  0.87087761982E+02 -0.25162069192E+02  0.14741202276E+03  0.17305407383E+03  0.00000000000E+00 0.  1.
         13    1    3    3    0    0  0.52549196419E+02 -0.12134189045E+03  0.22608587898E+03  0.26191620244E+03  0.00000000000E+00 0. -1.
          2    1    1    2  501    0 -0.21925506889E+02  0.22691703721E+02 -0.35079816517E+02  0.47182992667E+02  0.00000000000E+00 0. -1.
<scales pt_clust_5="13000.00000" pt_clust_6="13000.00000" pt_clust_7="13000.00000" pt_clust_8="13000.00000" pt_clust_9="31.55378"></scales>
<clustering>
<clus scale="   31.554">  2  9  1 -1</clus>
<clus scale="   89.041">  5  6 -1 -1</clus>
<clus scale="   93.470">  7  8 -1 -1</clus>
<clus scale="  217.611">  2  5  1 -1</clus>
<clus scale="   31.554">  2  5  1 -1</clus>
</clustering>
</event>
<event>
 9    1  0.1636528E-005  0.1181485E+03  0.7546771E-02  0.1246302E+00
          3   -1    0    0  502    0 -0.00000000000E+00  0.00000000000E+00  0.84894598056E+02  0.84894598056E+02  0.00000000000E+00 0. -1.
         21   -1    0    0  501  502  0.00000000000E+00 -0.00000000000E+00 -0.34793641494E+03  0.34793641494E+03  0.00000000000E+00 0.  1.
         23    2    1    2    0    0 -0.43178926249E+02 -0.55591132717E+02 -0.24328743388E+02  0.11695082146E+03  0.90171021817E+02 0.  0.
         23    2    1    2    0    0  0.12065146573E+02  0.91735405706E+02 -0.84819858595E+02  0.15476657527E+03  0.90539118543E+02 0.  0.
        -11    1    3    3    0    0  0.15413458873E+02 -0.40059249918E+02 -0.35023871380E+02  0.55398463740E+02  0.00000000000E+00 0.  1.
         11    1    3    3    0    0 -0.58592385122E+02 -0.15531882800E+02  0.10695127991E+02  0.61552357716E+02  0.00000000000E+00 0. -1.
        -11    1    4    4    0    0 -0.79246278271E+01  0.10228431321E+03 -0.83233279957E+02  0.13210851353E+03  0.00000000000E+00 0.  1.
         11    1    4    4    0    0  0.19989774400E+02 -0.10548907501E+02 -0.15865786384E+01  0.22658061740E+02  0.00000000000E+00 0. -1.
          3    1    1    2  501    0  0.31113779676E+02 -0.36144272988E+02 -0.15389321490E+03  0.16111361627E+03  0.00000000000E+00 0. -1.
<scales pt_clust_5="13000.00000" pt_clust_6="13000.00000" pt_clust_7="13000.00000" pt_clust_8="13000.00000" pt_clust_9="47.69146"></scales>
<clustering>
<clus scale="   47.691">  2  9  1 -1</clus>
<clus scale="   90.171">  5  6 -1 -1</clus>
<clus scale="   90.539">  7  8 -1 -1</clus>
<clus scale="  117.867">  1  5  2 -1</clus>
<clus scale="   47.691">  2  5  1 -1</clus>
</clustering>
</event>
<event>
 9    1  0.1636528E-005  0.1116569E+03  0.7546771E-02  0.1267344E+00
          1   -1    0    0  502    0 -0.00000000000E+00  0.00000000000E+00  0.13136610763E+03  0.13136610763E+03  0.00000000000E+00 0. -1.
         21   -1    0    0  501  502  0.00000000000E+00 -0.00000000000E+00 -0.25836281363E+03  0.25836281363E+03  0.00000000000E+00 0.  1.
         23    2    1    2    0    0 -0.27228405976E+02  0.15931609446E+02  0.31204843831E+02  0.10690207560E+03  0.97257951948E+02 0.  0.
         23    2    1    2    0    0  0.72086164943E+02 -0.67070284940E+02 -0.14763179927E+02  0.12407562950E+03  0.74040340735E+02 0.  0.
        -11    1    4    4    0    0  0.73850857400E+02 -0.35016714167E+02 -0.31838988880E+02  0.87714540543E+02  0.00000000000E+00 0.  1.
         11    1    4    4    0    0 -0.17646924570E+01 -0.32053570773E+02  0.17075808953E+02  0.36361088957E+02  0.00000000000E+00 0. -1.
        -13    1    3    3    0    0 -0.45678404745E+02 -0.26388257103E+02  0.30791263316E+01  0.52842575562E+02  0.00000000000E+00 0.  1.
         13    1    3    3    0    0  0.18449998769E+02  0.42319866549E+02  0.28125717499E+02  0.54059500036E+02  0.00000000000E+00 0. -1.
          1    1    1    2  501    0 -0.44857758967E+02  0.51138675494E+02 -0.14343836990E+03  0.15875121616E+03  0.00000000000E+00 0. -1.
<scales pt_clust_5="13000.00000" pt_clust_6="13000.00000" pt_clust_7="13000.00000" pt_clust_8="13000.00000" pt_clust_9="68.02487"></scales>
<clustering>
<clus scale="   68.025">  2  9  1 -1</clus>
<clus scale="   74.040">  5  6 -1 -1</clus>
<clus scale="   92.142">  2  5  1 -1</clus>
<clus scale="   97.258">  7  8 -1 -1</clus>
<clus scale="   68.025">  2  5  1 -1</clus>
</clustering>
</event>
<event>
 9    1  0.1636528E-005  0.1361031E+03  0.7546771E-02  0.1234988E+00
         21   -1    0    0  501  502  0.00000000000E+00  0.00000000000E+00  0.48466477335E+03  0.48466477335E+03  0.00000000000E+00 0. -1.
          1   -1    0    0  502    0 -0.00000000000E+00 -0.00000000000E+00 -0.74232740314E+02  0.74232740314E+02  0.00000000000E+00 0. -1.
         23    2    1    2    0    0 -0.21326841094E+02 -0.20562988639E+02  0.19205418277E+03  0.21515898581E+03  0.92362922225E+02 0.  0.
         23    2    1    2    0    0 -0.73547467908E+02  0.67904738298E+02  0.45233218325E+02  0.14070789140E+03  0.87933970357E+02 0.  0.
        -11    1    3    3    0    0  0.65924726659E+01 -0.35790701662E+02  0.22804502993E+02  0.42947414103E+02  0.00000000000E+00 0.  1.
         11    1    3    3    0    0 -0.27919313760E+02  0.15227713024E+02  0.16924967978E+03  0.17221157171E+03  0.00000000000E+00 0. -1.
        -13    1    4    4    0    0 -0.24060031318E+02  0.70600122403E+02  0.51662404521E+02  0.90731838024E+02  0.00000000000E+00 0.  1.
         13    1    4    4    0    0 -0.49487436591E+02 -0.26953841055E+01 -0.64291861953E+01  0.49976053375E+02  0.00000000000E+00 0. -1.
          1    1    1    2  501    0  0.94874309002E+02 -0.47341749659E+02  0.17314463193E+03  0.20303063645E+03  0.00000000000E+00 0. -1.
<scales pt_clust_5="13000.00000" pt_clust_6="13000.00000" pt_clust_7="13000.00000" pt_clust_8="13000.00000" pt_clust_9="103.88298"></scales>
<clustering>
<clus scale="   87.934">  7  8 -1 -1</clus>
<clus scale="   92.363">  5  6 -1 -1</clus>
<clus scale="   96.998">  2  5  1 -1</clus>
<clus scale="  103.883">  1  9  2 -1</clus>
<clus scale="  103.883">  1  5  2 -1</clus>
</clustering>
</event>
<event>
 9    1  0.1636528E-005  0.1102855E+03  0.7546771E-02  0.1261271E+00
         21   -1    0    0  501  502  0.00000000000E+00  0.00000000000E+00  0.27155574873E+02  0.27155574873E+02  0.00000000000E+00 0.  1.
          1   -1    0    0  502    0 -0.00000000000E+00 -0.00000000000E+00 -0.68949969276E+03  0.68949969276E+03  0.00000000000E+00 0. -1.
         23    2    1    2    0    0 -0.51132815778E+02  0.45655187769E+01 -0.44378789714E+03  0.45614185297E+03  0.92099313603E+02 0.  0.
         23    2    1    2    0    0  0.64796983883E+02 -0.22053714602E+02 -0.19887862636E+03  0.23085276390E+03  0.95159209373E+02 0.  0.
        -13    1    3    3    0    0  0.23835194507E+02  0.17062336764E+02 -0.13371788436E+03  0.13689306933E+03  0.00000000000E+00 0.  1.
         13    1    3    3    0    0 -0.74968010285E+02 -0.12496817987E+02 -0.31007001279E+03  0.31924878364E+03  0.00000000000E+00 0. -1.
        -13    1    4    4    0    0  0.33158684455E+02 -0.28623555937E+01 -0.52180137099E+01  0.33688560394E+02  0.00000000000E+00 0.  1.
         13    1    4    4    0    0  0.31638299428E+02 -0.19191359008E+02 -0.19366061265E+03  0.19716420351E+03  0.00000000000E+00 0. -1.
          1    1    1    2  501    0 -0.13664168104E+02  0.17488195825E+02 -0.19677594376E+02  0.29660650761E+02  0.00000000000E+00 0. -1.
<scales pt_clust_5="13000.00000" pt_clust_6="13000.00000" pt_clust_7="13000.00000" pt_clust_8="13000.00000" pt_clust_9="22.19339"></scales>
<clustering>
<clus scale="   22.193">  1  9  2 -1</clus>
<clus scale="   92.099">  5  6 -1 -1</clus>
<clus scale="   95.159">  7  8 -1 -1</clus>
<clus scale="  107.656">  2  5  1 -1</clus>
<clus scale="   22.193">  1  5  2 -1</clus>
</clustering>
</event>
<event>
 9    1  0.1636528E-005  0.9253403E+02  0.7546771E-02  0.1301943E+00
         21   -1    0    0  501  502  0.00000000000E+00  0.00000000000E+00  0.14512037962E+03  0.14512037962E+03  0.00000000000E+00 0. -1.
          2   -1    0    0  502    0 -0.00000000000E+00 -0.00000000000E+00 -0.14300491979E+03  0.14300491979E+03  0.00000000000E+00 0. -1.
         23    2    1    2    0    0  0.76586391053E+01 -0.19024752330E+02 -0.87410360065E+02  0.12228140257E+03  0.83015507067E+02 0.  0.
         23    2    1    2    0    0  0.16047540428E+02 -0.53223515434E+01  0.30761509597E+02  0.97961582656E+02  0.91456821638E+02 0.  0.
        -11    1    3    3    0    0  0.84625391491E+01 -0.51914173992E+02 -0.54793554270E+02  0.75954128391E+02  0.00000000000E+00 0. -1.
         11    1    3    3    0    0 -0.80390004379E+00  0.32889421662E+02 -0.32616805796E+02  0.46327274179E+02  0.00000000000E+00 0.  1.
        -13    1    4    4    0    0 -0.28634404158E+02  0.25791212271E+02  0.13794104622E+02  0.40931565499E+02  0.00000000000E+00 0.  1.
         13    1    4    4    0    0  0.44681944587E+02 -0.31113563815E+02  0.16967404975E+02  0.57030017157E+02  0.00000000000E+00 0. -1.
          2    1    1    2  501    0 -0.23706179534E+02  0.24347103874E+02  0.58764310291E+02  0.67882314185E+02  0.00000000000E+00 0. -1.
<scales pt_clust_5="13000.00000" pt_clust_6="13000.00000" pt_clust_7="13000.00000" pt_clust_8="13000.00000" pt_clust_9="33.98182"></scales>
<clustering>
<clus scale="   33.982">  1  9  2 -1</clus>
<clus scale="   83.016">  5  6 -1 -1</clus>
<clus scale="   84.201">  2  5  1 -1</clus>
<clus scale="   91.457">  7  8 -1 -1</clus>
<clus scale="   33.982">  1  5  2 -1</clus>
</clustering>
</event>
<event>
 9    1  0.2180717E-005  0.1055530E+03  0.7546771E-02  0.1269680E+00
          1   -1    0    0  502    0 -0.00000000000E+00  0.00000000000E+00  0.14580866830E+03  0.14580866830E+03  0.00000000000E+00 0. -1.
         21   -1    0    0  501  502  0.00000000000E+00 -0.00000000000E+00 -0.40391030791E+03  0.40391030791E+03  0.00000000000E+00 0. -1.
         23    2    1    2    0    0 -0.44225343693E+02 -0.39090157932E+02  0.11102466237E+03  0.15420394029E+03  0.89266220228E+02 0.  0.
         23    2    1    2    0    0  0.47493190457E+01  0.20871148097E+02 -0.30467188779E+03  0.31776762214E+03  0.87710555896E+02 0.  0.
        -11    1    3    3    0    0  0.23058502528E+02  0.36941771018E+01  0.97456049564E+01  0.25304511440E+02  0.00000000000E+00 0.  1.
         11    1    3    3    0    0 -0.67283846220E+02 -0.42784335034E+02  0.10127905741E+03  0.12889942884E+03  0.00000000000E+00 0. -1.
        -11    1    4    4    0    0  0.18314452619E+02  0.51669556018E+02 -0.15654486432E+03  0.16586577929E+03  0.00000000000E+00 0.  1.
         11    1    4    4    0    0 -0.13565133573E+02 -0.30798407920E+02 -0.14812702347E+03  0.15190184285E+03  0.00000000000E+00 0. -1.
          1    1    1    2  501    0  0.39476024647E+02  0.18219009835E+02 -0.64454414187E+02  0.77747413780E+02  0.00000000000E+00 0. -1.
<scales pt_clust_5="13000.00000" pt_clust_6="13000.00000" pt_clust_7="13000.00000" pt_clust_8="13000.00000" pt_clust_9="43.47745"></scales>
<clustering>
<clus scale="   43.477">  2  9  1 -1</clus>
<clus scale="   87.711">  7  8 -1 -1</clus>
<clus scale="   89.266">  5  6 -1 -1</clus>
<clus scale="  104.241">  2  7  1 -1</clus>
<clus scale="   43.477">  2  5  1 -1</clus>
</clustering>
</event>
<event>
 9    1  0.1636528E-005  0.1026635E+03  0.7546771E-02  0.1276468E+00
         -1   -1    0    0    0  501 -0.00000000000E+00  0.00000000000E+00  0.14371404415E+03  0.14371404415E+03  0.00000000000E+00 0.  1.
         21   -1    0    0  501  502  0.00000000000E+00 -0.00000000000E+00 -0.16370152733E+03  0.16370152733E+03  0.00000000000E+00 0.  1.
         23    2    1    2    0    0  0.30778610633E+02 -0.88286612561E+01  0.64829884603E+02  0.11945036883E+03  0.95080011271E+02 0.  0.
         23    2    1    2    0    0 -0.51476598129E+02  0.99870396789E+01 -0.51499138068E+01  0.10564478143E+03  0.91568100970E+02 0.  0.
        -11    1    3    3    0    0  0.25420542961E+02  0.33323221139E+02  0.64544143421E+02  0.76958349264E+02  0.00000000000E+00 0. -1.
         11    1    3    3    0    0  0.53580676722E+01 -0.42151882395E+02  0.28574118235E+00  0.42492019564E+02  0.00000000000E+00 0.  1.
        -13    1    4    4    0    0 -0.10719717995E+02 -0.38152551690E+02 -0.13831830966E+02  0.41974386264E+02  0.00000000000E+00 0.  1.
         13    1    4    4    0    0 -0.40756880134E+02  0.48139591369E+02  0.86819171591E+01  0.63670395169E+02  0.00000000000E+00 0. -1.
         -1    1    1    2    0  502  0.20697987496E+02 -0.11583784228E+01 -0.79667453976E+02  0.82320421221E+02  0.00000000000E+00 0.  1.
<scales pt_clust_5="13000.00000" pt_clust_6="13000.00000" pt_clust_7="13000.00000" pt_clust_8="13000.00000" pt_clust_9="20.73038"></scales>
<clustering>
<clus scale="   20.730">  2  9  1 -1</clus>
<clus scale="   91.568">  7  8 -1 -1</clus>
<clus scale="   95.080">  5  6 -1 -1</clus>
<clus scale="   99.420">  2  7  1 -1</clus>
<clus scale="   20.730">  2  5  1 -1</clus>
</clustering>
</event>
<event>
 9    1  0.1636528E-005  0.1063699E+03  0.7546771E-02  0.1271972E+00
         21   -1    0    0  501  502  0.00000000000E+00  0.00000000000E+00  0.51974142263E+03  0.51974142263E+03  0.00000000000E+00 0. -1.
          3   -1    0    0  502    0 -0.00000000000E+00 -0.00000000000E+00 -0.53202535700E+02  0.53202535700E+02  0.00000000000E+00 0. -1.
         23    2    1    2    0    0 -0.23515595152E+02  0.24552851004E+02  0.56822426463E+02  0.10628245833E+03  0.83134512036E+02 0.  0.
         23    2    1    2    0    0  0.26017934024E+02 -0.86218565077E+02  0.14389135278E+03  0.19376608071E+03  0.93434462460E+02 0.  0.
        -13    1    4    4    0    0  0.30687218860E+02 -0.28615185803E+02  0.12670614406E+03  0.13347277326E+03  0.00000000000E+00 0.  1.
         13    1    4    4    0    0 -0.46692848353E+01 -0.57603379274E+02  0.17185208720E+02  0.60293307451E+02  0.00000000000E+00 0. -1.
        -13    1    3    3    0    0 -0.44315519630E+02  0.39321521884E+02  0.54781489736E+02  0.80691133225E+02  0.00000000000E+00 0.  1.
         13    1    3    3    0    0  0.20799924479E+02 -0.14768670880E+02  0.20409367277E+01  0.25591325105E+02  0.00000000000E+00 0. -1.
          3    1    1    2  501    0 -0.25023388728E+01  0.61665714072E+02  0.26582510769E+03  0.27289541929E+03  0.00000000000E+00 0. -1.
<scales pt_clust_5="13000.00000" pt_clust_6="13000.00000" pt_clust_7="13000.00000" pt_clust_8="13000.00000" pt_clust_9="61.71646"></scales>
<clustering>
<clus scale="   61.716">  1  9  2 -1</clus>
<clus scale="   83.135">  7  8 -1 -1</clus>
<clus scale="   93.434">  5  6 -1 -1</clus>
<clus scale="   97.447">  2  7  1 -1</clus>
<clus scale="   61.716">  1  5  2 -1</clus>
</clustering>
</event>
<event>
 9    1  0.1636528E-005  0.1024774E+03  0.7546771E-02  0.1275877E+00
         21   -1    0    0  501  502  0.00000000000E+00  0.00000000000E+00  0.92259631659E+02  0.92259631659E+02  0.00000000000E+00 0. -1.
          1   -1    0    0  502    0 -0.00000000000E+00 -0.00000000000E+00 -0.57105605992E+03  0.57105605992E+03  0.00000000000E+00 0. -1.
         23    2    1    2    0    0  0.32206509586E+02  0.22967634844E+02 -0.47614134092E+03  0.48645360792E+03  0.91442684841E+02 0.  0.
         23    2    1    2    0    0 -0.49662911061E+02 -0.67093069115E+02 -0.19613685970E+02  0.12646988219E+03  0.92962625633E+02 0.  0.
        -11    1    4    4    0    0 -0.16453044390E+01  0.20955580007E+02 -0.15459733784E+02  0.26093039854E+02  0.00000000000E+00 0.  1.
         11    1    4    4    0    0 -0.48017606622E+02 -0.88048649122E+02 -0.41539521854E+01  0.10037684233E+03  0.00000000000E+00 0. -1.
        -13    1    3    3    0    0  0.57404112434E+02 -0.90130746444E+01 -0.24881722692E+03  0.25551219159E+03  0.00000000000E+00 0. -1.
         13    1    3    3    0    0 -0.25197602848E+02  0.31980709489E+02 -0.22732411401E+03  0.23094141633E+03  0.00000000000E+00 0.  1.
          1    1    1    2  501    0  0.17456401475E+02  0.44125434271E+02  0.16958598631E+02  0.50392201475E+02  0.00000000000E+00 0. -1.
<scales pt_clust_5="13000.00000" pt_clust_6="13000.00000" pt_clust_7="13000.00000" pt_clust_8="13000.00000" pt_clust_9="47.45292"></scales>
<clustering>
<clus scale="   47.453">  1  9  2 -1</clus>
<clus scale="   91.443">  7  8 -1 -1</clus>
<clus scale="   92.963">  5  6 -1 -1</clus>
<clus scale="  101.101">  2  7  1 -1</clus>
<clus scale="   47.453">  1  5  2 -1</clus>
</clustering>
</event>
<event>
 9    1  0.1636528E-005  0.1643437E+03  0.7546771E-02  0.1184448E+00
         21   -1    0    0  501  502  0.00000000000E+00  0.00000000000E+00  0.50384324364E+02  0.50384324364E+02  0.00000000000E+00 0. -1.
         -1   -1    0    0    0  501 -0.00000000000E+00 -0.00000000000E+00 -0.86445469377E+03  0.86445469377E+03  0.00000000000E+00 0.  1.
         23    2    1    2    0    0  0.28304873691E+02 -0.14016800557E+03 -0.49949214696E+03  0.52790114529E+03  0.93482504605E+02 0.  0.
         23    2    1    2    0    0  0.12114639729E+02  0.12750929973E+03 -0.30609044436E+03  0.34374039288E+03  0.89781465525E+02 0.  0.
        -11    1    4    4    0    0 -0.20737085061E+02  0.19952839465E+02 -0.16714587954E+02  0.33279422321E+02  0.00000000000E+00 0. -1.
         11    1    4    4    0    0  0.32851724790E+02  0.10755646027E+03 -0.28937585641E+03  0.31046097056E+03  0.00000000000E+00 0.  1.
        -11    1    3    3    0    0  0.40666363568E+02 -0.13933597035E+02 -0.15295719953E+03  0.15888298568E+03  0.00000000000E+00 0.  1.
         11    1    3    3    0    0 -0.12361489877E+02 -0.12623440854E+03 -0.34653494743E+03  0.36901815961E+03  0.00000000000E+00 0. -1.
         -1    1    1    2    0  502 -0.40419513421E+02  0.12658705839E+02 -0.84877780905E+01  0.43197479968E+02  0.00000000000E+00 0.  1.
<scales pt_clust_5="13000.00000" pt_clust_6="13000.00000" pt_clust_7="13000.00000" pt_clust_8="13000.00000" pt_clust_9="42.35540"></scales>
<clustering>
<clus scale="   42.355">  1  9  2 -1</clus>
<clus scale="   89.781">  5  6 -1 -1</clus>
<clus scale="   93.483">  7  8 -1 -1</clus>
<clus scale="  162.267">  1  5  2 -1</clus>
<clus scale="   42.355">  1  5  2 -1</clus>
</clustering>
</event>
<event>
 9    1  0.1636528E-005  0.1289386E+03  0.7546771E-02  0.1229398E+00
          2   -1    0    0  502    0 -0.00000000000E+00  0.00000000000E+00  0.21678543107E+03  0.21678543107E+03  0.00000000000E+00 0. -1.
         21   -1    0    0  501  502  0.00000000000E+00 -0.00000000000E+00 -0.13168920450E+03  0.13168920450E+03  0.00000000000E+00 0. -1.
         23    2    1    2    0    0 -0.24892751817E+02 -0.95129377164E+02  0.13090201003E+03  0.18788846208E+03  0.92181833690E+02 0.  0.
         23    2    1    2    0    0  0.24046461666E+01  0.72239843624E+02 -0.16739920576E+02  0.11729102334E+03  0.90843722320E+02 0.  0.
        -11    1    4    4    0    0  0.38235383102E+02  0.55339781741E+01  0.38400362167E+01  0.38824158890E+02  0.00000000000E+00 0.  1.
         11    1    4    4    0    0 -0.35830736935E+02  0.66705865450E+02 -0.20579956793E+02  0.78466864448E+02  0.00000000000E+00 0. -1.
        -11    1    3    3    0    0 -0.18065854984E+02  0.12317047220E+02  0.53770768885E+01  0.22516609967E+02  0.00000000000E+00 0.  1.
         11    1    3    3    0    0 -0.68268968332E+01 -0.10744642438E+03  0.12552493314E+03  0.16537185212E+03  0.00000000000E+00 0. -1.
          2    1    1    2  501    0  0.22488105651E+02  0.22889533541E+02 -0.29065862877E+02  0.43295150147E+02  0.00000000000E+00 0. -1.
<scales pt_clust_5="13000.00000" pt_clust_6="13000.00000" pt_clust_7="13000.00000" pt_clust_8="13000.00000" pt_clust_9="32.08809"></scales>
<clustering>
<clus scale="   32.088">  2  9  1 -1</clus>
<clus scale="   90.844">  5  6 -1 -1</clus>
<clus scale="   92.182">  7  8 -1 -1</clus>
<clus scale="  127.985">  2  5  1 -1</clus>
<clus scale="   32.088">  2  5  1 -1</clus>
</clustering>
</event>
<event>
 9    1  0.1636528E-005  0.1944544E+03  0.7546771E-02  0.1166781E+00
         21   -1    0    0  501  502  0.00000000000E+00  0.00000000000E+00  0.12026669347E+03  0.12026669347E+03  0.00000000000E+00 0. -1.
          2   -1    0    0  502    0 -0.00000000000E+00 -0.00000000000E+00 -0.96932637968E+03  0.96932637968E+03  0.00000000000E+00 0. -1.
         23    2    1    2    0    0 -0.62572240033E+02  0.48381594053E+02 -0.42097415319E+03  0.44562661216E+03  0.12291369310E+03 0.  0.
         23    2    1    2    0    0  0.16833310081E+03  0.87190896708E+02 -0.42276605949E+03  0.47193868206E+03  0.89759084635E+02 0.  0.
        -11    1    4    4    0    0  0.85727042408E+02 -0.32811208977E+01 -0.20189246134E+03  0.21936375612E+03  0.00000000000E+00 0.  1.
         11    1    4    4    0    0  0.82606058401E+02  0.90472017606E+02 -0.22087359815E+03  0.25257492594E+03  0.00000000000E+00 0. -1.
        -13    1    3    3    0    0 -0.40090979576E+02  0.83515750675E+02 -0.36015332172E+03  0.37187710658E+03  0.00000000000E+00 0. -1.
         13    1    3    3    0    0 -0.22481260457E+02 -0.35134156622E+02 -0.60820831463E+02  0.73749505579E+02  0.00000000000E+00 0.  1.
          2    1    1    2  501    0 -0.10576086078E+03 -0.13557249076E+03 -0.53194735424E+01  0.17202777893E+03  0.00000000000E+00 0. -1.
<scales pt_clust_5="13000.00000" pt_clust_6="13000.00000" pt_clust_7="13000.00000" pt_clust_8="13000.00000" pt_clust_9="172.49874"></scales>
<clustering>
<clus scale="   89.759">  5  6 -1 -1</clus>
<clus scale="  122.914">  7  8 -1 -1</clus>
<clus scale="  146.164">  2  7  1 -1</clus>
<clus scale="  172.499">  1  9  2 -1</clus>
<clus scale="  172.499">  1  5  2 -1</clus>
</clustering>
</event>
<event>
 9    1  0.1636528E-005  0.1393667E+03  0.7546771E-02  0.1228261E+00
         21   -1    0    0  501  502  0.00000000000E+00  0.00000000000E+00  0.37213052540E+03  0.37213052540E+03  0.00000000000E+00 0. -1.
         -3   -1    0    0    0  501 -0.00000000000E+00 -0.00000000000E+00 -0.11664568165E+03  0.11664568165E+03  0.00000000000E+00 0.  1.
         23    2    1    2    0    0  0.39415299529E+02  0.18255591044E+02 -0.32737407724E+02  0.10880565978E+03  0.94234289376E+02 0.  0.
         23    2    1    2    0    0 -0.30825820544E+02  0.90155674785E+02  0.12349549195E+03  0.18258339721E+03  0.94906709447E+02 0.  0.
        -11    1    4    4    0    0  0.26764302186E+02  0.40414066217E+02  0.16333682259E+02  0.51150892425E+02  0.00000000000E+00 0.  1.
         11    1    4    4    0    0 -0.57590122730E+02  0.49741608568E+02  0.10716180969E+03  0.13143250479E+03  0.00000000000E+00 0. -1.
        -13    1    3    3    0    0 -0.21640408248E+02 -0.17250404531E+02 -0.25801969223E+02  0.37836825202E+02  0.00000000000E+00 0. -1.
         13    1    3    3    0    0  0.61055707777E+02  0.35505995575E+02 -0.69354385016E+01  0.70968834577E+02  0.00000000000E+00 0.  1.
         -3    1    1    2    0  502 -0.85894789855E+01 -0.10841126583E+03  0.16472675953E+03  0.19738715007E+03  0.00000000000E+00 0.  1.
<scales pt_clust_5="13000.00000" pt_clust_6="13000.00000" pt_clust_7="13000.00000" pt_clust_8="13000.00000" pt_clust_9="102.05784"></scales>
<clustering>
<clus scale="   94.234">  7  8 -1 -1</clus>
<clus scale="   94.907">  5  6 -1 -1</clus>
<clus scale="  103.764">  2  7  1 -1</clus>
<clus scale="  102.058">  1  9  2 -1</clus>
<clus scale="  102.058">  1  5  2 -1</clus>
</clustering>
</event>
<event>
 9    1  0.1636528E-005  0.1011460E+03  0.7546771E-02  0.1284953E+00
         21   -1    0    0  501  502  0.00000000000E+00  0.00000000000E+00  0.68800918518E+02  0.68800918518E+02  0.00000000000E+00 0. -1.
          1   -1    0    0  502    0 -0.00000000000E+00 -0.00000000000E+00 -0.52522091982E+03  0.52522091982E+03  0.00000000000E+00 0. -1.
         23    2    1    2    0    0 -0.32165159000E+02  0.29346559008E+02 -0.25831873839E+03  0.27566780930E+03  0.85839108228E+02 0.  0.
         23    2    1    2    0    0  0.35453452024E+00  0.65790873576E+01 -0.23681369810E+03  0.25669998997E+03  0.98847089775E+02 0.  0.
        -13    1    3    3    0    0  0.24233027732E+02 -0.59628219294E+01 -0.11470336349E+03  0.11738678151E+03  0.00000000000E+00 0.  1.
         13    1    3    3    0    0 -0.56398186732E+02  0.35309380938E+02 -0.14361537490E+03  0.15828102778E+03  0.00000000000E+00 0. -1.
        -13    1    4    4    0    0  0.27307940565E+02 -0.21616769577E+02 -0.20018303812E+03  0.20319019931E+03  0.00000000000E+00 0.  1.
         13    1    4    4    0    0 -0.26953406045E+02  0.28195856934E+02 -0.36630659979E+02  0.53509790657E+02  0.00000000000E+00 0. -1.
          1    1    1    2  501    0  0.31810624480E+02 -0.35925646366E+02  0.38712435183E+02  0.61654039076E+02  0.00000000000E+00 0. -1.
<scales pt_clust_5="13000.00000" pt_clust_6="13000.00000" pt_clust_7="13000.00000" pt_clust_8="13000.00000" pt_clust_9="47.98508"></scales>
<clustering>
<clus scale="   47.985">  1  9  2 -1</clus>
<clus scale="   85.839">  5  6 -1 -1</clus>
<clus scale="   88.477">  2  5  1 -1</clus>
<clus scale="   98.847">  7  8 -1 -1</clus>
<clus scale="   47.985">  1  5  2 -1</clus>
</clustering>
</event>
<event>
 9    1  0.1636528E-005  0.9807721E+02  0.7546771E-02  0.1284698E+00
         21   -1    0    0  501  502  0.00000000000E+00  0.00000000000E+00  0.77887342160E+02  0.77887342160E+02  0.00000000000E+00 0. -1.
         -1   -1    0    0    0  501 -0.00000000000E+00 -0.00000000000E+00 -0.27239253571E+03  0.27239253571E+03  0.00000000000E+00 0.  1.
         23    2    1    2    0    0  0.23550158361E+01  0.28678459426E+02 -0.13111031407E+03  0.16176177782E+03  0.90271580092E+02 0.  0.
         23    2    1    2    0    0 -0.14852550819E+02 -0.46561759083E+02 -0.10141493351E+03  0.14468289393E+03  0.90882096056E+02 0.  0.
        -11    1    3    3    0    0  0.36974145021E+02  0.40549396743E+02 -0.98444636658E+02  0.11270619975E+03  0.00000000000E+00 0.  1.
         11    1    3    3    0    0 -0.34619129185E+02 -0.11870937317E+02 -0.32665677416E+02  0.49055578066E+02  0.00000000000E+00 0. -1.
        -13    1    4    4    0    0 -0.21293594404E+02 -0.20051728576E+02  0.92722185955E+01  0.30683269369E+02  0.00000000000E+00 0. -1.
         13    1    4    4    0    0  0.64410435847E+01 -0.26510030507E+02 -0.11068715210E+03  0.11399962456E+03  0.00000000000E+00 0.  1.
         -1    1    1    2    0  502  0.12497534983E+02  0.17883299657E+02  0.38020054029E+02  0.43835206121E+02  0.00000000000E+00 0.  1.
<scales pt_clust_5="13000.00000" pt_clust_6="13000.00000" pt_clust_7="13000.00000" pt_clust_8="13000.00000" pt_clust_9="21.81744"></scales>
<clustering>
<clus scale="   21.817">  1  9  2 -1</clus>
<clus scale="   90.272">  5  6 -1 -1</clus>
<clus scale="   90.882">  7  8 -1 -1</clus>
<clus scale="   97.512">  2  5  1 -1</clus>
<clus scale="   21.817">  1  5  2 -1</clus>
</clustering>
</event>
<event>
 9    1  0.1636528E-005  0.1005903E+03  0.7546771E-02  0.1281507E+00
         21   -1    0    0  501  502  0.00000000000E+00  0.00000000000E+00  0.22407306799E+03  0.22407306799E+03  0.00000000000E+00 0. -1.
         -3   -1    0    0    0  501 -0.00000000000E+00 -0.00000000000E+00 -0.68541954578E+02  0.68541954578E+02  0.00000000000E+00 0.  1.
         23    2    1    2    0    0  0.13150646376E+02  0.15982222149E+02  0.32549190316E+02  0.10411221028E+03  0.96703317495E+02 0.  0.
         23    2    1    2    0    0 -0.98533463805E+00 -0.39440251322E+02  0.51973459332E+02  0.11273688413E+03  0.91933999482E+02 0.  0.
        -11    1    4    4    0    0  0.36988225255E+02 -0.29032916252E+02 -0.63471777306E+00  0.47025970487E+02  0.00000000000E+00 0.  1.
         11    1    4    4    0    0 -0.37973559893E+02 -0.10407335071E+02  0.52608177105E+02  0.65710913648E+02  0.00000000000E+00 0. -1.
        -11    1    3    3    0    0  0.23706663918E+02 -0.35728209313E+02  0.27845503308E+02  0.51126147022E+02  0.00000000000E+00 0.  1.
         11    1    3    3    0    0 -0.10556017542E+02  0.51710431461E+02  0.47036870072E+01  0.52986063260E+02  0.00000000000E+00 0. -1.
         -3    1    1    2    0  502 -0.12165311738E+02  0.23458029173E+02  0.71008463765E+02  0.75765928151E+02  0.00000000000E+00 0.  1.
<scales pt_clust_5="13000.00000" pt_clust_6="13000.00000" pt_clust_7="13000.00000" pt_clust_8="13000.00000" pt_clust_9="26.42487"></scales>
<clustering>
<clus scale="   26.425">  1  9  2 -1</clus>
<clus scale="   91.934">  5  6 -1 -1</clus>
<clus scale="   96.014">  1  5  2 -1</clus>
<clus scale="   96.703">  7  8 -1 -1</clus>
<clus scale="   26.425">  1  5  2 -1</clus>
</clustering>
</event>
<event>
 9    1  0.1636528E-005  0.2342726E+03  0.7546771E-02  0.1152088E+00
         21   -1    0    0  501  502  0.00000000000E+00  0.00000000000E+00  0.13080750526E+03  0.13080750526E+03  0.00000000000E+00 0. -1.
          1   -1    0    0  502    0 -0.00000000000E+00 -0.00000000000E+00 -0.10256095637E+04  0.10256095637E+04  0.00000000000E+00 0. -1.
         23    2    1    2    0    0 -0.72713576042E+02  0.28729936067E+02 -0.39113964527E+03  0.40846815093E+03  0.87996220673E+02 0.  0.
         23    2    1    2    0    0  0.64067492444E+02  0.19202249100E+03 -0.47571369838E+03  0.52526636485E+03  0.92865228004E+02 0.  0.
        -13    1    4    4    0    0  0.31475768376E+02  0.18543581401E+03 -0.42314293488E+03  0.46306274786E+03  0.00000000000E+00 0. -1.
         13    1    4    4    0    0  0.32591724068E+02  0.65866769893E+01 -0.52570763500E+02  0.62203616989E+02  0.00000000000E+00 0.  1.
        -13    1    3    3    0    0 -0.74128578856E+02  0.81531943170E+01 -0.37482102892E+03  0.38216792709E+03  0.00000000000E+00 0. -1.
         13    1    3    3    0    0  0.14150028144E+01  0.20576741750E+02 -0.16318616353E+02  0.26300223833E+02  0.00000000000E+00 0.  1.
          1    1    1    2  501    0  0.86460835975E+01 -0.22075242706E+03 -0.27948714742E+02  0.22268255314E+03  0.00000000000E+00 0. -1.
<scales pt_clust_5="13000.00000" pt_clust_6="13000.00000" pt_clust_7="13000.00000" pt_clust_8="13000.00000" pt_clust_9="215.08069"></scales>
<clustering>
<clus scale="   87.996">  7  8 -1 -1</clus>
<clus scale="   92.865">  5  6 -1 -1</clus>
<clus scale="  117.712">  2  7  1 -1</clus>
<clus scale="  215.081">  1  9  2 -1</clus>
<clus scale="  215.081">  1  5  2 -1</clus>
</clustering>
</event>
<event>
 9    1  0.1636528E-005  0.1060790E+03  0.7546771E-02  0.1268162E+00
         21   -1    0    0  501  502  0.00000000000E+00  0.00000000000E+00  0.62178819089E+02  0.62178819089E+02  0.00000000000E+00 0. -1.
         -2   -1    0    0    0  501 -0.00000000000E+00 -0.00000000000E+00 -0.40050167926E+03  0.40050167926E+03  0.00000000000E+00 0.  1.
         23    2    1    2    0    0 -0.32042905103E+02  0.45472173748E+02 -0.31526939587E+03  0.33324618075E+03  0.92540578445E+02 0.  0.
         23    2    1    2    0    0  0.20178309505E+02 -0.27307602697E+02 -0.34683855665E+02  0.10481752915E+03  0.92902503913E+02 0.  0.
        -11    1    3    3    0    0  0.26924652817E+02  0.33951459334E+02 -0.18153907553E+03  0.18663888787E+03  0.00000000000E+00 0.  1.
         11    1    3    3    0    0 -0.58967557920E+02  0.11520714414E+02 -0.13373032034E+03  0.14660729288E+03  0.00000000000E+00 0. -1.
        -13    1    4    4    0    0 -0.20386805687E+02  0.17671868718E+02 -0.35069221877E+02  0.44246662170E+02  0.00000000000E+00 0.  1.
         13    1    4    4    0    0  0.40565115192E+02 -0.44979471414E+02  0.38536621235E+00  0.60570866977E+02  0.00000000000E+00 0. -1.
         -2    1    1    2    0  502  0.11864595598E+02 -0.18164571052E+02  0.11630391368E+02  0.24616788449E+02  0.00000000000E+00 0.  1.
<scales pt_clust_5="13000.00000" pt_clust_6="13000.00000" pt_clust_7="13000.00000" pt_clust_8="13000.00000" pt_clust_9="21.69609"></scales>
<clustering>
<clus scale="   21.696">  1  9  2 -1</clus>
<clus scale="   92.541">  5  6 -1 -1</clus>
<clus scale="   92.903">  7  8 -1 -1</clus>
<clus scale="  105.762">  2  5  1 -1</clus>
<clus scale="   21.696">  1  5  2 -1</clus>
</clustering>
</event>
<event>
 9    1  0.1636528E-005  0.3253256E+03  0.7546771E-02  0.1119744E+00
          4   -1    0    0  502    0 -0.00000000000E+00  0.00000000000E+00  0.89914949962E+03  0.89914949962E+03  0.00000000000E+00 0. -1.
         21   -1    0    0  501  502  0.00000000000E+00 -0.00000000000E+00 -0.21566501339E+03  0.21566501339E+03  0.00000000000E+00 0.  1.
         23    2    1    2    0    0 -0.84899615081E+01  0.47371963475E+02  0.19031172529E+03  0.21336847466E+03  0.83614417587E+02 0.  0.
         23    2    1    2    0    0  0.27344550276E+03 -0.19917411300E+03  0.48213177921E+03  0.59588551288E+03  0.90474978086E+02 0.  0.
        -11    1    3    3    0    0 -0.27400983021E+02 -0.13942674029E+02  0.44765640716E+02  0.54306303670E+02  0.00000000000E+00 0.  1.
         11    1    3    3    0    0  0.18911021513E+02  0.61314637505E+02  0.14554608457E+03  0.15906217099E+03  0.00000000000E+00 0. -1.
        -11    1    4    4    0    0  0.18922809213E+03 -0.18519449204E+03  0.36849568178E+03  0.45375471152E+03  0.00000000000E+00 0.  1.
         11    1    4    4    0    0  0.84217410632E+02 -0.13979620963E+02  0.11363609744E+03  0.14213080136E+03  0.00000000000E+00 0. -1.
          4    1    1    2  501    0 -0.26495554126E+03  0.15180214953E+03  0.11040981733E+02  0.30556052546E+03  0.00000000000E+00 0. -1.
<scales pt_clust_5="13000.00000" pt_clust_6="13000.00000" pt_clust_7="13000.00000" pt_clust_8="13000.00000" pt_clust_9="312.49169"></scales>
<clustering>
<clus scale="   83.614">  5  6 -1 -1</clus>
<clus scale="   90.475">  7  8 -1 -1</clus>
<clus scale="   96.476">  1  5  2 -1</clus>
<clus scale="  312.492">  2  9  1 -1</clus>
<clus scale="  312.492">  2  5  1 -1</clus>
</clustering>
</event>
<event>
 9    1  0.1636528E-005  0.1530235E+03  0.7546771E-02  0.1197029E+00
         21   -1    0    0  501  502  0.00000000000E+00  0.00000000000E+00  0.27695634734E+03  0.27695634734E+03  0.00000000000E+00 0. -1.
          1   -1    0    0  502    0 -0.00000000000E+00 -0.00000000000E+00 -0.47066574570E+03  0.47066574570E+03  0.00000000000E+00 0. -1.
         23    2    1    2    0    0 -0.91226604750E+02  0.83100734729E+02 -0.40090564269E+03  0.42926809671E+03  0.91201639157E+02 0.  0.
         23    2    1    2    0    0  0.10225825330E+03 -0.52807875616E+02  0.46956408130E+02  0.15490320959E+03  0.92437427376E+02 0.  0.
        -11    1    3    3    0    0 -0.34282781169E+01  0.62977661466E+02 -0.15202901059E+03  0.16459270638E+03  0.00000000000E+00 0.  1.
         11    1    3    3    0    0 -0.87798326634E+02  0.20123073263E+02 -0.24887663210E+03  0.26467539032E+03  0.00000000000E+00 0. -1.
        -13    1    4    4    0    0  0.87170867095E+02 -0.77089012035E+02  0.48956334590E+02  0.12624657834E+03  0.00000000000E+00 0.  1.
         13    1    4    4    0    0  0.15087386207E+02  0.24281136419E+02 -0.19999264607E+01  0.28656631243E+02  0.00000000000E+00 0. -1.
          1    1    1    2  501    0 -0.11031648551E+02 -0.30292859112E+02  0.16023983620E+03  0.16345078675E+03  0.00000000000E+00 0. -1.
<scales pt_clust_5="13000.00000" pt_clust_6="13000.00000" pt_clust_7="13000.00000" pt_clust_8="13000.00000" pt_clust_9="32.23902"></scales>
<clustering>
<clus scale="   32.239">  1  9  2 -1</clus>
<clus scale="   91.202">  5  6 -1 -1</clus>
<clus scale="   92.437">  7  8 -1 -1</clus>
<clus scale="  152.280">  2  5  1 -1</clus>
<clus scale="   32.239">  1  5  2 -1</clus>
</clustering>
</event>
<event>
 9    1  0.1636528E-005  0.1005637E+03  0.7546771E-02  0.1279921E+00
         21   -1    0    0  501  502  0.00000000000E+00  0.00000000000E+00  0.13757967709E+03  0.13757967709E+03  0.00000000000E+00 0. -1.
         -2   -1    0    0    0  501 -0.00000000000E+00 -0.00000000000E+00 -0.14888158794E+03  0.14888158794E+03  0.00000000000E+00 0.  1.
         23    2    1    2    0    0  0.41301548010E+02  0.30159427511E+02 -0.85511992785E+02  0.13537614186E+03  0.91646003396E+02 0.  0.
         23    2    1    2    0    0 -0.68573350133E+01 -0.14770815829E+02  0.38708966226E+02  0.99282204380E+02  0.89963170223E+02 0.  0.
        -11    1    3    3    0    0  0.69448645966E+02  0.30926992651E+02 -0.54838113780E+02  0.93737996692E+02  0.00000000000E+00 0.  1.
         11    1    3    3    0    0 -0.28147097956E+02 -0.76756513996E+00 -0.30673879006E+02  0.41638145166E+02  0.00000000000E+00 0. -1.
        -11    1    4    4    0    0  0.14352151833E+02 -0.37173792933E+02 -0.10494677145E+02  0.41206958049E+02  0.00000000000E+00 0.  1.
         11    1    4    4    0    0 -0.21209486847E+02  0.22402977104E+02  0.49203643371E+02  0.58075246331E+02  0.00000000000E+00 0. -1.
         -2    1    1    2    0  502 -0.34444212996E+02 -0.15388611682E+02  0.35501115710E+02  0.51802918789E+02  0.00000000000E+00 0.  1.
<scales pt_clust_5="13000.00000" pt_clust_6="13000.00000" pt_clust_7="13000.00000" pt_clust_8="13000.00000" pt_clust_9="37.72550"></scales>
<clustering>
<clus scale="   37.725">  1  9  2 -1</clus>
<clus scale="   89.963">  7  8 -1 -1</clus>
<clus scale="   91.646">  5  6 -1 -1</clus>
<clus scale="   99.033">  1  7  2 -1</clus>
<clus scale="   37.725">  1  5  2 -1</clus>
</clustering>
</event>
<event>
 9    1  0.1636528E-005  0.1119368E+03  0.7546771E-02  0.1258194E+00
          1   -1    0    0  502    0 -0.00000000000E+00  0.00000000000E+00  0.63249710022E+02  0.63249710022E+02  0.00000000000E+00 0. -1.
         21   -1    0    0  501  502  0.00000000000E+00 -0.00000000000E+00 -0.28525050643E+03  0.28525050643E+03  0.00000000000E+00 0. -1.
         23    2    1    2    0    0  0.21900593036E+02 -0.42691033386E+02 -0.60047243822E+02  0.12158175123E+03  0.94203452356E+02 0.  0.
         23    2    1    2    0    0 -0.42370053245E+02  0.64750131172E+02 -0.92328566614E+02  0.15106834150E+03  0.91155245003E+02 0.  0.
        -11    1    4    4    0    0  0.25767588091E+02  0.38842809604E+02 -0.33665698680E+02  0.57498797566E+02  0.00000000000E+00 0.  1.
         11    1    4    4    0    0 -0.68137641335E+02  0.25907321568E+02 -0.58662867934E+02  0.93569543933E+02  0.00000000000E+00 0. -1.
        -13    1    3    3    0    0 -0.65788186431E+01  0.25289260561E+02 -0.35121882944E+02  0.43776411639E+02  0.00000000000E+00 0.  1.
         13    1    3    3    0    0  0.28479411679E+02 -0.67980293947E+02 -0.24925360878E+02  0.77805339596E+02  0.00000000000E+00 0. -1.
          1    1    1    2  501    0  0.20469460209E+02 -0.22059097786E+02 -0.69624985970E+02  0.75850123716E+02  0.00000000000E+00 0. -1.
<scales pt_clust_5="13000.00000" pt_clust_6="13000.00000" pt_clust_7="13000.00000" pt_clust_8="13000.00000" pt_clust_9="30.09323"></scales>
<clustering>
<clus scale="   30.093">  2  9  1 -1</clus>
<clus scale="   91.155">  5  6 -1 -1</clus>
<clus scale="   94.203">  7  8 -1 -1</clus>
<clus scale="  109.384">  2  5  1 -1</clus>
<clus scale="   30.093">  2  5  1 -1</clus>
</clustering>
</event>
<event>
 9    1  0.1636528E-005  0.1248583E+03  0.7546771E-02  0.1238984E+00
          4   -1    0    0  502    0 -0.00000000000E+00  0.00000000000E+00  0.91694033832E+03  0.91694033832E+03  0.00000000000E+00 0. -1.
         21   -1    0    0  501  502  0.00000000000E+00 -0.00000000000E+00 -0.33190852294E+02  0.33190852294E+02  0.00000000000E+00 0. -1.
         23    2    1    2    0    0  0.48889082188E+02 -0.30392711049E+02  0.36683539000E+03  0.38546019134E+03  0.10342870253E+03 0.  0.
         23    2    1    2    0    0 -0.11597757824E+02  0.10106161978E+03  0.40112207288E+03  0.42398507191E+03  0.92284694701E+02 0.  0.
        -13    1    4    4    0    0  0.24157096988E+02  0.95993454902E+02  0.32483809362E+03  0.33958518193E+03  0.00000000000E+00 0. -1.
         13    1    4    4    0    0 -0.35754854812E+02  0.50681648766E+01  0.76283979258E+02  0.84399889983E+02  0.00000000000E+00 0.  1.
        -13    1    3    3    0    0  0.38473954582E+02 -0.63831546957E+02  0.30887728581E+03  0.31774185947E+03  0.00000000000E+00 0. -1.
         13    1    3    3    0    0  0.10415127606E+02  0.33438835909E+02  0.57958104193E+02  0.67718331873E+02  0.00000000000E+00 0.  1.
          4    1    1    2  501    0 -0.37291324364E+02 -0.70668908730E+02  0.11579202314E+03  0.14068592736E+03  0.00000000000E+00 0. -1.
<scales pt_clust_5="13000.00000" pt_clust_6="13000.00000" pt_clust_7="13000.00000" pt_clust_8="13000.00000" pt_clust_9="79.90455"></scales>
<clustering>
<clus scale="   79.905">  2  9  1 -1</clus>
<clus scale="   92.285">  5  6 -1 -1</clus>
<clus scale="  103.429">  7  8 -1 -1</clus>
<clus scale="  115.795">  2  5  1 -1</clus>
<clus scale="   79.905">  2  5  1 -1</clus>
</clustering>
</event>
<event>
 9    1  0.1636528E-005  0.1163204E+03  0.7546771E-02  0.1249349E+00
          1   -1    0    0  502    0 -0.00000000000E+00  0.00000000000E+00  0.17642641229E+03  0.17642641229E+03  0.00000000000E+00 0. -1.
         21   -1    0    0  501  502  0.00000000000E+00 -0.00000000000E+00 -0.14077448358E+03  0.14077448358E+03  0.00000000000E+00 0. -1.
         23    2    1    2    0    0  0.69352430995E+02 -0.18237528237E+02  0.66593401282E+02  0.13349430740E+03  0.90794723926E+02 0.  0.
         23    2    1    2    0    0 -0.61994364442E+02  0.46473567470E+02  0.23880593416E+02  0.12160285289E+03  0.90630444073E+02 0.  0.
        -11    1    4    4    0    0 -0.30983453226E+02  0.60152029626E+02  0.45374684707E+02  0.81468417526E+02  0.00000000000E+00 0. -1.
         11    1    4    4    0    0 -0.31010911216E+02 -0.13678462156E+02 -0.21494091292E+02  0.40134435362E+02  0.00000000000E+00 0.  1.
        -11    1    3    3    0    0  0.79005894536E+02 -0.40558596294E+02  0.63060392626E+02  0.10891989820E+03  0.00000000000E+00 0. -1.
         11    1    3    3    0    0 -0.96534635416E+01  0.22321068057E+02  0.35330086564E+01  0.24574409204E+02  0.00000000000E+00 0.  1.
          1    1    1    2  501    0 -0.73580665527E+01 -0.28236039233E+02 -0.54822065981E+02  0.62103735583E+02  0.00000000000E+00 0. -1.
<scales pt_clust_5="13000.00000" pt_clust_6="13000.00000" pt_clust_7="13000.00000" pt_clust_8="13000.00000" pt_clust_9="29.17902"></scales>
<clustering>
<clus scale="   29.179">  2  9  1 -1</clus>
<clus scale="   90.630">  5  6 -1 -1</clus>
<clus scale="   90.795">  7  8 -1 -1</clus>
<clus scale="  116.192">  2  5  1 -1</clus>
<clus scale="   29.179">  2  5  1 -1</clus>
</clustering>
</event>
<event>
 9    1  0.1636528E-005  0.2586693E+03  0.7546771E-02  0.1107950E+00
         21   -1    0    0  501  502  0.00000000000E+00  0.00000000000E+00  0.10307939666E+03  0.10307939666E+03  0.00000000000E+00 0.  1.
          1   -1    0    0  502    0 -0.00000000000E+00 -0.00000000000E+00 -0.87821252303E+03  0.87821252303E+03  0.00000000000E+00 0. -1.
         23    2    1    2    0    0  0.41467348681E+02 -0.24644052662E+03 -0.52643546586E+03  0.58979321465E+03  0.90935483534E+02 0.  0.
         23    2    1    2    0    0 -0.42112497088E+02  0.22642680696E+03 -0.26717596713E+03  0.36425144817E+03  0.90849098839E+02 0.  0.
        -11    1    4    4    0    0 -0.36341382136E+02  0.18237290844E+03 -0.14993686655E+03  0.23887577889E+03  0.00000000000E+00 0.  1.
         11    1    4    4    0    0 -0.57711149520E+01  0.44053898518E+02 -0.11723910058E+03  0.12537566928E+03  0.00000000000E+00 0. -1.
        -13    1    3    3    0    0  0.28777435586E+02 -0.24068989350E+02 -0.40287684386E+02  0.55050472845E+02  0.00000000000E+00 0.  1.
         13    1    3    3    0    0  0.12689913094E+02 -0.22237153727E+03 -0.48614778147E+03  0.53474274181E+03  0.00000000000E+00 0. -1.
          1    1    1    2  501    0  0.64514840758E+00  0.20013719662E+02  0.18478306627E+02  0.27247256870E+02  0.00000000000E+00 0. -1.
<scales pt_clust_5="13000.00000" pt_clust_6="13000.00000" pt_clust_7="13000.00000" pt_clust_8="13000.00000" pt_clust_9="20.02412"></scales>
<clustering>
<clus scale="   20.024">  1  9  2 -1</clus>
<clus scale="   90.849">  5  6 -1 -1</clus>
<clus scale="   90.935">  7  8 -1 -1</clus>
<clus scale="  258.639">  1  5  2 -1</clus>
<clus scale="   20.024">  1  5  2 -1</clus>
</clustering>
</event>
<event>
 9    1  0.1636528E-005  0.1159840E+03  0.7546771E-02  0.1251235E+00
         21   -1    0    0  501  502  0.00000000000E+00  0.00000000000E+00  0.40452687536E+02  0.40452687536E+02  0.00000000000E+00 0.  1.
          1   -1    0    0  502    0 -0.00000000000E+00 -0.00000000000E+00 -0.55850882627E+03  0.55850882627E+03  0.00000000000E+00 0. -1.
         23    2    1    2    0    0  0.40882123783E+01 -0.84113221518E+02 -0.34826940792E+03  0.36924965138E+03  0.89229911116E+02 0.  0.
         23    2    1    2    0    0  0.13708633434E+01  0.46905185334E+02 -0.15977175876E+03  0.19079478225E+03  0.93132477469E+02 0.  0.
        -11    1    3    3    0    0 -0.40982778017E+02 -0.28671175638E+02 -0.11837708005E+03  0.12850975639E+03  0.00000000000E+00 0.  1.
         11    1    3    3    0    0  0.45070990395E+02 -0.55442045880E+02 -0.22989232787E+03  0.24073989499E+03  0.00000000000E+00 0. -1.
        -13    1    4    4    0    0 -0.45276175300E+02  0.15609987501E+02 -0.79762685853E+02  0.93035959790E+02  0.00000000000E+00 0.  1.
         13    1    4    4    0    0  0.46647038643E+02  0.31295197832E+02 -0.80009072910E+02  0.97758822463E+02  0.00000000000E+00 0. -1.
          1    1    1    2  501    0 -0.54590757217E+01  0.37208036184E+02 -0.10014972060E+02  0.38917080180E+02  0.00000000000E+00 0. -1.
<scales pt_clust_5="13000.00000" pt_clust_6="13000.00000" pt_clust_7="13000.00000" pt_clust_8="13000.00000" pt_clust_9="37.60638"></scales>
<clustering>
<clus scale="   37.606">  1  9  2 -1</clus>
<clus scale="   89.230">  5  6 -1 -1</clus>
<clus scale="   93.132">  7  8 -1 -1</clus>
<clus scale="  112.874">  2  5  1 -1</clus>
<clus scale="   37.606">  1  5  2 -1</clus>
</clustering>
</event>
<event>
 9    1  0.1636528E-005  0.9942577E+02  0.7546771E-02  0.1285152E+00
          2   -1    0    0  502    0 -0.00000000000E+00  0.00000000000E+00  0.23254919361E+02  0.23254919361E+02  0.00000000000E+00 0. -1.
         21   -1    0    0  501  502  0.00000000000E+00 -0.00000000000E+00 -0.52975178566E+03  0.52975178566E+03  0.00000000000E+00 0.  1.
         23    2    1    2    0    0 -0.19043826044E+02  0.15310801035E+01 -0.17188764311E+03  0.19836724644E+03  0.97155499526E+02 0.  0.
         23    2    1    2    0    0  0.17296375334E+02 -0.23901423350E+02 -0.26971499483E+03  0.28597544534E+03  0.90362239135E+02 0.  0.
        -11    1    4    4    0    0  0.52813891654E+02 -0.18880798502E+02 -0.19798714018E+03  0.20577827723E+03  0.00000000000E+00 0.  1.
         11    1    4    4    0    0 -0.35517516320E+02 -0.50206248479E+01 -0.71727854646E+02  0.80197168101E+02  0.00000000000E+00 0. -1.
        -13    1    3    3    0    0  0.22761971191E+01 -0.44215242580E+02 -0.10955966302E+03  0.11816720573E+03  0.00000000000E+00 0.  1.
         13    1    3    3    0    0 -0.21320023164E+02  0.45746322684E+02 -0.62327980093E+02  0.80200040706E+02  0.00000000000E+00 0. -1.
          2    1    1    2  501    0  0.17474507103E+01  0.22370343246E+02 -0.64894228360E+02  0.68664013248E+02  0.00000000000E+00 0. -1.
<scales pt_clust_5="13000.00000" pt_clust_6="13000.00000" pt_clust_7="13000.00000" pt_clust_8="13000.00000" pt_clust_9="22.43849"></scales>
<clustering>
<clus scale="   22.438">  2  9  1 -1</clus>
<clus scale="   90.362">  5  6 -1 -1</clus>
<clus scale="   92.799">  2  5  1 -1</clus>
<clus scale="   97.155">  7  8 -1 -1</clus>
<clus scale="   22.438">  2  5  1 -1</clus>
</clustering>
</event>
<event>
 9    1  0.1636528E-005  0.9924995E+02  0.7546771E-02  0.1284090E+00
         21   -1    0    0  501  502  0.00000000000E+00  0.00000000000E+00  0.44574889217E+03  0.44574889217E+03  0.00000000000E+00 0.  1.
          1   -1    0    0  502    0 -0.00000000000E+00 -0.00000000000E+00 -0.75058895976E+02  0.75058895976E+02  0.00000000000E+00 0. -1.
         23    2    1    2    0    0 -0.22019182815E+02  0.16106151430E+02 -0.21749127544E+02  0.97101000214E+02  0.90616373619E+02 0.  0.
         23    2    1    2    0    0  0.49458431153E+02  0.68133248610E+01  0.19023904218E+03  0.21837026482E+03  0.94879510853E+02 0.  0.
        -11    1    4    4    0    0  0.23826021404E+02 -0.30175122146E+02  0.22171923591E+02  0.44382558379E+02  0.00000000000E+00 0. -1.
         11    1    4    4    0    0  0.25632409749E+02  0.36988447007E+02  0.16806711859E+03  0.17398770644E+03  0.00000000000E+00 0.  1.
        -13    1    3    3    0    0  0.23916529886E+02 -0.19618290781E+02 -0.23555085441E+02  0.38880840849E+02  0.00000000000E+00 0. -1.
         13    1    3    3    0    0 -0.45935712701E+02  0.35724442211E+02  0.18059578972E+01  0.58220159365E+02  0.00000000000E+00 0.  1.
          1    1    1    2  501    0 -0.27439248338E+02 -0.22919476291E+02  0.20220008155E+03  0.20533652311E+03  0.00000000000E+00 0. -1.
<scales pt_clust_5="13000.00000" pt_clust_6="13000.00000" pt_clust_7="13000.00000" pt_clust_8="13000.00000" pt_clust_9="35.75213"></scales>
<clustering>
<clus scale="   35.752">  1  9  2 -1</clus>
<clus scale="   90.616">  7  8 -1 -1</clus>
<clus scale="   94.880">  5  6 -1 -1</clus>
<clus scale="   95.183">  2  7  1 -1</clus>
<clus scale="   35.752">  1  5  2 -1</clus>
</clustering>
</event>
<event>
 9    1  0.1636528E-005  0.1632872E+03  0.7546771E-02  0.1208403E+00
         -4   -1    0    0    0  501 -0.00000000000E+00  0.00000000000E+00  0.81498840817E+03  0.81498840817E+03  0.00000000000E+00 0.  1.
         21   -1    0    0  501  502  0.00000000000E+00 -0.00000000000E+00 -0.58188914211E+02  0.58188914211E+02  0.00000000000E+00 0.  1.
         23    2    1    2    0    0 -0.35797737798E+02  0.49033816821E+01  0.31909830641E+03  0.33381077850E+03  0.91106451523E+02 0.  0.
         23    2    1    2    0    0  0.12552436322E+03 -0.92115112390E+02  0.31823116650E+03  0.36636411843E+03  0.93327553519E+02 0.  0.
        -11    1    3    3    0    0 -0.18986728046E+02 -0.43112428553E+02  0.15740275983E+03  0.16430096208E+03  0.00000000000E+00 0.  1.
         11    1    3    3    0    0 -0.16811009751E+02  0.48015810235E+02  0.16169554658E+03  0.16950981642E+03  0.00000000000E+00 0. -1.
        -13    1    4    4    0    0  0.34968986476E+02 -0.74650473969E+02  0.20069311147E+03  0.21696370265E+03  0.00000000000E+00 0. -1.
         13    1    4    4    0    0  0.90555376741E+02 -0.17464638421E+02  0.11753805504E+03  0.14940041578E+03  0.00000000000E+00 0.  1.
         -4    1    1    2    0  502 -0.89726625419E+02  0.87211730708E+02  0.11947002105E+03  0.17300242545E+03  0.00000000000E+00 0.  1.
<scales pt_clust_5="13000.00000" pt_clust_6="13000.00000" pt_clust_7="13000.00000" pt_clust_8="13000.00000" pt_clust_9="133.98765"></scales>
<clustering>
<clus scale="   91.106">  5  6 -1 -1</clus>
<clus scale="   93.328">  7  8 -1 -1</clus>
<clus scale="   98.010">  1  5  2 -1</clus>
<clus scale="  133.988">  2  9  1 -1</clus>
<clus scale="  133.988">  2  5  1 -1</clus>
</clustering>
</event>
<event>
 9    1  0.1636528E-005  0.9682704E+02  0.7546771E-02  0.1288633E+00
         21   -1    0    0  501  502  0.00000000000E+00  0.00000000000E+00  0.33173202047E+03  0.33173202047E+03  0.00000000000E+00 0.  1.
         -3   -1    0    0    0  501 -0.00000000000E+00 -0.00000000000E+00 -0.38388505951E+03  0.38388505951E+03  0.00000000000E+00 0.  1.
         23    2    1    2    0    0  0.25391019044E+02 -0.25345059609E+01 -0.33626228557E+03  0.34979694414E+03  0.92921740533E+02 0.  0.
         23    2    1    2    0    0 -0.75060482637E+02  0.74610965959E+02  0.20604041514E+03  0.24853068988E+03  0.90077626790E+02 0.  0.
        -11    1    4    4    0    0 -0.21909509625E+02 -0.20234500136E+02  0.52766779783E+02  0.60611835944E+02  0.00000000000E+00 0. -1.
         11    1    4    4    0    0 -0.53150973012E+02  0.94845466094E+02  0.15327363535E+03  0.18791885394E+03  0.00000000000E+00 0.  1.
        -13    1    3    3    0    0  0.58314482652E+02  0.64058360581E+01 -0.16369736717E+03  0.17389204019E+03  0.00000000000E+00 0.  1.
         13    1    3    3    0    0 -0.32923463608E+02 -0.89403420190E+01 -0.17256491840E+03  0.17590490395E+03  0.00000000000E+00 0. -1.
         -3    1    1    2    0  502  0.49669463593E+02 -0.72076459998E+02  0.78068831390E+02  0.11728944596E+03  0.00000000000E+00 0.  1.
<scales pt_clust_5="13000.00000" pt_clust_6="13000.00000" pt_clust_7="13000.00000" pt_clust_8="13000.00000" pt_clust_9="87.53326"></scales>
<clustering>
<clus scale="   87.533">  1  9  2 -1</clus>
<clus scale="   90.078">  5  6 -1 -1</clus>
<clus scale="   92.922">  7  8 -1 -1</clus>
<clus scale="   94.101">  1  5  2 -1</clus>
<clus scale="   87.533">  1  5  2 -1</clus>
</clustering>
</event>
<event>
 9    1  0.1636528E-005  0.1304100E+03  0.7546771E-02  0.1227747E+00
         21   -1    0    0  501  502  0.00000000000E+00  0.00000000000E+00  0.33447323935E+03  0.33447323935E+03  0.00000000000E+00 0.  1.
         -4   -1    0    0    0  501 -0.00000000000E+00 -0.00000000000E+00 -0.20839820996E+03  0.20839820996E+03  0.00000000000E+00 0.  1.
         23    2    1    2    0    0  0.11688503700E+02  0.99886663450E+02 -0.15819601941E+03  0.20986452209E+03  0.94356613023E+02 0.  0.
         23    2    1    2    0    0 -0.12356082034E+02 -0.20551212775E+02  0.15351119034E+03  0.18006020454E+03  0.90999816438E+02 0.  0.
        -13    1    4    4    0    0 -0.18925747063E+02  0.33297342881E+02  0.47883301729E+02  0.61316453985E+02  0.00000000000E+00 0.  1.
         13    1    4    4    0    0  0.65696650291E+01 -0.53848555656E+02  0.10562788861E+03  0.11874375056E+03  0.00000000000E+00 0. -1.
        -13    1    3    3    0    0 -0.23059946511E+02  0.66700424740E+02 -0.37419130538E+02  0.79880530317E+02  0.00000000000E+00 0. -1.
         13    1    3    3    0    0  0.34748450211E+02  0.33186238710E+02 -0.12077688887E+03  0.12998399177E+03  0.00000000000E+00 0.  1.
         -4    1    1    2    0  502  0.66757833411E+00 -0.79335450675E+02  0.13075985846E+03  0.15294672268E+03  0.00000000000E+00 0.  1.
<scales pt_clust_5="13000.00000" pt_clust_6="13000.00000" pt_clust_7="13000.00000" pt_clust_8="13000.00000" pt_clust_9="79.33826"></scales>
<clustering>
<clus scale="   79.338">  1  9  2 -1</clus>
<clus scale="   91.000">  5  6 -1 -1</clus>
<clus scale="   94.357">  7  8 -1 -1</clus>
<clus scale="  128.002">  1  5  2 -1</clus>
<clus scale="   79.338">  1  5  2 -1</clus>
</clustering>
</event>
<event>
 9    1  0.1636528E-005  0.1207152E+03  0.7546771E-02  0.1242067E+00
         -3   -1    0    0    0  501 -0.00000000000E+00  0.00000000000E+00  0.14339524360E+03  0.14339524360E+03  0.00000000000E+00 0.  1.
         21   -1    0    0  501  502  0.00000000000E+00 -0.00000000000E+00 -0.26952027008E+03  0.26952027008E+03  0.00000000000E+00 0.  1.
         23    2    1    2    0    0 -0.72396274328E+02  0.25329829260E+01  0.38325439630E+02  0.12155958501E+03  0.89778933197E+02 0.  0.
         23    2    1    2    0    0  0.12246135947E+03 -0.22776000743E+01 -0.18330296165E+03  0.23785831603E+03  0.89300787959E+02 0.  0.
        -11    1    3    3    0    0 -0.65222516546E+02  0.30696014557E+02  0.52546876742E+02  0.89204238854E+02  0.00000000000E+00 0.  1.
         11    1    3    3    0    0 -0.71737577825E+01 -0.28163031631E+02 -0.14221437112E+02  0.32355346156E+02  0.00000000000E+00 0. -1.
        -13    1    4    4    0    0  0.12406770005E+03 -0.23267780172E+02 -0.13319457990E+03  0.18350743828E+03  0.00000000000E+00 0.  1.
         13    1    4    4    0    0 -0.16063405809E+01  0.20990180097E+02 -0.50108381747E+02  0.54350877747E+02  0.00000000000E+00 0. -1.
         -3    1    1    2    0  502 -0.50065085141E+02 -0.25538285172E+00  0.18852495544E+02  0.53497612646E+02  0.00000000000E+00 0.  1.
<scales pt_clust_5="13000.00000" pt_clust_6="13000.00000" pt_clust_7="13000.00000" pt_clust_8="13000.00000" pt_clust_9="50.06576"></scales>
<clustering>
<clus scale="   50.066">  2  9  1 -1</clus>
<clus scale="   89.301">  7  8 -1 -1</clus>
<clus scale="   89.779">  5  6 -1 -1</clus>
<clus scale="  120.360">  2  7  1 -1</clus>
<clus scale="   50.066">  2  5  1 -1</clus>
</clustering>
</event>
<event>
 9    1  0.1636528E-005  0.9479665E+02  0.7546771E-02  0.1292388E+00
          1   -1    0    0  502    0 -0.00000000000E+00  0.00000000000E+00  0.47836975815E+03  0.47836975815E+03  0.00000000000E+00 0. -1.
         21   -1    0    0  501  502  0.00000000000E+00 -0.00000000000E+00 -0.28979784259E+02  0.28979784259E+02  0.00000000000E+00 0.  1.
         23    2    1    2    0    0 -0.14922967111E+02 -0.17006451737E+02  0.29632861284E+03  0.31115601526E+03  0.92171062152E+02 0.  0.
         23    2    1    2    0    0  0.90452411017E+01 -0.83944783704E+01  0.13412303201E+03  0.16396907649E+03  0.93512494761E+02 0.  0.
        -13    1    4    4    0    0  0.22393333211E+02  0.22299995228E+02  0.68083434905E+01  0.32328079135E+02  0.00000000000E+00 0. -1.
         13    1    4    4    0    0 -0.13348092110E+02 -0.30694473599E+02  0.12731468851E+03  0.13164099735E+03  0.00000000000E+00 0.  1.
        -13    1    3    3    0    0  0.21514514410E+02 -0.44318875590E+02  0.14666598964E+03  0.15471893737E+03  0.00000000000E+00 0.  1.
         13    1    3    3    0    0 -0.36437481521E+02  0.27312423853E+02  0.14966262320E+03  0.15643707789E+03  0.00000000000E+00 0. -1.
          1    1    1    2  501    0  0.58777260096E+01  0.25400930107E+02  0.18938329050E+02  0.32224450663E+02  0.00000000000E+00 0. -1.
<scales pt_clust_5="13000.00000" pt_clust_6="13000.00000" pt_clust_7="13000.00000" pt_clust_8="13000.00000" pt_clust_9="26.07211"></scales>
<clustering>
<clus scale="   26.072">  2  9  1 -1</clus>
<clus scale="   92.171">  7  8 -1 -1</clus>
<clus scale="   93.474">  1  7  2 -1</clus>
<clus scale="   93.512">  5  6 -1 -1</clus>
<clus scale="   26.072">  2  5  1 -1</clus>
</clustering>
</event>
<event>
 9    1  0.1636528E-005  0.1093414E+03  0.7546771E-02  0.1263479E+00
          1   -1    0    0  502    0 -0.00000000000E+00  0.00000000000E+00  0.85014492652E+02  0.85014492652E+02  0.00000000000E+00 0. -1.
         21   -1    0    0  501  502  0.00000000000E+00 -0.00000000000E+00 -0.39468682583E+03  0.39468682583E+03  0.00000000000E+00 0. -1.
         23    2    1    2    0    0 -0.54586368241E+02 -0.19543364486E+01  0.11189923141E+02  0.10930439735E+03  0.94014604571E+02 0.  0.
         23    2    1    2    0    0  0.52640916123E+02  0.64377426828E+02 -0.20531491854E+03  0.23905152051E+03  0.89865981030E+02 0.  0.
        -13    1    4    4    0    0  0.42996923244E+02  0.85858359335E+02 -0.18273591505E+03  0.20642869938E+03  0.00000000000E+00 0. -1.
         13    1    4    4    0    0  0.96439928786E+01 -0.21480932508E+02 -0.22579003488E+02  0.32622821131E+02  0.00000000000E+00 0.  1.
        -13    1    3    3    0    0 -0.71815782659E+02 -0.27924015776E+02  0.31463284796E+01  0.77117810387E+02  0.00000000000E+00 0.  1.
         13    1    3    3    0    0  0.17229414419E+02  0.25969679327E+02  0.80435946611E+01  0.32186586968E+02  0.00000000000E+00 0. -1.
          1    1    1    2  501    0  0.19454521178E+01 -0.62423090379E+02 -0.11554733778E+03  0.13134540062E+03  0.00000000000E+00 0. -1.
<scales pt_clust_5="13000.00000" pt_clust_6="13000.00000" pt_clust_7="13000.00000" pt_clust_8="13000.00000" pt_clust_9="62.45340"></scales>
<clustering>
<clus scale="   62.453">  2  9  1 -1</clus>
<clus scale="   89.866">  5  6 -1 -1</clus>
<clus scale="   94.015">  7  8 -1 -1</clus>
<clus scale="  105.796">  2  5  1 -1</clus>
<clus scale="   62.453">  2  5  1 -1</clus>
</clustering>
</event>
<event>
 9    1  0.1636528E-005  0.1129241E+03  0.7546771E-02  0.1257691E+00
         -4   -1    0    0    0  501 -0.00000000000E+00  0.00000000000E+00  0.14792592847E+03  0.14792592847E+03  0.00000000000E+00 0.  1.
         21   -1    0    0  501  502  0.00000000000E+00 -0.00000000000E+00 -0.38581004492E+03  0.38581004492E+03  0.00000000000E+00 0.  1.
         23    2    1    2    0    0 -0.14121560434E+02 -0.18015239994E+00  0.61133732570E+02  0.12844646229E+03  0.11207903235E+03 0.  0.
         23    2    1    2    0    0 -0.88292598895E+02 -0.32824766065E+02 -0.60717342359E+02  0.14382227387E+03  0.90139905206E+02 0.  0.
        -11    1    4    4    0    0 -0.84165215112E+02 -0.59253054056E+02 -0.54033835033E+02  0.11625129323E+03  0.00000000000E+00 0.  1.
         11    1    4    4    0    0 -0.41273837832E+01  0.26428287991E+02 -0.66835073259E+01  0.27570980636E+02  0.00000000000E+00 0. -1.
        -13    1    3    3    0    0  0.19337557771E+02  0.46376376051E+02  0.91847861956E+01  0.51079053375E+02  0.00000000000E+00 0. -1.
         13    1    3    3    0    0 -0.33459118205E+02 -0.46556528451E+02  0.51948946374E+02  0.77367408913E+02  0.00000000000E+00 0.  1.
         -4    1    1    2    0  502  0.10241415933E+03  0.33004918465E+02 -0.23830050666E+03  0.26146723724E+03  0.00000000000E+00 0.  1.
<scales pt_clust_5="13000.00000" pt_clust_6="13000.00000" pt_clust_7="13000.00000" pt_clust_8="13000.00000" pt_clust_9="107.60104"></scales>
<clustering>
<clus scale="   90.140">  5  6 -1 -1</clus>
<clus scale="  107.601">  2  9  1 -1</clus>
<clus scale="  107.601">  2  5  1 -1</clus>
<clus scale="  112.079">  7  8 -1 -1</clus>
<clus scale="  107.601">  2  5  1 -1</clus>
</clustering>
</event>
<event>
 9    1  0.1636528E-005  0.9206370E+02  0.7546771E-02  0.1300247E+00
         21   -1    0    0  501  502  0.00000000000E+00  0.00000000000E+00  0.93514600113E+02  0.93514600113E+02  0.00000000000E+00 0.  1.
         -2   -1    0    0    0  501 -0.00000000000E+00 -0.00000000000E+00 -0.38612635581E+03  0.38612635581E+03  0.00000000000E+00 0.  1.
         23    2    1    2    0    0  0.36706573389E+01  0.10940848806E+02 -0.24171907118E+03  0.25700550909E+03  0.86547942990E+02 0.  0.
         23    2    1    2    0    0  0.20276591623E+02 -0.30005009731E+02 -0.11551439807E+03  0.15113104958E+03  0.90474179789E+02 0.  0.
        -11    1    3    3    0    0 -0.16708438894E+02 -0.33107820682E+02 -0.80343263097E+02  0.88489206380E+02  0.00000000000E+00 0. -1.
         11    1    3    3    0    0  0.20379096233E+02  0.44048669488E+02 -0.16137580808E+03  0.16851630271E+03  0.00000000000E+00 0.  1.
        -13    1    4    4    0    0 -0.29205486415E+02 -0.35753484391E+02 -0.42551693157E+02  0.62784700949E+02  0.00000000000E+00 0. -1.
         13    1    4    4    0    0  0.49482078037E+02  0.57484746599E+01 -0.72962704914E+02  0.88346348629E+02  0.00000000000E+00 0.  1.
         -2    1    1    2    0  502 -0.23947248961E+02  0.19064160925E+02  0.64621713548E+02  0.71504397253E+02  0.00000000000E+00 0.  1.
<scales pt_clust_5="13000.00000" pt_clust_6="13000.00000" pt_clust_7="13000.00000" pt_clust_8="13000.00000" pt_clust_9="30.60903"></scales>
<clustering>
<clus scale="   30.609">  1  9  2 -1</clus>
<clus scale="   86.548">  5  6 -1 -1</clus>
<clus scale="   88.208">  2  5  1 -1</clus>
<clus scale="   90.474">  7  8 -1 -1</clus>
<clus scale="   30.609">  1  5  2 -1</clus>
</clustering>
</event>
<event>
 9    1  0.1636528E-005  0.9073709E+02  0.7546771E-02  0.1301230E+00
         21   -1    0    0  501  502  0.00000000000E+00  0.00000000000E+00  0.17883380815E+03  0.17883380815E+03  0.00000000000E+00 0. -1.
         -3   -1    0    0    0  501 -0.00000000000E+00 -0.00000000000E+00 -0.63068590156E+02  0.63068590156E+02  0.00000000000E+00 0.  1.
         23    2    1    2    0    0 -0.22217149604E+01  0.10249688396E+02  0.28570784299E+02  0.94618586256E+02  0.89590150240E+02 0.  0.
         23    2    1    2    0    0 -0.21424793893E+02 -0.14657957003E+02  0.58719583829E+02  0.11000905802E+03  0.89331549996E+02 0.  0.
        -11    1    3    3    0    0  0.42950711044E+02 -0.22268995651E+01  0.17714895649E+02  0.46513870928E+02  0.00000000000E+00 0.  1.
         11    1    3    3    0    0 -0.45172426005E+02  0.12476587962E+02  0.10855888650E+02  0.48104715327E+02  0.00000000000E+00 0. -1.
        -13    1    4    4    0    0 -0.42584065647E+02 -0.33183327024E+02  0.11729162001E+02  0.55245896505E+02  0.00000000000E+00 0.  1.
         13    1    4    4    0    0  0.21159271754E+02  0.18525370021E+02  0.46990421828E+02  0.54763161515E+02  0.00000000000E+00 0. -1.
         -3    1    1    2    0  502  0.23646508853E+02  0.44082686067E+01  0.28474849862E+02  0.37274754026E+02  0.00000000000E+00 0.  1.
<scales pt_clust_5="13000.00000" pt_clust_6="13000.00000" pt_clust_7="13000.00000" pt_clust_8="13000.00000" pt_clust_9="24.05390"></scales>
<clustering>
<clus scale="   24.054">  1  9  2 -1</clus>
<clus scale="   89.332">  7  8 -1 -1</clus>
<clus scale="   89.590">  5  6 -1 -1</clus>
<clus scale="   90.482">  1  7  2 -1</clus>
<clus scale="   24.054">  1  5  2 -1</clus>
</clustering>
</event>
<event>
 9    1  0.1636528E-005  0.9855451E+02  0.7546771E-02  0.1283948E+00
         21   -1    0    0  501  502  0.00000000000E+00  0.00000000000E+00  0.17556458518E+03  0.17556458518E+03  0.00000000000E+00 0. -1.
          1   -1    0    0  502    0 -0.00000000000E+00 -0.00000000000E+00 -0.27573007464E+03  0.27573007464E+03  0.00000000000E+00 0. -1.
         23    2    1    2    0    0  0.55015143480E+02  0.29422453401E+02 -0.14666974255E+03  0.18444954737E+03  0.92829280778E+02 0.  0.
         23    2    1    2    0    0 -0.55711656353E+01  0.29183987784E+02 -0.75718371772E+02  0.12256139222E+03  0.91680314190E+02 0.  0.
        -11    1    3    3    0    0  0.67296195515E+02  0.52028270645E+02 -0.12259506296E+03  0.14921550972E+03  0.00000000000E+00 0. -1.
         11    1    3    3    0    0 -0.12281052035E+02 -0.22605817243E+02 -0.24074679587E+02  0.35234037656E+02  0.00000000000E+00 0.  1.
        -13    1    4    4    0    0  0.21370527626E+02 -0.26701088782E+02 -0.23845151161E+02  0.41692191440E+02  0.00000000000E+00 0.  1.
         13    1    4    4    0    0 -0.26941693261E+02  0.55885076566E+02 -0.51873220611E+02  0.80869200782E+02  0.00000000000E+00 0. -1.
          1    1    1    2  501    0 -0.49443977845E+02 -0.58606441186E+02  0.12222262487E+03  0.14428372023E+03  0.00000000000E+00 0. -1.
<scales pt_clust_5="13000.00000" pt_clust_6="13000.00000" pt_clust_7="13000.00000" pt_clust_8="13000.00000" pt_clust_9="76.67739"></scales>
<clustering>
<clus scale="   76.677">  1  9  2 -1</clus>
<clus scale="   91.680">  7  8 -1 -1</clus>
<clus scale="   92.829">  5  6 -1 -1</clus>
<clus scale="   97.473">  1  7  2 -1</clus>
<clus scale="   76.677">  1  5  2 -1</clus>
</clustering>
</event>
<event>
 9    1  0.1842062E-005  0.1538771E+03  0.7546771E-02  0.1218825E+00
          1   -1    0    0  502    0 -0.00000000000E+00  0.00000000000E+00  0.54102491753E+03  0.54102491753E+03  0.00000000000E+00 0. -1.
         21   -1    0    0  501  502  0.00000000000E+00 -0.00000000000E+00 -0.24071503502E+03  0.24071503502E+03  0.00000000000E+00 0. -1.
         23    2    1    2    0    0  0.20905503356E+02  0.13550412237E+02 -0.83553292560E+01  0.94244479061E+02  0.90507218299E+02 0.  0.
         23    2    1    2    0    0 -0.23036167023E+02 -0.13550602570E+03  0.46238009596E+03  0.49126607456E+03  0.93029322732E+02 0.  0.
        -11    1    4    4    0    0 -0.44715079074E+02 -0.78071404995E+02  0.16821950235E+03  0.19076787870E+03  0.00000000000E+00 0. -1.
         11    1    4    4    0    0  0.21678912052E+02 -0.57434620703E+02  0.29416059361E+03  0.30049819586E+03  0.00000000000E+00 0.  1.
        -13    1    3    3    0    0  0.13416035333E+02  0.52428040172E+02 -0.75699084116E+01  0.54644239529E+02  0.00000000000E+00 0.  1.
         13    1    3    3    0    0  0.74894680222E+01 -0.38877627935E+02 -0.78542084447E+00  0.39600239532E+02  0.00000000000E+00 0. -1.
          1    1    1    2  501    0  0.21306636674E+01  0.12195561346E+03 -0.15371488419E+03  0.19622939892E+03  0.00000000000E+00 0. -1.
<scales pt_clust_5="13000.00000" pt_clust_6="13000.00000" pt_clust_7="13000.00000" pt_clust_8="13000.00000" pt_clust_9="122.57120"></scales>
<clustering>
<clus scale="   90.507">  7  8 -1 -1</clus>
<clus scale="   93.029">  5  6 -1 -1</clus>
<clus scale="   93.873">  1  7  2 -1</clus>
<clus scale="  122.571">  2  9  1 -1</clus>
<clus scale="  122.571">  2  5  1 -1</clus>
</clustering>
</event>
<event>
 9    1  0.1636528E-005  0.1172004E+03  0.7546771E-02  0.1248302E+00
         21   -1    0    0  501  502  0.00000000000E+00  0.00000000000E+00  0.33324582121E+03  0.33324582121E+03  0.00000000000E+00 0. -1.
          4   -1    0    0  502    0 -0.00000000000E+00 -0.00000000000E+00 -0.25716469351E+03  0.25716469351E+03  0.00000000000E+00 0. -1.
         23    2    1    2    0    0 -0.37032572321E+02  0.65248439496E+02 -0.18859561464E+03  0.22292803523E+03  0.92194537602E+02 0.  0.
         23    2    1    2    0    0  0.71347065044E+02 -0.26159426616E+02  0.23309132577E+02  0.12057407871E+03  0.90664621011E+02 0.  0.
        -11    1    4    4    0    0  0.43646117079E+02  0.21559742848E+02 -0.17729860285E+02  0.51808821580E+02  0.00000000000E+00 0. -1.
         11    1    4    4    0    0  0.27700947965E+02 -0.47719169464E+02  0.41038992862E+02  0.68765257126E+02  0.00000000000E+00 0.  1.
        -13    1    3    3    0    0  0.18198641726E+02 -0.11377459885E+02 -0.57285170453E+02  0.61173751789E+02  0.00000000000E+00 0.  1.
         13    1    3    3    0    0 -0.55231214046E+02  0.76625899381E+02 -0.13131044418E+03  0.16175428344E+03  0.00000000000E+00 0. -1.
          4    1    1    2  501    0 -0.34314492723E+02 -0.39089012880E+02  0.24136760975E+03  0.24690840078E+03  0.00000000000E+00 0. -1.
<scales pt_clust_5="13000.00000" pt_clust_6="13000.00000" pt_clust_7="13000.00000" pt_clust_8="13000.00000" pt_clust_9="52.01380"></scales>
<clustering>
<clus scale="   52.014">  1  9  2 -1</clus>
<clus scale="   90.665">  5  6 -1 -1</clus>
<clus scale="   92.195">  7  8 -1 -1</clus>
<clus scale="  116.001">  1  5  2 -1</clus>
<clus scale="   52.014">  1  5  2 -1</clus>
</clustering>
</event>
<event>
 9    1  0.1636528E-005  0.1264085E+03  0.7546771E-02  0.1262826E+00
         -4   -1    0    0    0  501 -0.00000000000E+00  0.00000000000E+00  0.24835229151E+03  0.24835229151E+03  0.00000000000E+00 0.  1.
         21   -1    0    0  501  502  0.00000000000E+00 -0.00000000000E+00 -0.32838352063E+03  0.32838352063E+03  0.00000000000E+00 0.  1.
         23    2    1    2    0    0  0.61779305814E+01 -0.13401000175E+02  0.19752685431E+03  0.20934681508E+03  0.67760439629E+02 0.  0.
         23    2    1    2    0    0 -0.82814513618E+02 -0.34242775783E+02 -0.77969627064E+02  0.14834871044E+03  0.88866561688E+02 0.  0.
        -11    1    4    4    0    0 -0.23755060979E+01  0.24328212736E+02 -0.49827245998E+01  0.24946593126E+02  0.00000000000E+00 0. -1.
         11    1    4    4    0    0 -0.80439007520E+02 -0.58570988519E+02 -0.72986902464E+02  0.12340211732E+03  0.00000000000E+00 0.  1.
        -13    1    3    3    0    0  0.28945859849E+02 -0.97183681940E+01  0.17302085360E+03  0.17569440874E+03  0.00000000000E+00 0.  1.
         13    1    3    3    0    0 -0.22767929268E+02 -0.36826319814E+01  0.24506000704E+02  0.33652406332E+02  0.00000000000E+00 0. -1.
         -4    1    1    2    0  502  0.76636583036E+02  0.47643775959E+02 -0.19958845637E+03  0.21904028662E+03  0.00000000000E+00 0.  1.
<scales pt_clust_5="13000.00000" pt_clust_6="13000.00000" pt_clust_7="13000.00000" pt_clust_8="13000.00000" pt_clust_9="89.89905"></scales>
<clustering>
<clus scale="   67.760">  7  8 -1 -1</clus>
<clus scale="   69.349">  1  7  2 -1</clus>
<clus scale="   88.867">  5  6 -1 -1</clus>
<clus scale="   89.899">  2  9  1 -1</clus>
<clus scale="   89.899">  2  5  1 -1</clus>
</clustering>
</event>
<event>
 9    1  0.1636528E-005  0.1290151E+03  0.7546771E-02  0.1229594E+00
          3   -1    0    0  502    0 -0.00000000000E+00  0.00000000000E+00  0.62608812723E+03  0.62608812723E+03  0.00000000000E+00 0. -1.
         21   -1    0    0  501  502  0.00000000000E+00 -0.00000000000E+00 -0.51570377517E+02  0.51570377517E+02  0.00000000000E+00 0.  1.
         23    2    1    2    0    0  0.26105413277E+02 -0.77563208970E+02  0.33130517213E+03  0.35274871112E+03  0.89280412892E+02 0.  0.
         23    2    1    2    0    0 -0.12903349879E+02  0.12204307084E+03  0.12449380887E+03  0.19744647093E+03  0.91789938753E+02 0.  0.
        -11    1    4    4    0    0  0.33418827099E+02  0.73867329277E+02  0.42097608207E+02  0.91353209883E+02  0.00000000000E+00 0.  1.
         11    1    4    4    0    0 -0.46322176978E+02  0.48175741565E+02  0.82396200667E+02  0.10609326105E+03  0.00000000000E+00 0. -1.
        -13    1    3    3    0    0  0.53857995842E+02 -0.42786858921E+02  0.13558674414E+03  0.15203671990E+03  0.00000000000E+00 0.  1.
         13    1    3    3    0    0 -0.27752582565E+02 -0.34776350049E+02  0.19571842799E+03  0.20071199122E+03  0.00000000000E+00 0. -1.
          3    1    1    2  501    0 -0.13202063398E+02 -0.44479861872E+02  0.11871876871E+03  0.12746332270E+03  0.00000000000E+00 0. -1.
<scales pt_clust_5="13000.00000" pt_clust_6="13000.00000" pt_clust_7="13000.00000" pt_clust_8="13000.00000" pt_clust_9="46.39779"></scales>
<clustering>
<clus scale="   46.398">  2  9  1 -1</clus>
<clus scale="   89.280">  7  8 -1 -1</clus>
<clus scale="   91.790">  5  6 -1 -1</clus>
<clus scale="  127.242">  1  7  2 -1</clus>
<clus scale="   46.398">  2  5  1 -1</clus>
</clustering>
</event>
<event>
 9    1  0.1636528E-005  0.1101217E+03  0.7546771E-02  0.1261093E+00
          3   -1    0    0  502    0 -0.00000000000E+00  0.00000000000E+00  0.49661704529E+03  0.49661704529E+03  0.00000000000E+00 0. -1.
         21   -1    0    0  501  502  0.00000000000E+00 -0.00000000000E+00 -0.87624459270E+02  0.87624459270E+02  0.00000000000E+00 0. -1.
         23    2    1    2    0    0 -0.31599026620E+02  0.61123322089E+02  0.41149416212E+03  0.42665176780E+03  0.89273324771E+02 0.  0.
         23    2    1    2    0    0  0.34065496016E+02 -0.14320465701E+01  0.42010644610E+01  0.97472707270E+02  0.91218259925E+02 0.  0.
        -11    1    3    3    0    0 -0.44199887229E+02  0.78943544025E+02  0.34507337901E+03  0.35673708817E+03  0.00000000000E+00 0. -1.
         11    1    3    3    0    0  0.12600860609E+02 -0.17820221936E+02  0.66420783116E+02  0.69914679629E+02  0.00000000000E+00 0.  1.
        -13    1    4    4    0    0  0.46265494430E+02 -0.35701987614E+02  0.13389627566E+02  0.59953398743E+02  0.00000000000E+00 0.  1.
         13    1    4    4    0    0 -0.12199998414E+02  0.34269941044E+02 -0.91885631053E+01  0.37519308528E+02  0.00000000000E+00 0. -1.
          3    1    1    2  501    0 -0.24664693961E+01 -0.59691275519E+02 -0.67026405669E+01  0.60117029492E+02  0.00000000000E+00 0. -1.
<scales pt_clust_5="13000.00000" pt_clust_6="13000.00000" pt_clust_7="13000.00000" pt_clust_8="13000.00000" pt_clust_9="59.74221"></scales>
<clustering>
<clus scale="   59.742">  2  9  1 -1</clus>
<clus scale="   89.273">  5  6 -1 -1</clus>
<clus scale="   91.218">  7  8 -1 -1</clus>
<clus scale="  108.516">  1  5  2 -1</clus>
<clus scale="   59.742">  2  5  1 -1</clus>
</clustering>
</event>
<event>
 9    1  0.1636528E-005  0.1812974E+03  0.7546771E-02  0.1166616E+00
         -3   -1    0    0    0  501 -0.00000000000E+00  0.00000000000E+00  0.22180448354E+03  0.22180448354E+03  0.00000000000E+00 0.  1.
         21   -1    0    0  501  502  0.00000000000E+00 -0.00000000000E+00 -0.28645538255E+03  0.28645538255E+03  0.00000000000E+00 0.  1.
         23    2    1    2    0    0 -0.14581614872E+03  0.17430476247E+02  0.33254854268E+02  0.17622562707E+03  0.91560993739E+02 0.  0.
         23    2    1    2    0    0  0.15185568997E+03 -0.91998741555E+02  0.11085074609E+02  0.19983778366E+03  0.91040331029E+02 0.  0.
        -13    1    4    4    0    0  0.39017480332E+02 -0.54396285500E+02 -0.30868310996E+02  0.73716838452E+02  0.00000000000E+00 0. -1.
         13    1    4    4    0    0  0.11283820964E+03 -0.37602456055E+02  0.41953385605E+02  0.12612094520E+03  0.00000000000E+00 0.  1.
        -13    1    3    3    0    0 -0.97244297174E+02 -0.33175199838E+02  0.23570650378E+02  0.10541642555E+03  0.00000000000E+00 0.  1.
         13    1    3    3    0    0 -0.48571851544E+02  0.50605676084E+02  0.96842038892E+01  0.70809201516E+02  0.00000000000E+00 0. -1.
         -3    1    1    2    0  502 -0.60395412499E+01  0.74568265308E+02 -0.10899082788E+03  0.13219645537E+03  0.00000000000E+00 0.  1.
<scales pt_clust_5="13000.00000" pt_clust_6="13000.00000" pt_clust_7="13000.00000" pt_clust_8="13000.00000" pt_clust_9="74.81245"></scales>
<clustering>
<clus scale="   74.812">  2  9  1 -1</clus>
<clus scale="   91.040">  5  6 -1 -1</clus>
<clus scale="   91.561">  7  8 -1 -1</clus>
<clus scale="  181.035">  2  5  1 -1</clus>
<clus scale="   74.812">  2  5  1 -1</clus>
</clustering>
</event>
<event>
 9    1  0.1636528E-005  0.1125645E+03  0.7546771E-02  0.1256706E+00
         -4   -1    0    0    0  501 -0.00000000000E+00  0.00000000000E+00  0.65658447309E+03  0.65658447309E+03  0.00000000000E+00 0.  1.
         21   -1    0    0  501  502  0.00000000000E+00 -0.00000000000E+00 -0.17910213264E+03  0.17910213264E+03  0.00000000000E+00 0.  1.
         23    2    1    2    0    0  0.39063766253E+02 -0.22556595154E+02  0.32232672943E+03  0.33807999100E+03  0.91481047156E+02 0.  0.
         23    2    1    2    0    0 -0.67065462656E+02  0.65628120608E+02  0.30855751972E+03  0.33583085358E+03  0.93647171578E+02 0.  0.
        -11    1    3    3    0    0  0.63485888967E+02  0.51121131604E+01  0.17596273370E+03  0.18713491243E+03  0.00000000000E+00 0.  1.
         11    1    3    3    0    0 -0.24422122714E+02 -0.27668708314E+02  0.14636399573E+03  0.15094507857E+03  0.00000000000E+00 0. -1.
        -13    1    4    4    0    0  0.21605578296E+02  0.28427655075E+02  0.68912246134E+02  0.77613338117E+02  0.00000000000E+00 0.  1.
         13    1    4    4    0    0 -0.88671040952E+02  0.37200465534E+02  0.23964527358E+03  0.25821751546E+03  0.00000000000E+00 0. -1.
         -4    1    1    2    0  502  0.28001696403E+02 -0.43071525455E+02 -0.15340190870E+03  0.16177576116E+03  0.00000000000E+00 0.  1.
<scales pt_clust_5="13000.00000" pt_clust_6="13000.00000" pt_clust_7="13000.00000" pt_clust_8="13000.00000" pt_clust_9="51.37364"></scales>
<clustering>
<clus scale="   51.374">  2  9  1 -1</clus>
<clus scale="   91.481">  5  6 -1 -1</clus>
<clus scale="   93.647">  7  8 -1 -1</clus>
<clus scale="  110.769">  1  5  2 -1</clus>
<clus scale="   51.374">  2  5  1 -1</clus>
</clustering>
</event>
<event>
 9    1  0.1636528E-005  0.1282968E+03  0.7546771E-02  0.1230477E+00
         21   -1    0    0  501  502  0.00000000000E+00  0.00000000000E+00  0.65303177249E+03  0.65303177249E+03  0.00000000000E+00 0.  1.
         -1   -1    0    0    0  501 -0.00000000000E+00 -0.00000000000E+00 -0.98452476375E+02  0.98452476375E+02  0.00000000000E+00 0.  1.
         23    2    1    2    0    0 -0.78963109448E+01  0.82903366764E+02 -0.19466897907E+02  0.12518174689E+03  0.91412196630E+02 0.  0.
         23    2    1    2    0    0  0.55465401997E+02 -0.10276121176E+03  0.20483210574E+03  0.25350739013E+03  0.93131776779E+02 0.  0.
        -13    1    3    3    0    0  0.15969528255E+02 -0.13709698044E+02  0.70428622027E+01  0.22194223599E+02  0.00000000000E+00 0.  1.
         13    1    3    3    0    0 -0.23865839200E+02  0.96613064809E+02 -0.26509760109E+02  0.10298752329E+03  0.00000000000E+00 0. -1.
        -13    1    4    4    0    0  0.30343211362E+02 -0.11620930479E+03  0.17502308125E+03  0.21226962092E+03  0.00000000000E+00 0.  1.
         13    1    4    4    0    0  0.25122190635E+02  0.13448093024E+02  0.29809024496E+02  0.41237769214E+02  0.00000000000E+00 0. -1.
         -1    1    1    2    0  502 -0.47569091052E+02  0.19857845001E+02  0.36921408828E+03  0.37279511185E+03  0.00000000000E+00 0.  1.
<scales pt_clust_5="13000.00000" pt_clust_6="13000.00000" pt_clust_7="13000.00000" pt_clust_8="13000.00000" pt_clust_9="51.54757"></scales>
<clustering>
<clus scale="   51.548">  1  9  2 -1</clus>
<clus scale="   91.412">  5  6 -1 -1</clus>
<clus scale="   93.132">  7  8 -1 -1</clus>
<clus scale="  127.054">  2  5  1 -1</clus>
<clus scale="   51.548">  1  5  2 -1</clus>
</clustering>
</event>
<event>
 9    1  0.1636528E-005  0.1136191E+03  0.7546771E-02  0.1254321E+00
         21   -1    0    0  501  502  0.00000000000E+00  0.00000000000E+00  0.20753939138E+03  0.20753939138E+03  0.00000000000E+00 0.  1.
          1   -1    0    0  502    0 -0.00000000000E+00 -0.00000000000E+00 -0.34536538920E+03  0.34536538920E+03  0.00000000000E+00 0. -1.
         23    2    1    2    0    0  0.63627006090E+02 -0.24950015451E+02 -0.27318124786E+03  0.29604568452E+03  0.91346340738E+02 0.  0.
         23    2    1    2    0    0 -0.44629952485E+02  0.56211586218E+02 -0.11921701466E+01  0.11549654157E+03  0.90479029396E+02 0.  0.
        -11    1    4    4    0    0  0.94664843829E+01  0.43373662492E+02  0.28212618518E+02  0.52600767752E+02  0.00000000000E+00 0.  1.
         11    1    4    4    0    0 -0.54096436868E+02  0.12837923726E+02 -0.29404788664E+02  0.62895773815E+02  0.00000000000E+00 0. -1.
        -13    1    3    3    0    0  0.69513817044E+02 -0.51739196627E+02 -0.20741410145E+03  0.22478817742E+03  0.00000000000E+00 0. -1.
         13    1    3    3    0    0 -0.58868109541E+01  0.26789181176E+02 -0.65767146410E+02  0.71257507101E+02  0.00000000000E+00 0.  1.
          1    1    1    2  501    0 -0.18997053605E+02 -0.31261570767E+02  0.13654742018E+03  0.14136255449E+03  0.00000000000E+00 0. -1.
<scales pt_clust_5="13000.00000" pt_clust_6="13000.00000" pt_clust_7="13000.00000" pt_clust_8="13000.00000" pt_clust_9="36.58106"></scales>
<clustering>
<clus scale="   36.581">  1  9  2 -1</clus>
<clus scale="   90.479">  5  6 -1 -1</clus>
<clus scale="   91.346">  7  8 -1 -1</clus>
<clus scale="  112.923">  1  5  2 -1</clus>
<clus scale="   36.581">  1  5  2 -1</clus>
</clustering>
</event>
<event>
 9    1  0.1636528E-005  0.1526677E+03  0.7546771E-02  0.1197634E+00
         21   -1    0    0  501  502  0.00000000000E+00  0.00000000000E+00  0.41329061856E+03  0.41329061856E+03  0.00000000000E+00 0.  1.
         -1   -1    0    0    0  501 -0.00000000000E+00 -0.00000000000E+00 -0.29685573729E+03  0.29685573729E+03  0.00000000000E+00 0.  1.
         23    2    1    2    0    0 -0.11361548830E+03 -0.41891632321E+02 -0.23047978720E+03  0.27623776282E+03  0.92319993803E+02 0.  0.
         23    2    1    2    0    0  0.12810577720E+03  0.11384779582E+02  0.10329621588E+03  0.18796025094E+03  0.90101300552E+02 0.  0.
        -13    1    3    3    0    0 -0.38152612094E+02  0.59735790365E+01 -0.15352243948E+03  0.15830491111E+03  0.00000000000E+00 0.  1.
         13    1    3    3    0    0 -0.75462876208E+02 -0.47865211358E+02 -0.76957347721E+02  0.11793285171E+03  0.00000000000E+00 0. -1.
        -13    1    4    4    0    0  0.68740116303E+02 -0.38494010617E+02  0.43135983429E+02  0.89820406974E+02  0.00000000000E+00 0. -1.
         13    1    4    4    0    0  0.59365660895E+02  0.49878790199E+02  0.60160232452E+02  0.98139843967E+02  0.00000000000E+00 0.  1.
         -1    1    1    2    0  502 -0.14490288895E+02  0.30506852740E+02  0.24361845259E+03  0.24594834210E+03  0.00000000000E+00 0.  1.
<scales pt_clust_5="13000.00000" pt_clust_6="13000.00000" pt_clust_7="13000.00000" pt_clust_8="13000.00000" pt_clust_9="33.77331"></scales>
<clustering>
<clus scale="   33.773">  1  9  2 -1</clus>
<clus scale="   90.101">  7  8 -1 -1</clus>
<clus scale="   92.320">  5  6 -1 -1</clus>
<clus scale="  151.336">  1  7  2 -1</clus>
<clus scale="   33.773">  1  5  2 -1</clus>
</clustering>
</event>
<event>
 9    1  0.1636528E-005  0.9244712E+02  0.7546771E-02  0.1297416E+00
          2   -1    0    0  502    0 -0.00000000000E+00  0.00000000000E+00  0.61570593498E+03  0.61570593498E+03  0.00000000000E+00 0. -1.
         21   -1    0    0  501  502  0.00000000000E+00 -0.00000000000E+00 -0.62100699873E+02  0.62100699873E+02  0.00000000000E+00 0. -1.
         23    2    1    2    0    0  0.63099930229E+01  0.32572679403E+01  0.31069489602E+03  0.32356453799E+03  0.90068118797E+02 0.  0.
         23    2    1    2    0    0 -0.20593231901E+02 -0.23138005308E+02  0.28766938749E+03  0.30322614792E+03  0.90735725031E+02 0.  0.
        -13    1    3    3    0    0  0.18088643600E+02 -0.35721674582E+02  0.81778266073E+02  0.91054499417E+02  0.00000000000E+00 0. -1.
         13    1    3    3    0    0 -0.11778650577E+02  0.38978942522E+02  0.22891662995E+03  0.23251003857E+03  0.00000000000E+00 0.  1.
        -13    1    4    4    0    0  0.31281113329E+02 -0.30123655849E+02  0.13760749440E+03  0.14429748857E+03  0.00000000000E+00 0.  1.
         13    1    4    4    0    0 -0.51874345229E+02  0.69856505402E+01  0.15006189309E+03  0.15892865935E+03  0.00000000000E+00 0. -1.
          2    1    1    2  501    0  0.14283238878E+02  0.19880737368E+02 -0.44759048410E+02  0.51015948935E+02  0.00000000000E+00 0. -1.
<scales pt_clust_5="13000.00000" pt_clust_6="13000.00000" pt_clust_7="13000.00000" pt_clust_8="13000.00000" pt_clust_9="24.47968"></scales>
<clustering>
<clus scale="   24.480">  2  9  1 -1</clus>
<clus scale="   90.068">  5  6 -1 -1</clus>
<clus scale="   90.736">  7  8 -1 -1</clus>
<clus scale="   91.792">  1  5  2 -1</clus>
<clus scale="   24.480">  2  5  1 -1</clus>
</clustering>
</event>
<event>
 9    1  0.1636528E-005  0.9734179E+02  0.7546771E-02  0.1286479E+00
         21   -1    0    0  501  502  0.00000000000E+00  0.00000000000E+00  0.27566434708E+03  0.27566434708E+03  0.00000000000E+00 0. -1.
          2   -1    0    0  502    0 -0.00000000000E+00 -0.00000000000E+00 -0.74522571113E+02  0.74522571113E+02  0.00000000000E+00 0. -1.
         23    2    1    2    0    0  0.45622240688E+01 -0.43999370042E+02  0.83558859962E+02  0.12871828184E+03  0.87347321368E+02 0.  0.
         23    2    1    2    0    0  0.27678663339E+02  0.34045087339E+02  0.14678384731E+03  0.17684513408E+03  0.88337575477E+02 0.  0.
        -11    1    3    3    0    0 -0.24319510041E+02 -0.51971537911E+02  0.80136938526E+02  0.98561697620E+02  0.00000000000E+00 0.  1.
         11    1    3    3    0    0  0.28881734110E+02  0.79721678693E+01  0.34219214366E+01  0.30156584224E+02  0.00000000000E+00 0. -1.
        -11    1    4    4    0    0 -0.21848210656E+02  0.23279131537E+02  0.14271071329E+02  0.34970355315E+02  0.00000000000E+00 0.  1.
         11    1    4    4    0    0  0.49526873994E+02  0.10765955802E+02  0.13251277598E+03  0.14187477877E+03  0.00000000000E+00 0. -1.
          2    1    1    2  501    0 -0.32240887407E+02  0.99542827027E+01 -0.29200931310E+02  0.44623502264E+02  0.00000000000E+00 0. -1.
<scales pt_clust_5="13000.00000" pt_clust_6="13000.00000" pt_clust_7="13000.00000" pt_clust_8="13000.00000" pt_clust_9="33.74261"></scales>
<clustering>
<clus scale="   33.743">  1  9  2 -1</clus>
<clus scale="   87.347">  5  6 -1 -1</clus>
<clus scale="   88.338">  7  8 -1 -1</clus>
<clus scale="   96.444">  2  5  1 -1</clus>
<clus scale="   33.743">  1  5  2 -1</clus>
</clustering>
</event>
<event>
 9    1  0.1636528E-005  0.1499314E+03  0.7546771E-02  0.1201307E+00
          1   -1    0    0  502    0 -0.00000000000E+00  0.00000000000E+00  0.51581975513E+02  0.51581975513E+02  0.00000000000E+00 0. -1.
         21   -1    0    0  501  502  0.00000000000E+00 -0.00000000000E+00 -0.69279240266E+03  0.69279240266E+03  0.00000000000E+00 0.  1.
         23    2    1    2    0    0 -0.94814649686E+02 -0.69435103602E+02 -0.11116779332E+03  0.18586632732E+03  0.91525744739E+02 0.  0.
         23    2    1    2    0    0  0.85481885618E+02  0.89610988256E+02 -0.42791496341E+03  0.45398901972E+03  0.87507326138E+02 0.  0.
        -11    1    3    3    0    0 -0.65249579700E+02 -0.27127789298E+02 -0.11405527936E+03  0.13417164884E+03  0.00000000000E+00 0.  1.
         11    1    3    3    0    0 -0.29565069987E+02 -0.42307314304E+02  0.28874860350E+01  0.51694678474E+02  0.00000000000E+00 0. -1.
        -13    1    4    4    0    0  0.20304806656E+02 -0.93721543530E+01 -0.22973510484E+02  0.32060951865E+02  0.00000000000E+00 0.  1.
         13    1    4    4    0    0  0.65177078962E+02  0.98983142609E+02 -0.40494145293E+03  0.42192806785E+03  0.00000000000E+00 0. -1.
          1    1    1    2  501    0  0.93327640688E+01 -0.20175884653E+02 -0.10212767041E+03  0.10451903114E+03  0.00000000000E+00 0. -1.
<scales pt_clust_5="13000.00000" pt_clust_6="13000.00000" pt_clust_7="13000.00000" pt_clust_8="13000.00000" pt_clust_9="22.22986"></scales>
<clustering>
<clus scale="   22.230">  2  9  1 -1</clus>
<clus scale="   87.507">  7  8 -1 -1</clus>
<clus scale="   91.526">  5  6 -1 -1</clus>
<clus scale="  147.513">  2  7  1 -1</clus>
<clus scale="   22.230">  2  5  1 -1</clus>
</clustering>
</event>
<event>
 9    1  0.1636528E-005  0.1410261E+03  0.7546771E-02  0.1213621E+00
         21   -1    0    0  501  502  0.00000000000E+00  0.00000000000E+00  0.62761921095E+02  0.62761921095E+02  0.00000000000E+00 0.  1.
          1   -1    0    0  502    0 -0.00000000000E+00 -0.00000000000E+00 -0.43841838390E+03  0.43841838390E+03  0.00000000000E+00 0. -1.
         23    2    1    2    0    0  0.85568747284E+02 -0.53830380581E+02 -0.23965011298E+03  0.27354236821E+03  0.84696695151E+02 0.  0.
         23    2    1    2    0    0 -0.11087272093E+03  0.43157173060E+02 -0.13120395884E+03  0.19975834927E+03  0.92377580901E+02 0.  0.
        -11    1    4    4    0    0 -0.60299144377E+01  0.36759019742E+02 -0.84460836403E+01  0.38195833927E+02  0.00000000000E+00 0.  1.
         11    1    4    4    0    0 -0.10484280649E+03  0.63981533180E+01 -0.12275787520E+03  0.16156251534E+03  0.00000000000E+00 0. -1.
        -13    1    3    3    0    0  0.64607337021E+02  0.55974025010E+01 -0.87940266062E+02  0.10926540764E+03  0.00000000000E+00 0.  1.
         13    1    3    3    0    0  0.20961410264E+02 -0.59427783082E+02 -0.15170984692E+03  0.16427696057E+03  0.00000000000E+00 0. -1.
          1    1    1    2  501    0  0.25303973641E+02  0.10673207521E+02 -0.48023909737E+01  0.27879587513E+02  0.00000000000E+00 0. -1.
<scales pt_clust_5="13000.00000" pt_clust_6="13000.00000" pt_clust_7="13000.00000" pt_clust_8="13000.00000" pt_clust_9="27.46286"></scales>
<clustering>
<clus scale="   27.463">  1  9  2 -1</clus>
<clus scale="   84.697">  7  8 -1 -1</clus>
<clus scale="   92.378">  5  6 -1 -1</clus>
<clus scale="  136.119">  2  7  1 -1</clus>
<clus scale="   27.463">  1  5  2 -1</clus>
</clustering>
</event>
<event>
 9    1  0.1636528E-005  0.9863614E+02  0.7546771E-02  0.1290126E+00
         -2   -1    0    0    0  501 -0.00000000000E+00  0.00000000000E+00  0.75662476888E+02  0.75662476888E+02  0.00000000000E+00 0.  1.
         21   -1    0    0  501  502  0.00000000000E+00 -0.00000000000E+00 -0.21711141734E+03  0.21711141734E+03  0.00000000000E+00 0.  1.
         23    2    1    2    0    0  0.37864059616E+02  0.24058196093E+02 -0.11144737120E+02  0.90088048389E+02  0.77325076704E+02 0.  0.
         23    2    1    2    0    0 -0.36276630090E+02  0.63910177630E+01 -0.37126990871E+02  0.10464673385E+03  0.90640423962E+02 0.  0.
        -11    1    3    3    0    0 -0.11328164677E+02  0.33444287795E+02  0.84561777612E+01  0.36309153713E+02  0.00000000000E+00 0.  1.
         11    1    3    3    0    0  0.49192224294E+02 -0.93860917016E+01 -0.19600914882E+02  0.53778894676E+02  0.00000000000E+00 0. -1.
        -11    1    4    4    0    0  0.25496027157E+02  0.19722591983E+02 -0.23783499576E+02  0.40058493324E+02  0.00000000000E+00 0. -1.
         11    1    4    4    0    0 -0.61772657247E+02 -0.13331574220E+02 -0.13343491295E+02  0.64588240528E+02  0.00000000000E+00 0.  1.
         -2    1    1    2    0  502 -0.15874295261E+01 -0.30449213856E+02 -0.93177212464E+02  0.98039111989E+02  0.00000000000E+00 0.  1.
<scales pt_clust_5="13000.00000" pt_clust_6="13000.00000" pt_clust_7="13000.00000" pt_clust_8="13000.00000" pt_clust_9="30.49057"></scales>
<clustering>
<clus scale="   30.491">  2  9  1 -1</clus>
<clus scale="   77.325">  5  6 -1 -1</clus>
<clus scale="   86.560">  1  5  2 -1</clus>
<clus scale="   90.640">  7  8 -1 -1</clus>
<clus scale="   30.491">  2  5  1 -1</clus>
</clustering>
</event>
<event>
 9    1  0.1636528E-005  0.9642098E+02  0.7546771E-02  0.1289844E+00
          1   -1    0    0  502    0 -0.00000000000E+00  0.00000000000E+00  0.16315487269E+03  0.16315487269E+03  0.00000000000E+00 0. -1.
         21   -1    0    0  501  502  0.00000000000E+00 -0.00000000000E+00 -0.18322660025E+03  0.18322660025E+03  0.00000000000E+00 0. -1.
         23    2    1    2    0    0 -0.12742031584E+02 -0.27347398959E+02  0.70673019535E+02  0.11909237000E+03  0.90983939806E+02 0.  0.
         23    2    1    2    0    0  0.71218146910E+01  0.29418923377E+01  0.33616071175E+02  0.10043158952E+03  0.94324381562E+02 0.  0.
        -11    1    3    3    0    0  0.35700607193E+02 -0.75436198948E+01  0.78445535391E+01  0.37322601401E+02  0.00000000000E+00 0.  1.
         11    1    3    3    0    0 -0.48442638777E+02 -0.19803779064E+02  0.62828465996E+02  0.81769768597E+02  0.00000000000E+00 0. -1.
        -13    1    4    4    0    0  0.11865767409E+02  0.27606651519E+02 -0.23428226486E+02  0.38102564751E+02  0.00000000000E+00 0.  1.
         13    1    4    4    0    0 -0.47439527178E+01 -0.24664759181E+02  0.57044297661E+02  0.62329024768E+02  0.00000000000E+00 0. -1.
          1    1    1    2  501    0  0.56202168932E+01  0.24405506621E+02 -0.12436081827E+03  0.12685751342E+03  0.00000000000E+00 0. -1.
<scales pt_clust_5="13000.00000" pt_clust_6="13000.00000" pt_clust_7="13000.00000" pt_clust_8="13000.00000" pt_clust_9="25.04427"></scales>
<clustering>
<clus scale="   25.044">  2  9  1 -1</clus>
<clus scale="   90.984">  5  6 -1 -1</clus>
<clus scale="   93.156">  1  5  2 -1</clus>
<clus scale="   94.324">  7  8 -1 -1</clus>
<clus scale="   25.044">  2  5  1 -1</clus>
</clustering>
</event>
<event>
 9    1  0.1636528E-005  0.1131414E+03  0.7546771E-02  0.1256826E+00
          1   -1    0    0  502    0 -0.00000000000E+00  0.00000000000E+00  0.58309578335E+03  0.58309578335E+03  0.00000000000E+00 0. -1.
         21   -1    0    0  501  502  0.00000000000E+00 -0.00000000000E+00 -0.55967401571E+02  0.55967401571E+02  0.00000000000E+00 0.  1.
         23    2    1    2    0    0  0.67010485589E+02 -0.12689572844E+02  0.48782335901E+03  0.50003431614E+03  0.86088659446E+02 0.  0.
         23    2    1    2    0    0 -0.58335201524E+02 -0.10026142923E+02  0.33974902076E+02  0.11413560698E+03  0.91482913878E+02 0.  0.
        -11    1    3    3    0    0  0.10843958132E+02  0.34419534113E+02  0.18251340346E+03  0.18604687097E+03  0.00000000000E+00 0.  1.
         11    1    3    3    0    0  0.56166527457E+02 -0.47109106958E+02  0.30530995555E+03  0.31398744517E+03  0.00000000000E+00 0. -1.
        -11    1    4    4    0    0 -0.91089545243E+01  0.34701580698E+02  0.31232924403E+02  0.47567513307E+02  0.00000000000E+00 0. -1.
         11    1    4    4    0    0 -0.49226247000E+02 -0.44727723622E+02  0.27419776733E+01  0.66568093676E+02  0.00000000000E+00 0.  1.
          1    1    1    2  501    0 -0.86752840649E+01  0.22715715768E+02  0.53301206979E+01  0.24893261801E+02  0.00000000000E+00 0. -1.
<scales pt_clust_5="13000.00000" pt_clust_6="13000.00000" pt_clust_7="13000.00000" pt_clust_8="13000.00000" pt_clust_9="24.31593"></scales>
<clustering>
<clus scale="   24.316">  2  9  1 -1</clus>
<clus scale="   86.089">  5  6 -1 -1</clus>
<clus scale="   91.483">  7  8 -1 -1</clus>
<clus scale="  108.826">  1  5  2 -1</clus>
<clus scale="   24.316">  2  5  1 -1</clus>
</clustering>
</event>
<event>
 9    1  0.1636528E-005  0.3072797E+03  0.7546771E-02  0.1081712E+00
         21   -1    0    0  501  502  0.00000000000E+00  0.00000000000E+00  0.15213220667E+03  0.15213220667E+03  0.00000000000E+00 0. -1.
          1   -1    0    0  502    0 -0.00000000000E+00 -0.00000000000E+00 -0.95061422326E+03  0.95061422326E+03  0.00000000000E+00 0. -1.
         23    2    1    2    0    0  0.81807641356E+02  0.32620462046E+03 -0.56345817359E+03  0.66244721356E+03  0.90825397221E+02 0.  0.
         23    2    1    2    0    0 -0.67226475195E+02 -0.21226390980E+03 -0.92168563504E+02  0.25698875068E+03  0.89290579047E+02 0.  0.
        -11    1    4    4    0    0 -0.30924697129E+02 -0.17664156449E+03 -0.39213896871E+02  0.18356554389E+03  0.00000000000E+00 0. -1.
         11    1    4    4    0    0 -0.36301778066E+02 -0.35622345309E+02 -0.52954666633E+02  0.73423206783E+02  0.00000000000E+00 0.  1.
        -13    1    3    3    0    0  0.69381788431E+02  0.14424487811E+03 -0.20336778773E+03  0.25880277146E+03  0.00000000000E+00 0.  1.
         13    1    3    3    0    0  0.12425852925E+02  0.18195974235E+03 -0.36009038585E+03  0.40364444210E+03  0.00000000000E+00 0. -1.
          1    1    1    2  501    0 -0.14581166161E+02 -0.11394071066E+03 -0.14285527950E+03  0.18331046569E+03  0.00000000000E+00 0. -1.
<scales pt_clust_5="13000.00000" pt_clust_6="13000.00000" pt_clust_7="13000.00000" pt_clust_8="13000.00000" pt_clust_9="114.86997"></scales>
<clustering>
<clus scale="   89.291">  5  6 -1 -1</clus>
<clus scale="   90.825">  7  8 -1 -1</clus>
<clus scale="  114.870">  1  9  2 -1</clus>
<clus scale="  306.829">  1  5  2 -1</clus>
<clus scale="  114.870">  1  5  2 -1</clus>
</clustering>
</event>
<event>
 9    1  0.1636528E-005  0.1065846E+03  0.7546771E-02  0.1267408E+00
         21   -1    0    0  501  502  0.00000000000E+00  0.00000000000E+00  0.32566381380E+03  0.32566381380E+03  0.00000000000E+00 0. -1.
          1   -1    0    0  502    0 -0.00000000000E+00 -0.00000000000E+00 -0.15552903025E+03  0.15552903025E+03  0.00000000000E+00 0. -1.
         23    2    1    2    0    0 -0.48029350462E+02 -0.42259608242E+02 -0.10978325002E+03  0.15593237913E+03  0.90387232957E+02 0.  0.
         23    2    1    2    0    0  0.11141542911E+02  0.21009817504E+02  0.84755938383E+02  0.12550935141E+03  0.89462180780E+02 0.  0.
        -11    1    4    4    0    0  0.38946532336E+02  0.61315679587E+01  0.85298321023E+02  0.93969314545E+02  0.00000000000E+00 0.  1.
         11    1    4    4    0    0 -0.27804989425E+02  0.14878249545E+02 -0.54238263961E+00  0.31540036864E+02  0.00000000000E+00 0. -1.
        -11    1    3    3    0    0 -0.75174811762E+02 -0.30300021813E+02 -0.81725161641E+02  0.11510145825E+03  0.00000000000E+00 0. -1.
         11    1    3    3    0    0  0.27145461300E+02 -0.11959586429E+02 -0.28058088381E+02  0.40830920885E+02  0.00000000000E+00 0.  1.
          1    1    1    2  501    0  0.36887807551E+02  0.21249790738E+02  0.19516209518E+03  0.19975111351E+03  0.00000000000E+00 0. -1.
<scales pt_clust_5="13000.00000" pt_clust_6="13000.00000" pt_clust_7="13000.00000" pt_clust_8="13000.00000" pt_clust_9="42.57069"></scales>
<clustering>
<clus scale="   42.571">  1  9  2 -1</clus>
<clus scale="   89.462">  5  6 -1 -1</clus>
<clus scale="   90.387">  7  8 -1 -1</clus>
<clus scale="  105.801">  1  5  2 -1</clus>
<clus scale="   42.571">  1  5  2 -1</clus>
</clustering>
</event>
<event>
 9    1  0.1636528E-005  0.2725704E+03  0.7546771E-02  0.1100669E+00
         21   -1    0    0  501  502  0.00000000000E+00  0.00000000000E+00  0.12052147165E+04  0.12052147165E+04  0.00000000000E+00 0. -1.
          3   -1    0    0  502    0 -0.00000000000E+00 -0.00000000000E+00 -0.11534948600E+03  0.11534948600E+03  0.00000000000E+00 0. -1.
         23    2    1    2    0    0  0.16215344530E+03  0.24074459379E+03  0.18936878080E+03  0.35664356610E+03  0.84156989255E+02 0.  0.
         23    2    1    2    0    0 -0.87019169754E+02 -0.13084455220E+03  0.68964565319E+03  0.71455897757E+03  0.10144344591E+03 0.  0.
        -11    1    4    4    0    0  0.21592101327E+02 -0.30275352503E+02  0.18264618040E+03  0.18639324833E+03  0.00000000000E+00 0. -1.
         11    1    4    4    0    0 -0.10861127108E+03 -0.10056919969E+03  0.50699947280E+03  0.52816572924E+03  0.00000000000E+00 0.  1.
        -13    1    3    3    0    0  0.16585783979E+03  0.19362689933E+03  0.16006243442E+03  0.30103186223E+03  0.00000000000E+00 0. -1.
         13    1    3    3    0    0 -0.37043944926E+01  0.47117694461E+02  0.29306346381E+02  0.55611703877E+02  0.00000000000E+00 0.  1.
          3    1    1    2  501    0 -0.75134275544E+02 -0.10990004159E+03  0.21085079654E+03  0.24936165885E+03  0.00000000000E+00 0. -1.
<scales pt_clust_5="13000.00000" pt_clust_6="13000.00000" pt_clust_7="13000.00000" pt_clust_8="13000.00000" pt_clust_9="133.12843"></scales>
<clustering>
<clus scale="   84.157">  7  8 -1 -1</clus>
<clus scale="  101.443">  5  6 -1 -1</clus>
<clus scale="  133.128">  1  9  2 -1</clus>
<clus scale="  266.620">  2  7  1 -1</clus>
<clus scale="  133.128">  1  5  2 -1</clus>
</clustering>
</event>
<event>
 9    1  0.1636528E-005  0.9800880E+02  0.7546771E-02  0.1286896E+00
          3   -1    0    0  502    0 -0.00000000000E+00  0.00000000000E+00  0.69942237664E+02  0.69942237664E+02  0.00000000000E+00 0. -1.
         21   -1    0    0  501  502  0.00000000000E+00 -0.00000000000E+00 -0.19414773673E+03  0.19414773673E+03  0.00000000000E+00 0. -1.
         23    2    1    2    0    0  0.30519343396E+02  0.62175790258E+01 -0.26261476571E+02  0.99167057462E+02  0.90412120447E+02 0.  0.
         23    2    1    2    0    0 -0.17253008176E+02  0.14762931403E+02 -0.46969843119E+02  0.10822596436E+03  0.94821320198E+02 0.  0.
        -11    1    4    4    0    0  0.27220077434E+02  0.18717788624E+02  0.11213238949E+02  0.34885884742E+02  0.00000000000E+00 0. -1.
         11    1    4    4    0    0 -0.44473085609E+02 -0.39548572207E+01 -0.58183082068E+02  0.73340079617E+02  0.00000000000E+00 0.  1.
        -13    1    3    3    0    0 -0.29555577185E+02 -0.51628894183E+01  0.51262033449E+01  0.30437896291E+02  0.00000000000E+00 0.  1.
         13    1    3    3    0    0  0.60074920581E+02  0.11380468444E+02 -0.31387679916E+02  0.68729161171E+02  0.00000000000E+00 0. -1.
          3    1    1    2  501    0 -0.13266335220E+02 -0.20980510429E+02 -0.50974179372E+02  0.56696952570E+02  0.00000000000E+00 0. -1.
<scales pt_clust_5="13000.00000" pt_clust_6="13000.00000" pt_clust_7="13000.00000" pt_clust_8="13000.00000" pt_clust_9="24.82292"></scales>
<clustering>
<clus scale="   24.823">  2  9  1 -1</clus>
<clus scale="   90.412">  7  8 -1 -1</clus>
<clus scale="   93.750">  1  7  2 -1</clus>
<clus scale="   94.821">  5  6 -1 -1</clus>
<clus scale="   24.823">  2  5  1 -1</clus>
</clustering>
</event>
<event>
 9    1  0.1636528E-005  0.1292864E+03  0.7546771E-02  0.1229966E+00
         21   -1    0    0  501  502  0.00000000000E+00  0.00000000000E+00  0.32567193369E+02  0.32567193369E+02  0.00000000000E+00 0.  1.
          2   -1    0    0  502    0 -0.00000000000E+00 -0.00000000000E+00 -0.67721359408E+03  0.67721359408E+03  0.00000000000E+00 0. -1.
         23    2    1    2    0    0  0.79866379052E+02 -0.33882082845E+00 -0.24349762741E+03  0.27237384737E+03  0.92291196075E+02 0.  0.
         23    2    1    2    0    0 -0.97872222227E+02 -0.34275673928E+02 -0.30596979981E+03  0.33454095625E+03  0.86869668486E+02 0.  0.
        -11    1    3    3    0    0  0.70554987616E+02 -0.29314134597E+02 -0.10089020900E+03  0.12655496449E+03  0.00000000000E+00 0.  1.
         11    1    3    3    0    0  0.93113914352E+01  0.28975313769E+02 -0.14260741841E+03  0.14581888288E+03  0.00000000000E+00 0. -1.
        -13    1    4    4    0    0 -0.51176893032E+02 -0.25209878380E+02 -0.55491165896E+02  0.79585688669E+02  0.00000000000E+00 0.  1.
         13    1    4    4    0    0 -0.46695329195E+02 -0.90657955474E+01 -0.25047863392E+03  0.25495526758E+03  0.00000000000E+00 0. -1.
          2    1    1    2  501    0  0.18005843175E+02  0.34614494756E+02 -0.95178973487E+02  0.10286598383E+03  0.00000000000E+00 0. -1.
<scales pt_clust_5="13000.00000" pt_clust_6="13000.00000" pt_clust_7="13000.00000" pt_clust_8="13000.00000" pt_clust_9="39.01763"></scales>
<clustering>
<clus scale="   39.018">  1  9  2 -1</clus>
<clus scale="   86.870">  7  8 -1 -1</clus>
<clus scale="   92.291">  5  6 -1 -1</clus>
<clus scale="  125.474">  1  7  2 -1</clus>
<clus scale="   39.018">  1  5  2 -1</clus>
</clustering>
</event>
<event>
 9    1  0.1636528E-005  0.2003463E+03  0.7546771E-02  0.1149731E+00
          2   -1    0    0  502    0 -0.00000000000E+00  0.00000000000E+00  0.15163392499E+04  0.15163392499E+04  0.00000000000E+00 0. -1.
         21   -1    0    0  501  502  0.00000000000E+00 -0.00000000000E+00 -0.48790040433E+02  0.48790040433E+02  0.00000000000E+00 0. -1.
         23    2    1    2    0    0  0.11716704580E+03  0.78195700844E+02  0.52026287383E+03  0.54673654486E+03  0.91677191016E+02 0.  0.
         23    2    1    2    0    0 -0.16456489664E+03 -0.16011081435E+03  0.84004757291E+03  0.87536549521E+03  0.88700323411E+02 0.  0.
        -13    1    4    4    0    0 -0.11082690033E+03 -0.13364618785E+03  0.72682156853E+03  0.74727069918E+03  0.00000000000E+00 0.  1.
         13    1    4    4    0    0 -0.53737996314E+02 -0.26464626502E+02  0.11322600438E+03  0.12809479604E+03  0.00000000000E+00 0. -1.
        -13    1    3    3    0    0  0.36677440343E+02  0.70066490036E+02  0.34122079689E+03  0.35026587028E+03  0.00000000000E+00 0.  1.
         13    1    3    3    0    0  0.80489605454E+02  0.81292108077E+01  0.17904207694E+03  0.19647067457E+03  0.00000000000E+00 0. -1.
          2    1    1    2  501    0  0.47397850847E+02  0.81915113504E+02  0.10723876273E+03  0.14302725026E+03  0.00000000000E+00 0. -1.
<scales pt_clust_5="13000.00000" pt_clust_6="13000.00000" pt_clust_7="13000.00000" pt_clust_8="13000.00000" pt_clust_9="94.63954"></scales>
<clustering>
<clus scale="   88.700">  5  6 -1 -1</clus>
<clus scale="   91.677">  7  8 -1 -1</clus>
<clus scale="   94.640">  2  9  1 -1</clus>
<clus scale="  199.002">  2  5  1 -1</clus>
<clus scale="   94.640">  2  5  1 -1</clus>
</clustering>
</event>
<event>
 9    1  0.1636528E-005  0.2461703E+03  0.7546771E-02  0.1115970E+00
         21   -1    0    0  501  502  0.00000000000E+00  0.00000000000E+00  0.30309006392E+03  0.30309006392E+03  0.00000000000E+00 0.  1.
          3   -1    0    0  502    0 -0.00000000000E+00 -0.00000000000E+00 -0.35334320079E+03  0.35334320079E+03  0.00000000000E+00 0. -1.
         23    2    1    2    0    0 -0.15171951500E+03 -0.15693744798E+03 -0.14163472093E+03  0.27593715985E+03  0.91829996190E+02 0.  0.
         23    2    1    2    0    0  0.18622850154E+03  0.16260647231E+03 -0.20518040023E+02  0.26325902088E+03  0.88104497525E+02 0.  0.
        -11    1    3    3    0    0 -0.13046516674E+03 -0.11431405065E+03 -0.14782744293E+03  0.22790746980E+03  0.00000000000E+00 0. -1.
         11    1    3    3    0    0 -0.21254348257E+02 -0.42623397337E+02  0.61927219953E+01  0.48029690048E+02  0.00000000000E+00 0.  1.
        -13    1    4    4    0    0  0.26054777533E+02  0.43457536686E+02 -0.37310042012E+02  0.62924146097E+02  0.00000000000E+00 0. -1.
         13    1    4    4    0    0  0.16017372401E+03  0.11914893562E+03  0.16792001988E+02  0.20033487478E+03  0.00000000000E+00 0.  1.
          3    1    1    2  501    0 -0.34508986537E+02 -0.56690243264E+01  0.11189962409E+03  0.11723708398E+03  0.00000000000E+00 0. -1.
<scales pt_clust_5="13000.00000" pt_clust_6="13000.00000" pt_clust_7="13000.00000" pt_clust_8="13000.00000" pt_clust_9="34.97153"></scales>
<clustering>
<clus scale="   34.972">  1  9  2 -1</clus>
<clus scale="   88.104">  7  8 -1 -1</clus>
<clus scale="   91.830">  5  6 -1 -1</clus>
<clus scale="  244.805">  1  7  2 -1</clus>
<clus scale="   34.972">  1  5  2 -1</clus>
</clustering>
</event>
<event>
 9    1  0.1636528E-005  0.9489863E+02  0.7546771E-02  0.1291748E+00
          1   -1    0    0  502    0 -0.00000000000E+00  0.00000000000E+00  0.16278266419E+03  0.16278266419E+03  0.00000000000E+00 0. -1.
         21   -1    0    0  501  502  0.00000000000E+00 -0.00000000000E+00 -0.11237000562E+03  0.11237000562E+03  0.00000000000E+00 0.  1.
         23    2    1    2    0    0  0.26263166206E+02 -0.12993710952E+02  0.97851313726E+02  0.13501393193E+03  0.88290949667E+02 0.  0.
         23    2    1    2    0    0 -0.50659629301E+02 -0.74776546686E+00 -0.28217174940E+02  0.10617580387E+03  0.88938940688E+02 0.  0.
        -13    1    3    3    0    0  0.50265775063E+02 -0.34101939298E+02  0.69332996541E+02  0.92177300980E+02  0.00000000000E+00 0. -1.
         13    1    3    3    0    0 -0.24002608857E+02  0.21108228346E+02  0.28518317185E+02  0.42836630948E+02  0.00000000000E+00 0.  1.
        -13    1    4    4    0    0 -0.26347466876E+02  0.35101700285E+02  0.13619849303E+02  0.45954528272E+02  0.00000000000E+00 0.  1.
         13    1    4    4    0    0 -0.24312162425E+02 -0.35849465752E+02 -0.41837024243E+02  0.60221275593E+02  0.00000000000E+00 0. -1.
          1    1    1    2  501    0  0.24396463095E+02  0.13741476419E+02 -0.19221480210E+02  0.33962934019E+02  0.00000000000E+00 0. -1.
<scales pt_clust_5="13000.00000" pt_clust_6="13000.00000" pt_clust_7="13000.00000" pt_clust_8="13000.00000" pt_clust_9="28.00028"></scales>
<clustering>
<clus scale="   28.000">  2  9  1 -1</clus>
<clus scale="   88.291">  5  6 -1 -1</clus>
<clus scale="   88.939">  7  8 -1 -1</clus>
<clus scale="   94.292">  1  5  2 -1</clus>
<clus scale="   28.000">  2  5  1 -1</clus>
</clustering>
</event>
<event>
 9    1  0.1636528E-005  0.1433954E+03  0.7546771E-02  0.1211437E+00
          1   -1    0    0  502    0 -0.00000000000E+00  0.00000000000E+00  0.85399502451E+03  0.85399502451E+03  0.00000000000E+00 0. -1.
         21   -1    0    0  501  502  0.00000000000E+00 -0.00000000000E+00 -0.41896810872E+02  0.41896810872E+02  0.00000000000E+00 0.  1.
         23    2    1    2    0    0 -0.76022840104E+02  0.93993327828E+02  0.62166878905E+03  0.63899561656E+03  0.85024095464E+02 0.  0.
         23    2    1    2    0    0  0.46921334171E+02 -0.48194914218E+02  0.13601094156E+03  0.18004725245E+03  0.96920975724E+02 0.  0.
        -11    1    4    4    0    0  0.12011942912E+02  0.27266488172E+02  0.15358922335E+02  0.33520809134E+02  0.00000000000E+00 0.  1.
         11    1    4    4    0    0  0.34909391259E+02 -0.75461402390E+02  0.12065201922E+03  0.14652644332E+03  0.00000000000E+00 0. -1.
        -13    1    3    3    0    0 -0.83398308052E+02  0.55129159364E+02  0.52692973377E+03  0.53632960606E+03  0.00000000000E+00 0.  1.
         13    1    3    3    0    0  0.73754679483E+01  0.38864168464E+02  0.94739055275E+02  0.10266601050E+03  0.00000000000E+00 0. -1.
          1    1    1    2  501    0  0.29101505933E+02 -0.45798413610E+02  0.54418483029E+02  0.76848966369E+02  0.00000000000E+00 0. -1.
<scales pt_clust_5="13000.00000" pt_clust_6="13000.00000" pt_clust_7="13000.00000" pt_clust_8="13000.00000" pt_clust_9="54.26226"></scales>
<clustering>
<clus scale="   54.262">  2  9  1 -1</clus>
<clus scale="   85.024">  7  8 -1 -1</clus>
<clus scale="   96.921">  5  6 -1 -1</clus>
<clus scale="  135.638">  1  7  2 -1</clus>
<clus scale="   54.262">  2  5  1 -1</clus>
</clustering>
</event>
<event>
 9    1  0.1636528E-005  0.1300290E+03  0.7546771E-02  0.1231530E+00
         21   -1    0    0  501  502  0.00000000000E+00  0.00000000000E+00  0.69041395351E+02  0.69041395351E+02  0.00000000000E+00 0. -1.
          2   -1    0    0  502    0 -0.00000000000E+00 -0.00000000000E+00 -0.34793624020E+03  0.34793624020E+03  0.00000000000E+00 0. -1.
         23    2    1    2    0    0 -0.40143360503E+02  0.44653412372E+02 -0.19004103490E+03  0.23144250151E+03  0.11766316301E+03 0.  0.
         23    2    1    2    0    0  0.11482521209E+02 -0.52018192569E+02 -0.98852615890E+02  0.15429958032E+03  0.10582428912E+03 0.  0.
        -11    1    4    4    0    0  0.44859064382E+02  0.50519344609E+01 -0.67312073875E+02  0.81047967207E+02  0.00000000000E+00 0.  1.
         11    1    4    4    0    0 -0.33376543173E+02 -0.57070127030E+02 -0.31540542015E+02  0.73251613116E+02  0.00000000000E+00 0. -1.
        -13    1    3    3    0    0  0.26482844730E+02  0.24765924926E+02 -0.87850458760E+01  0.37307762376E+02  0.00000000000E+00 0.  1.
         13    1    3    3    0    0 -0.66626205234E+02  0.19887487447E+02 -0.18125598902E+03  0.19413473913E+03  0.00000000000E+00 0. -1.
          2    1    1    2  501    0  0.28660839295E+02  0.73647801969E+01  0.99988059355E+01  0.31235553726E+02  0.00000000000E+00 0. -1.
<scales pt_clust_5="13000.00000" pt_clust_6="13000.00000" pt_clust_7="13000.00000" pt_clust_8="13000.00000" pt_clust_9="29.59195"></scales>
<clustering>
<clus scale="   29.592">  1  9  2 -1</clus>
<clus scale="  105.824">  5  6 -1 -1</clus>
<clus scale="  117.663">  7  8 -1 -1</clus>
<clus scale="  119.422">  1  5  2 -1</clus>
<clus scale="   29.592">  1  5  2 -1</clus>
</clustering>
</event>
<event>
 9    1  0.1636528E-005  0.9676466E+02  0.7546771E-02  0.1288427E+00
         21   -1    0    0  501  502  0.00000000000E+00  0.00000000000E+00  0.43868742846E+02  0.43868742846E+02  0.00000000000E+00 0. -1.
          1   -1    0    0  502    0 -0.00000000000E+00 -0.00000000000E+00 -0.49059482119E+03  0.49059482119E+03  0.00000000000E+00 0. -1.
         23    2    1    2    0    0 -0.99762407831E+00  0.44754236083E+02 -0.31535031101E+03  0.33133890988E+03  0.91300151397E+02 0.  0.
         23    2    1    2    0    0 -0.95116623702E+01 -0.10605030121E+02 -0.13984647860E+03  0.16640454633E+03  0.89053338387E+02 0.  0.
        -13    1    4    4    0    0 -0.41193593194E+02 -0.21179145078E+02 -0.11728064663E+03  0.12609606806E+03  0.00000000000E+00 0. -1.
         13    1    4    4    0    0  0.31681930823E+02  0.10574114957E+02 -0.22565831966E+02  0.40308478267E+02  0.00000000000E+00 0.  1.
        -13    1    3    3    0    0  0.39900858676E+02  0.27051141675E+02 -0.95043427169E+02  0.10656967597E+03  0.00000000000E+00 0.  1.
         13    1    3    3    0    0 -0.40898482754E+02  0.17703094408E+02 -0.22030688384E+03  0.22476923391E+03  0.00000000000E+00 0. -1.
          1    1    1    2  501    0  0.10509286449E+02 -0.34149205962E+02  0.84707112652E+01  0.36720107827E+02  0.00000000000E+00 0. -1.
<scales pt_clust_5="13000.00000" pt_clust_6="13000.00000" pt_clust_7="13000.00000" pt_clust_8="13000.00000" pt_clust_9="35.72973"></scales>
<clustering>
<clus scale="   35.730">  1  9  2 -1</clus>
<clus scale="   89.053">  5  6 -1 -1</clus>
<clus scale="   91.300">  7  8 -1 -1</clus>
<clus scale="   94.648">  1  5  2 -1</clus>
<clus scale="   35.730">  1  5  2 -1</clus>
</clustering>
</event>
<event>
 9    1  0.1636528E-005  0.9892418E+02  0.7546771E-02  0.1284196E+00
         -1   -1    0    0    0  501 -0.00000000000E+00  0.00000000000E+00  0.17223157768E+03  0.17223157768E+03  0.00000000000E+00 0.  1.
         21   -1    0    0  501  502  0.00000000000E+00 -0.00000000000E+00 -0.12005838642E+03  0.12005838642E+03  0.00000000000E+00 0.  1.
         23    2    1    2    0    0 -0.30264292568E+02 -0.36084960134E+02  0.45595319265E+02  0.11368959681E+03  0.92888855794E+02 0.  0.
         23    2    1    2    0    0 -0.43596461223E+02  0.30995979381E+02  0.45994543855E+01  0.10453807721E+03  0.89697560932E+02 0.  0.
        -11    1    4    4    0    0  0.11337288468E+02 -0.20640732881E+02  0.15741977692E+02  0.28326380378E+02  0.00000000000E+00 0. -1.
         11    1    4    4    0    0 -0.54933749692E+02  0.51636712262E+02 -0.11142523306E+02  0.76211696832E+02  0.00000000000E+00 0.  1.
        -13    1    3    3    0    0  0.18388772679E+02 -0.12189322927E+02 -0.19175273518E+02  0.29230423681E+02  0.00000000000E+00 0. -1.
         13    1    3    3    0    0 -0.48653065248E+02 -0.23895637207E+02  0.64770592784E+02  0.84459173126E+02  0.00000000000E+00 0.  1.
         -1    1    1    2    0  502  0.73860753792E+02  0.50889807532E+01  0.19784176053E+01  0.74062290081E+02  0.00000000000E+00 0.  1.
<scales pt_clust_5="13000.00000" pt_clust_6="13000.00000" pt_clust_7="13000.00000" pt_clust_8="13000.00000" pt_clust_9="74.03586"></scales>
<clustering>
<clus scale="   74.036">  2  9  1 -1</clus>
<clus scale="   89.698">  5  6 -1 -1</clus>
<clus scale="   92.889">  7  8 -1 -1</clus>
<clus scale="   95.934">  2  5  1 -1</clus>
<clus scale="   74.036">  2  5  1 -1</clus>
</clustering>
</event>
<event>
 9    1  0.1636528E-005  0.9369322E+02  0.7546771E-02  0.1294356E+00
         21   -1    0    0  501  502  0.00000000000E+00  0.00000000000E+00  0.12634304203E+03  0.12634304203E+03  0.00000000000E+00 0.  1.
          2   -1    0    0  502    0 -0.00000000000E+00 -0.00000000000E+00 -0.17922785042E+03  0.17922785042E+03  0.00000000000E+00 0. -1.
         23    2    1    2    0    0 -0.97175395453E+01 -0.26969875978E+02 -0.13283338924E+03  0.16293918514E+03  0.89903637148E+02 0.  0.
         23    2    1    2    0    0  0.12174806391E+02  0.74281931354E-01  0.60819109854E+02  0.10953566827E+03  0.90282152564E+02 0.  0.
        -11    1    3    3    0    0  0.24652239574E+02 -0.26198606457E+02 -0.12965472413E+02  0.38238767909E+02  0.00000000000E+00 0.  1.
         11    1    3    3    0    0 -0.34369779120E+02 -0.77126952091E+00 -0.11986791683E+03  0.12470041723E+03  0.00000000000E+00 0. -1.
        -13    1    4    4    0    0  0.79012006766E+01 -0.41611887214E+02  0.51368523783E+02  0.66578550340E+02  0.00000000000E+00 0.  1.
         13    1    4    4    0    0  0.42736057149E+01  0.41686169145E+02  0.94505860702E+01  0.42957117930E+02  0.00000000000E+00 0. -1.
          2    1    1    2  501    0 -0.24572668462E+01  0.26895594047E+02  0.19129470996E+02  0.33096039039E+02  0.00000000000E+00 0. -1.
<scales pt_clust_5="13000.00000" pt_clust_6="13000.00000" pt_clust_7="13000.00000" pt_clust_8="13000.00000" pt_clust_9="27.00761"></scales>
<clustering>
<clus scale="   27.008">  1  9  2 -1</clus>
<clus scale="   89.904">  5  6 -1 -1</clus>
<clus scale="   90.282">  7  8 -1 -1</clus>
<clus scale="   93.329">  2  5  1 -1</clus>
<clus scale="   27.008">  1  5  2 -1</clus>
</clustering>
</event>
<event>
 9    1  0.1636528E-005  0.1099528E+03  0.7546771E-02  0.1260981E+00
         -3   -1    0    0    0  501 -0.00000000000E+00  0.00000000000E+00  0.36425075522E+02  0.36425075522E+02  0.00000000000E+00 0.  1.
         21   -1    0    0  501  502  0.00000000000E+00 -0.00000000000E+00 -0.54870276630E+03  0.54870276630E+03  0.00000000000E+00 0. -1.
         23    2    1    2    0    0 -0.52395172115E+02  0.44410311126E+02 -0.11048332156E+03  0.15863374929E+03  0.90777597869E+02 0.  0.
         23    2    1    2    0    0  0.47183903313E+02 -0.63797319409E+01 -0.31762768421E+03  0.33398726500E+03  0.91614003803E+02 0.  0.
        -13    1    3    3    0    0  0.11645604214E+02  0.26898007018E+02  0.49170826451E+00  0.29314922072E+02  0.00000000000E+00 0. -1.
         13    1    3    3    0    0 -0.64040776328E+02  0.17512304108E+02 -0.11097502983E+03  0.12931882722E+03  0.00000000000E+00 0.  1.
        -13    1    4    4    0    0  0.51133635514E+02  0.24717357869E+02 -0.27651500943E+03  0.28228734811E+03  0.00000000000E+00 0. -1.
         13    1    4    4    0    0 -0.39497322009E+01 -0.31097089810E+02 -0.41112674784E+02  0.51699916895E+02  0.00000000000E+00 0.  1.
         -3    1    1    2    0  502  0.52112688015E+01 -0.38030579185E+02 -0.84166685006E+02  0.92506827535E+02  0.00000000000E+00 0.  1.
<scales pt_clust_5="13000.00000" pt_clust_6="13000.00000" pt_clust_7="13000.00000" pt_clust_8="13000.00000" pt_clust_9="38.38596"></scales>
<clustering>
<clus scale="   38.386">  2  9  1 -1</clus>
<clus scale="   90.778">  5  6 -1 -1</clus>
<clus scale="   91.614">  7  8 -1 -1</clus>
<clus scale="  109.257">  1  5  2 -1</clus>
<clus scale="   38.386">  2  5  1 -1</clus>
</clustering>
</event>
<event>
 9    1  0.1636528E-005  0.1397929E+03  0.7546771E-02  0.1233673E+00
         21   -1    0    0  501  502  0.00000000000E+00  0.00000000000E+00  0.10858190471E+03  0.10858190471E+03  0.00000000000E+00 0. -1.
          2   -1    0    0  502    0 -0.00000000000E+00 -0.00000000000E+00 -0.61329183451E+03  0.61329183451E+03  0.00000000000E+00 0. -1.
         23    2    1    2    0    0 -0.43792299935E+01  0.16094718679E+02 -0.23471996441E+03  0.25209243538E+03  0.90437363174E+02 0.  0.
         23    2    1    2    0    0  0.10054129733E+03 -0.45093064348E+02 -0.32412752319E+03  0.35568081124E+03  0.96479278977E+02 0.  0.
        -13    1    4    4    0    0  0.20697222734E+02  0.29473887888E+02 -0.62054925402E+02  0.71748859662E+02  0.00000000000E+00 0.  1.
         13    1    4    4    0    0  0.79844074598E+02 -0.74566952236E+02 -0.26207259779E+03  0.28393195158E+03  0.00000000000E+00 0. -1.
        -13    1    3    3    0    0  0.31153480007E+02  0.33889803332E+02 -0.17020604361E+03  0.17632117107E+03  0.00000000000E+00 0. -1.
         13    1    3    3    0    0 -0.35532710000E+02 -0.17795084653E+02 -0.64513920794E+02  0.75771264303E+02  0.00000000000E+00 0.  1.
          2    1    1    2  501    0 -0.96162067338E+02  0.28998345668E+02  0.54137557803E+02  0.11410049260E+03  0.00000000000E+00 0. -1.
<scales pt_clust_5="13000.00000" pt_clust_6="13000.00000" pt_clust_7="13000.00000" pt_clust_8="13000.00000" pt_clust_9="101.16227"></scales>
<clustering>
<clus scale="   90.437">  7  8 -1 -1</clus>
<clus scale="   91.963">  2  7  1 -1</clus>
<clus scale="   96.479">  5  6 -1 -1</clus>
<clus scale="  101.162">  1  9  2 -1</clus>
<clus scale="  101.162">  1  5  2 -1</clus>
</clustering>
</event>
<event>
 9    1  0.1636528E-005  0.1034962E+03  0.7546771E-02  0.1273877E+00
         21   -1    0    0  501  502  0.00000000000E+00  0.00000000000E+00  0.10788812640E+03  0.10788812640E+03  0.00000000000E+00 0. -1.
          1   -1    0    0  502    0 -0.00000000000E+00 -0.00000000000E+00 -0.31213092383E+03  0.31213092383E+03  0.00000000000E+00 0. -1.
         23    2    1    2    0    0  0.54011757568E+02  0.18570081031E+02 -0.14967781787E+03  0.18538624283E+03  0.93287148114E+02 0.  0.
         23    2    1    2    0    0 -0.34705561761E+02  0.27419293963E+02 -0.11679373245E+03  0.15488213659E+03  0.91604621041E+02 0.  0.
        -11    1    4    4    0    0 -0.31340241470E+02 -0.30441505808E+02 -0.47285092578E+02  0.64379934695E+02  0.00000000000E+00 0.  1.
         11    1    4    4    0    0 -0.33653202914E+01  0.57860799771E+02 -0.69508639872E+02  0.90502201894E+02  0.00000000000E+00 0. -1.
        -13    1    3    3    0    0  0.69825804863E+02  0.29154691392E+01 -0.57322688495E+02  0.90388238181E+02  0.00000000000E+00 0. -1.
         13    1    3    3    0    0 -0.15814047296E+02  0.15654611892E+02 -0.92355129378E+02  0.94998004652E+02  0.00000000000E+00 0.  1.
          1    1    1    2  501    0 -0.19306195806E+02 -0.45989374994E+02  0.62228752888E+02  0.79750670812E+02  0.00000000000E+00 0. -1.
<scales pt_clust_5="13000.00000" pt_clust_6="13000.00000" pt_clust_7="13000.00000" pt_clust_8="13000.00000" pt_clust_9="49.87737"></scales>
<clustering>
<clus scale="   49.877">  1  9  2 -1</clus>
<clus scale="   91.605">  5  6 -1 -1</clus>
<clus scale="   93.287">  7  8 -1 -1</clus>
<clus scale="  101.982">  1  5  2 -1</clus>
<clus scale="   49.877">  1  5  2 -1</clus>
</clustering>
</event>
<event>
 9    1  0.1636528E-005  0.1826721E+03  0.7546771E-02  0.1190780E+00
         -1   -1    0    0    0  501 -0.00000000000E+00  0.00000000000E+00  0.34279210999E+03  0.34279210999E+03  0.00000000000E+00 0.  1.
         21   -1    0    0  501  502  0.00000000000E+00 -0.00000000000E+00 -0.15717276459E+03  0.15717276459E+03  0.00000000000E+00 0. -1.
         23    2    1    2    0    0 -0.45870184757E+01  0.48507878895E+02  0.10034607275E+03  0.14356719721E+03  0.90377822193E+02 0.  0.
         23    2    1    2    0    0  0.15286741815E+03  0.25041596769E+02  0.32384968544E+02  0.18263411672E+03  0.91164166759E+02 0.  0.
        -13    1    4    4    0    0  0.12295855587E+03  0.50264161179E+02  0.15916830701E+01  0.13284511965E+03  0.00000000000E+00 0. -1.
         13    1    4    4    0    0  0.29908862279E+02 -0.25222564410E+02  0.30793285474E+02  0.49788997063E+02  0.00000000000E+00 0.  1.
        -13    1    3    3    0    0 -0.14054316335E+02  0.20773627139E+02  0.10991392670E+03  0.11273925082E+03  0.00000000000E+00 0.  1.
         13    1    3    3    0    0  0.94672978596E+01  0.27734251755E+02 -0.95678539528E+01  0.30827946387E+02  0.00000000000E+00 0. -1.
         -1    1    1    2    0  502 -0.14828039967E+03 -0.73549475664E+02  0.52888304102E+02  0.17376356065E+03  0.00000000000E+00 0.  1.
<scales pt_clust_5="13000.00000" pt_clust_6="13000.00000" pt_clust_7="13000.00000" pt_clust_8="13000.00000" pt_clust_9="158.29782"></scales>
<clustering>
<clus scale="   90.378">  7  8 -1 -1</clus>
<clus scale="   91.164">  5  6 -1 -1</clus>
<clus scale="  102.675">  1  7  2 -1</clus>
<clus scale="  158.298">  2  9  1 -1</clus>
<clus scale="  158.298">  2  5  1 -1</clus>
</clustering>
</event>
<event>
 9    1  0.1636528E-005  0.1054604E+03  0.7546771E-02  0.1270779E+00
         21   -1    0    0  501  502  0.00000000000E+00  0.00000000000E+00  0.30940925443E+03  0.30940925443E+03  0.00000000000E+00 0.  1.
         -2   -1    0    0    0  501 -0.00000000000E+00 -0.00000000000E+00 -0.76764324095E+02  0.76764324095E+02  0.00000000000E+00 0.  1.
         23    2    1    2    0    0  0.29373017543E+02  0.33073298978E+02  0.50960539293E+02  0.11496847843E+03  0.93081454660E+02 0.  0.
         23    2    1    2    0    0 -0.75327034647E+02  0.26847415470E+02  0.78796525032E+02  0.14357995885E+03  0.89506236425E+02 0.  0.
        -11    1    4    4    0    0 -0.82578498716E+02  0.49470969065E+02  0.63764258976E+02  0.11546629791E+03  0.00000000000E+00 0.  1.
         11    1    4    4    0    0  0.72514640691E+01 -0.22623553595E+02  0.15032266056E+02  0.28113660935E+02  0.00000000000E+00 0. -1.
        -13    1    3    3    0    0 -0.99058093133E+00  0.57765900144E+02  0.49045877593E+02  0.75785081507E+02  0.00000000000E+00 0.  1.
         13    1    3    3    0    0  0.30363598474E+02 -0.24692601166E+02  0.19146616996E+01  0.39183396919E+02  0.00000000000E+00 0. -1.
         -2    1    1    2    0  502  0.45954017105E+02 -0.59920714448E+02  0.10288786601E+03  0.12762514126E+03  0.00000000000E+00 0.  1.
<scales pt_clust_5="13000.00000" pt_clust_6="13000.00000" pt_clust_7="13000.00000" pt_clust_8="13000.00000" pt_clust_9="75.51333"></scales>
<clustering>
<clus scale="   75.513">  1  9  2 -1</clus>
<clus scale="   89.506">  5  6 -1 -1</clus>
<clus scale="   93.081">  7  8 -1 -1</clus>
<clus scale="  102.319">  1  5  2 -1</clus>
<clus scale="   75.513">  1  5  2 -1</clus>
</clustering>
</event>
<event>
 9    1  0.1636528E-005  0.1137405E+03  0.7546771E-02  0.1254045E+00
          1   -1    0    0  502    0 -0.00000000000E+00  0.00000000000E+00  0.66390241907E+03  0.66390241907E+03  0.00000000000E+00 0. -1.
         21   -1    0    0  501  502  0.00000000000E+00 -0.00000000000E+00 -0.48629698285E+02  0.48629698285E+02  0.00000000000E+00 0. -1.
         23    2    1    2    0    0 -0.73948500398E+02 -0.35646309230E+02  0.28026898207E+03  0.30604745268E+03  0.91516670106E+02 0.  0.
         23    2    1    2    0    0 -0.97525288365E+01  0.76050864717E+02  0.10568846937E+03  0.15905006089E+03  0.90818629515E+02 0.  0.
        -11    1    3    3    0    0  0.15005800525E+02  0.14116373164E+02  0.38370116288E+02  0.43551255604E+02  0.00000000000E+00 0.  1.
         11    1    3    3    0    0 -0.88954300923E+02 -0.49762682394E+02  0.24189886578E+03  0.26249619707E+03  0.00000000000E+00 0. -1.
        -11    1    4    4    0    0 -0.22751476837E+02 -0.12965968580E+02  0.10890568396E+02  0.28361074018E+02  0.00000000000E+00 0.  1.
         11    1    4    4    0    0  0.12998948001E+02  0.89016833296E+02  0.94797900977E+02  0.13068898687E+03  0.00000000000E+00 0. -1.
          1    1    1    2  501    0  0.83701029234E+02 -0.40404555487E+02  0.22931526934E+03  0.24743460379E+03  0.00000000000E+00 0. -1.
<scales pt_clust_5="13000.00000" pt_clust_6="13000.00000" pt_clust_7="13000.00000" pt_clust_8="13000.00000" pt_clust_9="92.94299"></scales>
<clustering>
<clus scale="   90.819">  7  8 -1 -1</clus>
<clus scale="   91.517">  5  6 -1 -1</clus>
<clus scale="   92.943">  2  9  1 -1</clus>
<clus scale="  113.180">  2  7  1 -1</clus>
<clus scale="   92.943">  2  5  1 -1</clus>
</clustering>
</event>
<event>
 9    1  0.1636528E-005  0.1453247E+03  0.7546771E-02  0.1210115E+00
          2   -1    0    0  502    0 -0.00000000000E+00  0.00000000000E+00  0.27020757250E+03  0.27020757250E+03  0.00000000000E+00 0. -1.
         21   -1    0    0  501  502  0.00000000000E+00 -0.00000000000E+00 -0.15514674394E+03  0.15514674394E+03  0.00000000000E+00 0. -1.
         23    2    1    2    0    0  0.25969827633E+02 -0.91918304770E+02  0.18082959933E+03  0.22328036677E+03  0.89617919481E+02 0.  0.
         23    2    1    2    0    0 -0.44822089706E+02  0.11409405018E+03 -0.57600822498E+02  0.17184338817E+03  0.10576305260E+03 0.  0.
        -13    1    4    4    0    0 -0.39139346652E+02  0.49186454897E+02  0.24120095639E+02  0.67327370477E+02  0.00000000000E+00 0. -1.
         13    1    4    4    0    0 -0.56827430535E+01  0.64907595279E+02 -0.81720918136E+02  0.10451601769E+03  0.00000000000E+00 0.  1.
        -13    1    3    3    0    0 -0.56491425663E+01 -0.88524607877E+02  0.16595199047E+03  0.18817168265E+03  0.00000000000E+00 0. -1.
         13    1    3    3    0    0  0.31618970200E+02 -0.33936968934E+01  0.14877608860E+02  0.35108684118E+02  0.00000000000E+00 0.  1.
          2    1    1    2  501    0  0.18852262073E+02 -0.22175745406E+02 -0.81679482673E+01  0.30230561497E+02  0.00000000000E+00 0. -1.
<scales pt_clust_5="13000.00000" pt_clust_6="13000.00000" pt_clust_7="13000.00000" pt_clust_8="13000.00000" pt_clust_9="29.10621"></scales>
<clustering>
<clus scale="   29.106">  2  9  1 -1</clus>
<clus scale="   89.618">  7  8 -1 -1</clus>
<clus scale="  105.763">  5  6 -1 -1</clus>
<clus scale="  134.033">  1  7  2 -1</clus>
<clus scale="   29.106">  2  5  1 -1</clus>
</clustering>
</event>
<event>
 9    1  0.1636528E-005  0.1157230E+03  0.7546771E-02  0.1258729E+00
         21   -1    0    0  501  502  0.00000000000E+00  0.00000000000E+00  0.37787807751E+03  0.37787807751E+03  0.00000000000E+00 0. -1.
          3   -1    0    0  502    0 -0.00000000000E+00 -0.00000000000E+00 -0.59822846108E+02  0.59822846108E+02  0.00000000000E+00 0. -1.
         23    2    1    2    0    0 -0.41659225762E+02 -0.12253163965E+01  0.31950981572E+02  0.12301315888E+03  0.11124018852E+03 0.  0.
         23    2    1    2    0    0  0.36951302858E+01  0.20118289444E+01  0.21321151507E+03  0.23249748594E+03  0.92618731202E+02 0.  0.
        -11    1    4    4    0    0 -0.21069118406E+02 -0.32153254775E+02  0.45528511710E+02  0.59586784790E+02  0.00000000000E+00 0. -1.
         11    1    4    4    0    0  0.24764248692E+02  0.34165083719E+02  0.16768300336E+03  0.17291070116E+03  0.00000000000E+00 0.  1.
        -11    1    3    3    0    0  0.19899842730E+02  0.12244172033E+02  0.51898791360E+02  0.56915797756E+02  0.00000000000E+00 0.  1.
         11    1    3    3    0    0 -0.61559068492E+02 -0.13469488430E+02 -0.19947809788E+02  0.66097361124E+02  0.00000000000E+00 0. -1.
          3    1    1    2  501    0  0.37964095476E+02 -0.78651254793E+00  0.72892734764E+02  0.82190278796E+02  0.00000000000E+00 0. -1.
<scales pt_clust_5="13000.00000" pt_clust_6="13000.00000" pt_clust_7="13000.00000" pt_clust_8="13000.00000" pt_clust_9="37.97224"></scales>
<clustering>
<clus scale="   37.972">  1  9  2 -1</clus>
<clus scale="   92.619">  5  6 -1 -1</clus>
<clus scale="   97.957">  1  5  2 -1</clus>
<clus scale="  111.240">  7  8 -1 -1</clus>
<clus scale="   37.972">  1  5  2 -1</clus>
</clustering>
</event>
<event>
 9    1  0.1636528E-005  0.9435029E+02  0.7546771E-02  0.1292747E+00
          1   -1    0    0  502    0 -0.00000000000E+00  0.00000000000E+00  0.42735671393E+03  0.42735671393E+03  0.00000000000E+00 0. -1.
         21   -1    0    0  501  502  0.00000000000E+00 -0.00000000000E+00 -0.42266744039E+02  0.42266744039E+02  0.00000000000E+00 0.  1.
         23    2    1    2    0    0  0.14039264675E+01  0.18806018007E+02  0.23870087583E+03  0.25614824532E+03  0.90984493907E+02 0.  0.
         23    2    1    2    0    0 -0.45899367860E+02 -0.17619888268E+02  0.12959187758E+03  0.16590003330E+03  0.91167723916E+02 0.  0.
        -13    1    3    3    0    0  0.24364084910E+02 -0.11819581625E+02  0.18860217615E+02  0.33000287147E+02  0.00000000000E+00 0.  1.
         13    1    3    3    0    0 -0.22960158442E+02  0.30625599632E+02  0.21984065822E+03  0.22314795817E+03  0.00000000000E+00 0. -1.
        -13    1    4    4    0    0 -0.72720788186E+02 -0.92424477155E+01  0.77268795685E+02  0.10650916703E+03  0.00000000000E+00 0. -1.
         13    1    4    4    0    0  0.26821420326E+02 -0.83774405521E+01  0.52323081892E+02  0.59390866277E+02  0.00000000000E+00 0.  1.
          1    1    1    2  501    0  0.44495441393E+02 -0.11861297390E+01  0.16797216479E+02  0.47575179347E+02  0.00000000000E+00 0. -1.
<scales pt_clust_5="13000.00000" pt_clust_6="13000.00000" pt_clust_7="13000.00000" pt_clust_8="13000.00000" pt_clust_9="44.51125"></scales>
<clustering>
<clus scale="   44.511">  2  9  1 -1</clus>
<clus scale="   90.984">  5  6 -1 -1</clus>
<clus scale="   91.168">  7  8 -1 -1</clus>
<clus scale="   94.173">  1  5  2 -1</clus>
<clus scale="   44.511">  2  5  1 -1</clus>
</clustering>
</event>
<event>
 9    1  0.1636528E-005  0.9528962E+02  0.7546771E-02  0.1291021E+00
         21   -1    0    0  501  502  0.00000000000E+00  0.00000000000E+00  0.78839950811E+02  0.78839950811E+02  0.00000000000E+00 0. -1.
          3   -1    0    0  502    0 -0.00000000000E+00 -0.00000000000E+00 -0.27994035237E+03  0.27994035237E+03  0.00000000000E+00 0. -1.
         23    2    1    2    0    0  0.13378879633E+02  0.69537333294E+01 -0.12817404013E+03  0.15933488159E+03  0.93443411231E+02 0.  0.
         23    2    1    2    0    0 -0.44263642679E+01 -0.26671041385E+02 -0.11623917826E+03  0.15102104891E+03  0.92546601783E+02 0.  0.
        -11    1    4    4    0    0  0.16954301292E+02  0.15494200290E+02 -0.97496164663E+02  0.10016496742E+03  0.00000000000E+00 0.  1.
         11    1    4    4    0    0 -0.21380665560E+02 -0.42165241675E+02 -0.18743013597E+02  0.50856081485E+02  0.00000000000E+00 0. -1.
        -13    1    3    3    0    0 -0.17627256218E+02 -0.22497889603E+02 -0.10861059212E+03  0.11230821839E+03  0.00000000000E+00 0. -1.
         13    1    3    3    0    0  0.31006135851E+02  0.29451622932E+02 -0.19563448008E+02  0.47026663200E+02  0.00000000000E+00 0.  1.
          3    1    1    2  501    0 -0.89525153654E+01  0.19717308055E+02  0.43312816825E+02  0.48424372682E+02  0.00000000000E+00 0. -1.
<scales pt_clust_5="13000.00000" pt_clust_6="13000.00000" pt_clust_7="13000.00000" pt_clust_8="13000.00000" pt_clust_9="21.65456"></scales>
<clustering>
<clus scale="   21.655">  1  9  2 -1</clus>
<clus scale="   92.547">  5  6 -1 -1</clus>
<clus scale="   93.443">  7  8 -1 -1</clus>
<clus scale="   94.410">  1  5  2 -1</clus>
<clus scale="   21.655">  1  5  2 -1</clus>
</clustering>
</event>
<event>
 9    1  0.1636528E-005  0.1207986E+03  0.7546771E-02  0.1243403E+00
          1   -1    0    0  502    0 -0.00000000000E+00  0.00000000000E+00  0.34411768172E+03  0.34411768172E+03  0.00000000000E+00 0. -1.
         21   -1    0    0  501  502  0.00000000000E+00 -0.00000000000E+00 -0.10226191069E+03  0.10226191069E+03  0.00000000000E+00 0. -1.
         23    2    1    2    0    0  0.83538810215E+02  0.23481848808E+02  0.24571058082E+03  0.27563816174E+03  0.89847518839E+02 0.  0.
         23    2    1    2    0    0 -0.41404532886E+02  0.23723534975E+02  0.75555620001E+01  0.10644646844E+03  0.94850528050E+02 0.  0.
        -11    1    3    3    0    0  0.47576512503E+01  0.40627230760E+02  0.11503965737E+03  0.12209557687E+03  0.00000000000E+00 0.  1.
         11    1    3    3    0    0  0.78781158965E+02 -0.17145381952E+02  0.13067092346E+03  0.15354258487E+03  0.00000000000E+00 0. -1.
        -11    1    4    4    0    0 -0.13462329478E+02  0.51195666584E+02  0.30444144185E+02  0.61066164995E+02  0.00000000000E+00 0. -1.
         11    1    4    4    0    0 -0.27942203408E+02 -0.27472131609E+02 -0.22888582185E+02  0.45380303447E+02  0.00000000000E+00 0.  1.
          1    1    1    2  501    0 -0.42134277329E+02 -0.47205383783E+02 -0.11410371796E+02  0.64294962234E+02  0.00000000000E+00 0. -1.
<scales pt_clust_5="13000.00000" pt_clust_6="13000.00000" pt_clust_7="13000.00000" pt_clust_8="13000.00000" pt_clust_9="63.27437"></scales>
<clustering>
<clus scale="   63.274">  2  9  1 -1</clus>
<clus scale="   89.848">  5  6 -1 -1</clus>
<clus scale="   94.851">  7  8 -1 -1</clus>
<clus scale="  116.911">  1  5  2 -1</clus>
<clus scale="   63.274">  2  5  1 -1</clus>
</clustering>
</event>
<event>
 9    1  0.1636528E-005  0.1023088E+03  0.7546771E-02  0.1275795E+00
         -1   -1    0    0    0  501 -0.00000000000E+00  0.00000000000E+00  0.75854231828E+03  0.75854231828E+03  0.00000000000E+00 0.  1.
         21   -1    0    0  501  502  0.00000000000E+00 -0.00000000000E+00 -0.18941964814E+02  0.18941964814E+02  0.00000000000E+00 0. -1.
         23    2    1    2    0    0 -0.87873753977E+01  0.54748906433E+02  0.42343835909E+03  0.43678171892E+03  0.91670962210E+02 0.  0.
         23    2    1    2    0    0 -0.45179071110E+01 -0.33905255588E+02  0.28358343278E+03  0.29980206297E+03  0.91058968649E+02 0.  0.
        -11    1    4    4    0    0  0.27190630882E+02 -0.49503044779E+02  0.12257109692E+03  0.13495760687E+03  0.00000000000E+00 0.  1.
         11    1    4    4    0    0 -0.31708537993E+02  0.15597789191E+02  0.16101233586E+03  0.16484445610E+03  0.00000000000E+00 0. -1.
        -13    1    3    3    0    0 -0.29996631354E+02  0.65212793148E+02  0.38512168190E+03  0.39175402506E+03  0.00000000000E+00 0. -1.
         13    1    3    3    0    0  0.21209255956E+02 -0.10463886715E+02  0.38316677192E+02  0.45027693861E+02  0.00000000000E+00 0.  1.
         -1    1    1    2    0  502  0.13305282509E+02 -0.20843650845E+02  0.32578561595E+02  0.40900501204E+02  0.00000000000E+00 0.  1.
<scales pt_clust_5="13000.00000" pt_clust_6="13000.00000" pt_clust_7="13000.00000" pt_clust_8="13000.00000" pt_clust_9="24.72829"></scales>
<clustering>
<clus scale="   24.728">  2  9  1 -1</clus>
<clus scale="   91.059">  5  6 -1 -1</clus>
<clus scale="   91.671">  7  8 -1 -1</clus>
<clus scale="  101.761">  2  5  1 -1</clus>
<clus scale="   24.728">  2  5  1 -1</clus>
</clustering>
</event>
<event>
 9    1  0.1636528E-005  0.1063010E+03  0.7546771E-02  0.1269178E+00
         -1   -1    0    0    0  501 -0.00000000000E+00  0.00000000000E+00  0.29399683834E+03  0.29399683834E+03  0.00000000000E+00 0.  1.
         21   -1    0    0  501  502  0.00000000000E+00 -0.00000000000E+00 -0.13001333385E+03  0.13001333385E+03  0.00000000000E+00 0.  1.
         23    2    1    2    0    0  0.22438197409E+02  0.11704586270E+02  0.99174105901E+02  0.13483129436E+03  0.87769610996E+02 0.  0.
         23    2    1    2    0    0 -0.11041945838E+03 -0.12168596920E+02  0.11819738561E+03  0.18626534740E+03  0.91562143571E+02 0.  0.
        -13    1    4    4    0    0 -0.96493348695E+02 -0.35748226673E+02  0.12088172121E+03  0.15874914984E+03  0.00000000000E+00 0.  1.
         13    1    4    4    0    0 -0.13926109690E+02  0.23579629753E+02 -0.26843355990E+01  0.27516197557E+02  0.00000000000E+00 0. -1.
        -13    1    3    3    0    0 -0.20097579981E+02  0.20594725105E+02  0.84017924612E+02  0.88809161010E+02  0.00000000000E+00 0.  1.
         13    1    3    3    0    0  0.42535777390E+02 -0.88901388346E+01  0.15156181289E+02  0.46022133348E+02  0.00000000000E+00 0. -1.
         -1    1    1    2    0  502  0.87981260976E+02  0.46401065002E+00 -0.53387987025E+02  0.10291353044E+03  0.00000000000E+00 0.  1.
<scales pt_clust_5="13000.00000" pt_clust_6="13000.00000" pt_clust_7="13000.00000" pt_clust_8="13000.00000" pt_clust_9="87.98248"></scales>
<clustering>
<clus scale="   87.770">  7  8 -1 -1</clus>
<clus scale="   87.982">  2  9  1 -1</clus>
<clus scale="   91.562">  5  6 -1 -1</clus>
<clus scale="  103.052">  1  7  2 -1</clus>
<clus scale="   87.982">  2  5  1 -1</clus>
</clustering>
</event>
<event>
 9    1  0.1636528E-005  0.1427807E+03  0.7546771E-02  0.1210036E+00
         21   -1    0    0  501  502  0.00000000000E+00  0.00000000000E+00  0.13344857218E+03  0.13344857218E+03  0.00000000000E+00 0.  1.
         -1   -1    0    0    0  501 -0.00000000000E+00 -0.00000000000E+00 -0.29251565044E+03  0.29251565044E+03  0.00000000000E+00 0.  1.
         23    2    1    2    0    0  0.11429358072E+03  0.41649797679E+02 -0.15653503022E+03  0.21824735046E+03  0.91274103987E+02 0.  0.
         23    2    1    2    0    0 -0.76766400395E+02 -0.48799910219E+02 -0.56226573669E+02  0.14181910699E+03  0.93148913323E+02 0.  0.
        -11    1    3    3    0    0  0.66507444219E+02  0.53753336556E+02 -0.14384651763E+03  0.16734539719E+03  0.00000000000E+00 0.  1.
         11    1    3    3    0    0  0.47786136499E+02 -0.12103538877E+02 -0.12688512586E+02  0.50901953268E+02  0.00000000000E+00 0. -1.
        -13    1    4    4    0    0  0.11150390812E+02 -0.39802818358E+02 -0.12287385485E+02  0.43122794512E+02  0.00000000000E+00 0.  1.
         13    1    4    4    0    0 -0.87916791207E+02 -0.89970918618E+01 -0.43939188184E+02  0.98696312476E+02  0.00000000000E+00 0. -1.
         -1    1    1    2    0  502 -0.37527180323E+02  0.71501125406E+01  0.53694525624E+02  0.65897765170E+02  0.00000000000E+00 0.  1.
<scales pt_clust_5="13000.00000" pt_clust_6="13000.00000" pt_clust_7="13000.00000" pt_clust_8="13000.00000" pt_clust_9="38.20227"></scales>
<clustering>
<clus scale="   38.202">  1  9  2 -1</clus>
<clus scale="   91.274">  5  6 -1 -1</clus>
<clus scale="   93.149">  7  8 -1 -1</clus>
<clus scale="  141.565">  2  5  1 -1</clus>
<clus scale="   38.202">  1  5  2 -1</clus>
</clustering>
</event>
<event>
 9    1  0.1636528E-005  0.1460038E+03  0.7546771E-02  0.1222754E+00
         21   -1    0    0  501  502  0.00000000000E+00  0.00000000000E+00  0.99278234619E+02  0.99278234619E+02  0.00000000000E+00 0.  1.
          2   -1    0    0  502    0 -0.00000000000E+00 -0.00000000000E+00 -0.40002411015E+03  0.40002411015E+03  0.00000000000E+00 0. -1.
         23    2    1    2    0    0  0.90884033911E+01 -0.37129078867E+02 -0.12426175321E+03  0.16025942662E+03  0.93706632287E+02 0.  0.
         23    2    1    2    0    0 -0.38623152005E+02  0.13839865642E+03 -0.15819349170E+03  0.23198043227E+03  0.90243028388E+02 0.  0.
        -11    1    3    3    0    0  0.48486065130E+02 -0.24387104142E+02 -0.43702510665E+02  0.69681696296E+02  0.00000000000E+00 0. -1.
         11    1    3    3    0    0 -0.39397661739E+02 -0.12741974726E+02 -0.80559242547E+02  0.90577730321E+02  0.00000000000E+00 0.  1.
        -11    1    4    4    0    0 -0.48211871738E+02  0.82473965929E+02 -0.45511582220E+02  0.10581891962E+03  0.00000000000E+00 0.  1.
         11    1    4    4    0    0  0.95887197324E+01  0.55924690491E+02 -0.11268190948E+03  0.12616151266E+03  0.00000000000E+00 0. -1.
          2    1    1    2  501    0  0.29534748614E+02 -0.10126957755E+03 -0.18290630618E+02  0.10706248588E+03  0.00000000000E+00 0. -1.
<scales pt_clust_5="13000.00000" pt_clust_6="13000.00000" pt_clust_7="13000.00000" pt_clust_8="13000.00000" pt_clust_9="114.77503"></scales>
<clustering>
<clus scale="   90.243">  7  8 -1 -1</clus>
<clus scale="   93.707">  5  6 -1 -1</clus>
<clus scale="  101.203">  2  5  1 -1</clus>
<clus scale="  114.775">  1  9  2 -1</clus>
<clus scale="  114.775">  1  5  2 -1</clus>
</clustering>
</event>
<event>
 9    1  0.1636528E-005  0.1049808E+03  0.7546771E-02  0.1270286E+00
         21   -1    0    0  501  502  0.00000000000E+00  0.00000000000E+00  0.34712887312E+02  0.34712887312E+02  0.00000000000E+00 0. -1.
          2   -1    0    0  502    0 -0.00000000000E+00 -0.00000000000E+00 -0.69862962146E+03  0.69862962146E+03  0.00000000000E+00 0. -1.
         23    2    1    2    0    0  0.40857707706E+02 -0.41851630936E+02 -0.45672844438E+03  0.46963219804E+03  0.92372172448E+02 0.  0.
         23    2    1    2    0    0 -0.33447229094E+02  0.13154524191E+02 -0.21156592511E+03  0.23375029037E+03  0.92667680117E+02 0.  0.
        -11    1    4    4    0    0  0.23752660833E+01  0.47682096535E+02 -0.80951035168E+02  0.93980286835E+02  0.00000000000E+00 0.  1.
         11    1    4    4    0    0 -0.35822495177E+02 -0.34527572343E+02 -0.13061488994E+03  0.13977000353E+03  0.00000000000E+00 0. -1.
        -11    1    3    3    0    0  0.12405919386E+02 -0.68917076387E+02 -0.29856650506E+03  0.30666827061E+03  0.00000000000E+00 0. -1.
         11    1    3    3    0    0  0.28451788321E+02  0.27065445451E+02 -0.15816193931E+03  0.16296392743E+03  0.00000000000E+00 0.  1.
          2    1    1    2  501    0 -0.74104786126E+01  0.28697106744E+02  0.43776353422E+01  0.29960020360E+02  0.00000000000E+00 0. -1.
<scales pt_clust_5="13000.00000" pt_clust_6="13000.00000" pt_clust_7="13000.00000" pt_clust_8="13000.00000" pt_clust_9="29.63847"></scales>
<clustering>
<clus scale="   29.638">  1  9  2 -1</clus>
<clus scale="   92.372">  7  8 -1 -1</clus>
<clus scale="   92.668">  5  6 -1 -1</clus>
<clus scale="  104.720">  2  7  1 -1</clus>
<clus scale="   29.638">  1  5  2 -1</clus>
</clustering>
</event>
<event>
 9    1  0.1636528E-005  0.1109717E+03  0.7546771E-02  0.1259816E+00
         21   -1    0    0  501  502  0.00000000000E+00  0.00000000000E+00  0.16495467938E+03  0.16495467938E+03  0.00000000000E+00 0.  1.
         -2   -1    0    0    0  501 -0.00000000000E+00 -0.00000000000E+00 -0.53960587869E+03  0.53960587869E+03  0.00000000000E+00 0.  1.
         23    2    1    2    0    0  0.49644408573E+02  0.58842149446E+02 -0.45416051424E+03  0.46925979420E+03  0.89532205988E+02 0.  0.
         23    2    1    2    0    0  0.74328106823E+00  0.73629311653E+01 -0.30449085374E+02  0.97413557199E+02  0.92236050999E+02 0.  0.
        -13    1    3    3    0    0  0.32271838270E+02  0.80377887340E+02 -0.38793115914E+03  0.39748290599E+03  0.00000000000E+00 0.  1.
         13    1    3    3    0    0  0.17372570304E+02 -0.21535737894E+02 -0.66229355094E+02  0.71776888215E+02  0.00000000000E+00 0. -1.
        -13    1    4    4    0    0 -0.38396805312E+02  0.34228885831E+00  0.11031572349E+02  0.39951563278E+02  0.00000000000E+00 0.  1.
         13    1    4    4    0    0  0.39140086380E+02  0.70206423070E+01 -0.41480657723E+02  0.57461993921E+02  0.00000000000E+00 0. -1.
         -2    1    1    2    0  502 -0.50387689642E+02 -0.66205080611E+02  0.10995840030E+03  0.13788720667E+03  0.00000000000E+00 0.  1.
<scales pt_clust_5="13000.00000" pt_clust_6="13000.00000" pt_clust_7="13000.00000" pt_clust_8="13000.00000" pt_clust_9="83.19875"></scales>
<clustering>
<clus scale="   83.199">  1  9  2 -1</clus>
<clus scale="   89.532">  5  6 -1 -1</clus>
<clus scale="   92.236">  7  8 -1 -1</clus>
<clus scale="  108.735">  2  5  1 -1</clus>
<clus scale="   83.199">  1  5  2 -1</clus>
</clustering>
</event>
<event>
 9    1  0.1636528E-005  0.9617518E+02  0.7546771E-02  0.1289376E+00
         21   -1    0    0  501  502  0.00000000000E+00  0.00000000000E+00  0.11958537606E+03  0.11958537606E+03  0.00000000000E+00 0.  1.
          3   -1    0    0  502    0 -0.00000000000E+00 -0.00000000000E+00 -0.14248790538E+03  0.14248790538E+03  0.00000000000E+00 0. -1.
         23    2    1    2    0    0 -0.19440519104E+02  0.31917939645E+02 -0.77887884269E+02  0.12487495157E+03  0.90169520126E+02 0.  0.
         23    2    1    2    0    0  0.31337952268E+02 -0.28194467757E+01  0.44878608207E+02  0.10417685908E+03  0.88592956608E+02 0.  0.
        -13    1    4    4    0    0  0.59762244428E+02 -0.16970318587E+02  0.27012740854E+02  0.67743676757E+02  0.00000000000E+00 0.  1.
         13    1    4    4    0    0 -0.28424292160E+02  0.14150871812E+02  0.17865867352E+02  0.36433182322E+02  0.00000000000E+00 0. -1.
        -13    1    3    3    0    0 -0.27796731812E+02 -0.26175451321E+02 -0.38299180762E+02  0.54079938963E+02  0.00000000000E+00 0. -1.
         13    1    3    3    0    0  0.83562127076E+01  0.58093390966E+02 -0.39588703507E+02  0.70795012607E+02  0.00000000000E+00 0.  1.
          3    1    1    2  501    0 -0.11897433164E+02 -0.29098492869E+02  0.10106746745E+02  0.33021470787E+02  0.00000000000E+00 0. -1.
<scales pt_clust_5="13000.00000" pt_clust_6="13000.00000" pt_clust_7="13000.00000" pt_clust_8="13000.00000" pt_clust_9="31.43678"></scales>
<clustering>
<clus scale="   31.437">  1  9  2 -1</clus>
<clus scale="   88.593">  5  6 -1 -1</clus>
<clus scale="   90.170">  7  8 -1 -1</clus>
<clus scale="   94.699">  1  5  2 -1</clus>
<clus scale="   31.437">  1  5  2 -1</clus>
</clustering>
</event>
<event>
 9    1  0.1636528E-005  0.1147211E+03  0.7546771E-02  0.1252741E+00
         21   -1    0    0  501  502  0.00000000000E+00  0.00000000000E+00  0.87200187091E+02  0.87200187091E+02  0.00000000000E+00 0.  1.
          2   -1    0    0  502    0 -0.00000000000E+00 -0.00000000000E+00 -0.28678237390E+03  0.28678237390E+03  0.00000000000E+00 0. -1.
         23    2    1    2    0    0 -0.60947725832E+02 -0.31987993744E+02 -0.19145733398E+03  0.22301568558E+03  0.91335799407E+02 0.  0.
         23    2    1    2    0    0  0.40990026525E+02  0.50953614762E+02 -0.27695892885E+02  0.11718773760E+03  0.93217220675E+02 0.  0.
        -13    1    3    3    0    0 -0.67163576407E+02  0.16408912776E+01 -0.16961771492E+03  0.18243850398E+03  0.00000000000E+00 0. -1.
         13    1    3    3    0    0  0.62158505752E+01 -0.33628885021E+02 -0.21839619061E+02  0.40577181603E+02  0.00000000000E+00 0.  1.
        -13    1    4    4    0    0  0.46951193535E+02 -0.12437390487E+02 -0.22563428134E+01  0.48622981597E+02  0.00000000000E+00 0.  1.
         13    1    4    4    0    0 -0.59611670102E+01  0.63391005249E+02 -0.25439550072E+02  0.68564756008E+02  0.00000000000E+00 0. -1.
          2    1    1    2  501    0  0.19957699307E+02 -0.18965621019E+02  0.19571040052E+02  0.33779137807E+02  0.00000000000E+00 0. -1.
<scales pt_clust_5="13000.00000" pt_clust_6="13000.00000" pt_clust_7="13000.00000" pt_clust_8="13000.00000" pt_clust_9="27.53188"></scales>
<clustering>
<clus scale="   27.532">  1  9  2 -1</clus>
<clus scale="   91.336">  5  6 -1 -1</clus>
<clus scale="   93.217">  7  8 -1 -1</clus>
<clus scale="  113.198">  2  5  1 -1</clus>
<clus scale="   27.532">  1  5  2 -1</clus>
</clustering>
</event>
<event>
 9    1  0.1636528E-005  0.1004807E+03  0.7546771E-02  0.1280399E+00
         21   -1    0    0  501  502  0.00000000000E+00  0.00000000000E+00  0.10290491402E+03  0.10290491402E+03  0.00000000000E+00 0. -1.
          2   -1    0    0  502    0 -0.00000000000E+00 -0.00000000000E+00 -0.28142876114E+03  0.28142876114E+03  0.00000000000E+00 0. -1.
         23    2    1    2    0    0  0.22241230820E+02 -0.23834927941E+02 -0.13933230101E+03  0.16979666386E+03  0.91403724297E+02 0.  0.
         23    2    1    2    0    0 -0.23536666360E+02  0.51407015832E+02 -0.10148734150E+03  0.14639991195E+03  0.89087584954E+02 0.  0.
        -11    1    4    4    0    0 -0.57303574688E+02  0.33590480255E+02 -0.54955127594E+02  0.86209547526E+02  0.00000000000E+00 0.  1.
         11    1    4    4    0    0  0.33766908328E+02  0.17816535577E+02 -0.46532213908E+02  0.60190364421E+02  0.00000000000E+00 0. -1.
        -11    1    3    3    0    0 -0.14742433909E+02 -0.33321800670E+02 -0.14432895882E+02  0.39191711381E+02  0.00000000000E+00 0.  1.
         11    1    3    3    0    0  0.36983664729E+02  0.94868727291E+01 -0.12489940513E+03  0.13060495248E+03  0.00000000000E+00 0. -1.
          2    1    1    2  501    0  0.12954355397E+01 -0.27572087891E+02  0.62295795391E+02  0.68137099346E+02  0.00000000000E+00 0. -1.
<scales pt_clust_5="13000.00000" pt_clust_6="13000.00000" pt_clust_7="13000.00000" pt_clust_8="13000.00000" pt_clust_9="27.60250"></scales>
<clustering>
<clus scale="   27.603">  1  9  2 -1</clus>
<clus scale="   89.088">  5  6 -1 -1</clus>
<clus scale="   91.404">  7  8 -1 -1</clus>
<clus scale="   98.378">  1  5  2 -1</clus>
<clus scale="   27.603">  1  5  2 -1</clus>
</clustering>
</event>
<event>
 9    1  0.1636528E-005  0.1085975E+03  0.7546771E-02  0.1264666E+00
         -2   -1    0    0    0  501 -0.00000000000E+00  0.00000000000E+00  0.71450782247E+03  0.71450782247E+03  0.00000000000E+00 0.  1.
         21   -1    0    0  501  502  0.00000000000E+00 -0.00000000000E+00 -0.35262750044E+02  0.35262750044E+02  0.00000000000E+00 0. -1.
         23    2    1    2    0    0 -0.51224121663E+02  0.10500121043E+02  0.46121340410E+03  0.47307221308E+03  0.91352895337E+02 0.  0.
         23    2    1    2    0    0  0.75726496632E+02  0.39550241435E+01  0.21948801533E+03  0.24821259899E+03  0.87660486636E+02 0.  0.
        -11    1    3    3    0    0  0.22506209599E+02  0.20744947487E+02  0.12113129885E+03  0.12493868047E+03  0.00000000000E+00 0. -1.
         11    1    3    3    0    0 -0.73730331261E+02 -0.10244826444E+02  0.34008210525E+03  0.34813353261E+03  0.00000000000E+00 0.  1.
        -13    1    4    4    0    0  0.38214302422E+02  0.14646128575E+02  0.20086007803E+03  0.20498686041E+03  0.00000000000E+00 0.  1.
         13    1    4    4    0    0  0.37512194211E+02 -0.10691104431E+02  0.18627937297E+02  0.43225738587E+02  0.00000000000E+00 0. -1.
         -2    1    1    2    0  502 -0.24502374970E+02 -0.14455145187E+02 -0.14563469981E+01  0.28485760445E+02  0.00000000000E+00 0.  1.
<scales pt_clust_5="13000.00000" pt_clust_6="13000.00000" pt_clust_7="13000.00000" pt_clust_8="13000.00000" pt_clust_9="28.44851"></scales>
<clustering>
<clus scale="   28.449">  2  9  1 -1</clus>
<clus scale="   87.660">  7  8 -1 -1</clus>
<clus scale="   91.353">  5  6 -1 -1</clus>
<clus scale="  105.510">  2  7  1 -1</clus>
<clus scale="   28.449">  2  5  1 -1</clus>
</clustering>
</event>
<event>
 9    1  0.1636528E-005  0.1284348E+03  0.7546771E-02  0.1230315E+00
         21   -1    0    0  501  502  0.00000000000E+00  0.00000000000E+00  0.25479130642E+03  0.25479130642E+03  0.00000000000E+00 0.  1.
         -2   -1    0    0    0  501 -0.00000000000E+00 -0.00000000000E+00 -0.24370942966E+03  0.24370942966E+03  0.00000000000E+00 0.  1.
         23    2    1    2    0    0  0.86943344794E+02  0.51586230058E+02 -0.14139001096E+03  0.19581146103E+03  0.90170442695E+02 0.  0.
         23    2    1    2    0    0 -0.34743346071E+02 -0.68263783051E+02 -0.20252868573E+02  0.12147994285E+03  0.92087749766E+02 0.  0.
        -11    1    3    3    0    0 -0.17515599200E+02  0.19023232077E+02 -0.31233210580E+02  0.40548650004E+02  0.00000000000E+00 0. -1.
         11    1    3    3    0    0  0.10445894399E+03  0.32562997981E+02 -0.11015680038E+03  0.15526281102E+03  0.00000000000E+00 0.  1.
        -13    1    4    4    0    0 -0.63137014165E+02 -0.60556195335E+02 -0.26487772430E+02  0.91405346887E+02  0.00000000000E+00 0. -1.
         13    1    4    4    0    0  0.28393668095E+02 -0.77075877157E+01  0.62349038577E+01  0.30074595964E+02  0.00000000000E+00 0.  1.
         -2    1    1    2    0  502 -0.52199998724E+02  0.16677552993E+02  0.17272475629E+03  0.18120933220E+03  0.00000000000E+00 0.  1.
<scales pt_clust_5="13000.00000" pt_clust_6="13000.00000" pt_clust_7="13000.00000" pt_clust_8="13000.00000" pt_clust_9="54.79946"></scales>
<clustering>
<clus scale="   54.799">  1  9  2 -1</clus>
<clus scale="   90.170">  5  6 -1 -1</clus>
<clus scale="   92.088">  7  8 -1 -1</clus>
<clus scale="  127.067">  2  5  1 -1</clus>
<clus scale="   54.799">  1  5  2 -1</clus>
</clustering>
</event>
<event>
 9    1  0.1636528E-005  0.2090547E+03  0.7546771E-02  0.1142345E+00
         21   -1    0    0  501  502  0.00000000000E+00  0.00000000000E+00  0.20700206064E+03  0.20700206064E+03  0.00000000000E+00 0. -1.
          1   -1    0    0  502    0 -0.00000000000E+00 -0.00000000000E+00 -0.11759568763E+04  0.11759568763E+04  0.00000000000E+00 0. -1.
         23    2    1    2    0    0 -0.16361733684E+02 -0.17440640659E+03 -0.58791671990E+03  0.62010501183E+03  0.90547529867E+02 0.  0.
         23    2    1    2    0    0  0.30462138413E+02  0.20474830353E+03 -0.54793282507E+03  0.59263846527E+03  0.90222835509E+02 0.  0.
        -13    1    3    3    0    0  0.15805379202E+02 -0.31627908719E+02 -0.41956285378E+02  0.54867700010E+02  0.00000000000E+00 0. -1.
         13    1    3    3    0    0 -0.32167112886E+02 -0.14277849787E+03 -0.54596043452E+03  0.56523731182E+03  0.00000000000E+00 0.  1.
        -13    1    4    4    0    0 -0.23219285689E+02  0.59224324345E+02 -0.99104739423E+02  0.11776419319E+03  0.00000000000E+00 0.  1.
         13    1    4    4    0    0  0.53681424103E+02  0.14552397919E+03 -0.44882808565E+03  0.47487427207E+03  0.00000000000E+00 0. -1.
          1    1    1    2  501    0 -0.14100404729E+02 -0.30341896944E+02  0.16689472928E+03  0.17021545988E+03  0.00000000000E+00 0. -1.
<scales pt_clust_5="13000.00000" pt_clust_6="13000.00000" pt_clust_7="13000.00000" pt_clust_8="13000.00000" pt_clust_9="33.45821"></scales>
<clustering>
<clus scale="   33.458">  1  9  2 -1</clus>
<clus scale="   90.223">  7  8 -1 -1</clus>
<clus scale="   90.548">  5  6 -1 -1</clus>
<clus scale="  208.914">  1  7  2 -1</clus>
<clus scale="   33.458">  1  5  2 -1</clus>
</clustering>
</event>
<event>
 9    1  0.1636528E-005  0.1350721E+03  0.7546771E-02  0.1240286E+00
         -1   -1    0    0    0  501 -0.00000000000E+00  0.00000000000E+00  0.21050116080E+03  0.21050116080E+03  0.00000000000E+00 0.  1.
         21   -1    0    0  501  502  0.00000000000E+00 -0.00000000000E+00 -0.23559819890E+03  0.23559819890E+03  0.00000000000E+00 0.  1.
         23    2    1    2    0    0 -0.11521106333E+02  0.65643823368E+01  0.11307359488E+03  0.14394412839E+03  0.88082048304E+02 0.  0.
         23    2    1    2    0    0 -0.38503562558E+02  0.80961721553E+02  0.29312450081E+01  0.12873946982E+03  0.92346814806E+02 0.  0.
        -11    1    4    4    0    0 -0.21251782291E+02  0.95143526687E+02 -0.16816711403E+02  0.98927906596E+02  0.00000000000E+00 0. -1.
         11    1    4    4    0    0 -0.17251780267E+02 -0.14181805134E+02  0.19747956411E+02  0.29811563221E+02  0.00000000000E+00 0.  1.
        -13    1    3    3    0    0 -0.36415762301E+02  0.31077434352E+02  0.90400095318E+02  0.10229414403E+03  0.00000000000E+00 0.  1.
         13    1    3    3    0    0  0.24894655968E+02 -0.24513052015E+02  0.22673499561E+02  0.41649984360E+02  0.00000000000E+00 0. -1.
         -1    1    1    2    0  502  0.50024668891E+02 -0.87526103890E+02 -0.14110187799E+03  0.17341576149E+03  0.00000000000E+00 0.  1.
<scales pt_clust_5="13000.00000" pt_clust_6="13000.00000" pt_clust_7="13000.00000" pt_clust_8="13000.00000" pt_clust_9="98.57249"></scales>
<clustering>
<clus scale="   88.082">  7  8 -1 -1</clus>
<clus scale="   89.075">  1  7  2 -1</clus>
<clus scale="   92.347">  5  6 -1 -1</clus>
<clus scale="   98.572">  2  9  1 -1</clus>
<clus scale="   98.572">  2  5  1 -1</clus>
</clustering>
</event>
<event>
 9    1  0.1636528E-005  0.1409467E+03  0.7546771E-02  0.1212268E+00
         -1   -1    0    0    0  501 -0.00000000000E+00  0.00000000000E+00  0.18957604417E+03  0.18957604417E+03  0.00000000000E+00 0.  1.
         21   -1    0    0  501  502  0.00000000000E+00 -0.00000000000E+00 -0.18641474355E+03  0.18641474355E+03  0.00000000000E+00 0. -1.
         23    2    1    2    0    0 -0.42559781011E+02 -0.10312011146E+03  0.55818208856E+02  0.15391098770E+03  0.90154463829E+02 0.  0.
         23    2    1    2    0    0 -0.48244602779E+01  0.10800893361E+03  0.11854887916E+02  0.14188666598E+03  0.91115764051E+02 0.  0.
        -13    1    4    4    0    0  0.34988349754E+02  0.84539955319E+02  0.23011914573E+02  0.94343716675E+02  0.00000000000E+00 0. -1.
         13    1    4    4    0    0 -0.39812810032E+02  0.23468978289E+02 -0.11157026657E+02  0.47542949302E+02  0.00000000000E+00 0.  1.
        -13    1    3    3    0    0  0.12404939195E+02 -0.78627365038E+02  0.14482929106E+02  0.80906738192E+02  0.00000000000E+00 0.  1.
         13    1    3    3    0    0 -0.54964720206E+02 -0.24492746423E+02  0.41335279750E+02  0.73004249511E+02  0.00000000000E+00 0. -1.
         -1    1    1    2    0  502  0.47384241289E+02 -0.48888221460E+01 -0.64511796150E+02  0.80193134039E+02  0.00000000000E+00 0.  1.
<scales pt_clust_5="13000.00000" pt_clust_6="13000.00000" pt_clust_7="13000.00000" pt_clust_8="13000.00000" pt_clust_9="47.63577"></scales>
<clustering>
<clus scale="   47.636">  2  9  1 -1</clus>
<clus scale="   90.154">  7  8 -1 -1</clus>
<clus scale="   91.116">  5  6 -1 -1</clus>
<clus scale="  140.327">  1  7  2 -1</clus>
<clus scale="   47.636">  2  5  1 -1</clus>
</clustering>
</event>
<event>
 9    1  0.1636528E-005  0.2599058E+03  0.7546771E-02  0.1107251E+00
          4   -1    0    0  502    0 -0.00000000000E+00  0.00000000000E+00  0.49158739423E+03  0.49158739423E+03  0.00000000000E+00 0. -1.
         21   -1    0    0  501  502  0.00000000000E+00 -0.00000000000E+00 -0.22182147424E+03  0.22182147424E+03  0.00000000000E+00 0.  1.
         23    2    1    2    0    0 -0.10489808841E+03 -0.17686820580E+03  0.12039821968E+03  0.25595585466E+03  0.93443550108E+02 0.  0.
         23    2    1    2    0    0  0.12010379616E+03  0.26205700258E+03  0.19451598700E+03  0.35984813465E+03  0.92495493698E+02 0.  0.
        -11    1    3    3    0    0 -0.70996918924E+02 -0.88204244779E+02  0.15170354116E+02  0.11423962070E+03  0.00000000000E+00 0.  1.
         11    1    3    3    0    0 -0.33901169486E+02 -0.88663961026E+02  0.10522786556E+03  0.14171623396E+03  0.00000000000E+00 0. -1.
        -13    1    4    4    0    0  0.10254397729E+02  0.92441243075E+02  0.10061146198E+03  0.13701533628E+03  0.00000000000E+00 0. -1.
         13    1    4    4    0    0  0.10984939843E+03  0.16961575951E+03  0.93904525026E+02  0.22283279837E+03  0.00000000000E+00 0.  1.
          4    1    1    2  501    0 -0.15205707749E+02 -0.85188796778E+02 -0.45148286687E+02  0.97604879157E+02  0.00000000000E+00 0. -1.
<scales pt_clust_5="13000.00000" pt_clust_6="13000.00000" pt_clust_7="13000.00000" pt_clust_8="13000.00000" pt_clust_9="86.53522"></scales>
<clustering>
<clus scale="   86.535">  2  9  1 -1</clus>
<clus scale="   92.495">  7  8 -1 -1</clus>
<clus scale="   93.444">  5  6 -1 -1</clus>
<clus scale="  259.566">  2  7  1 -1</clus>
<clus scale="   86.535">  2  5  1 -1</clus>
</clustering>
</event>
<event>
 9    1  0.1636528E-005  0.1495556E+03  0.7546771E-02  0.1201152E+00
         21   -1    0    0  501  502  0.00000000000E+00  0.00000000000E+00  0.73119604947E+02  0.73119604947E+02  0.00000000000E+00 0.  1.
          2   -1    0    0  502    0 -0.00000000000E+00 -0.00000000000E+00 -0.65126931480E+03  0.65126931480E+03  0.00000000000E+00 0. -1.
         23    2    1    2    0    0  0.31002815903E+02  0.10666446994E+03 -0.29920978022E+03  0.33164752153E+03  0.90139348895E+02 0.  0.
         23    2    1    2    0    0  0.73935619287E+01 -0.13197425717E+03 -0.30150854749E+03  0.34151435778E+03  0.90844829498E+02 0.  0.
        -11    1    4    4    0    0  0.25538912913E+02 -0.78563865549E+02 -0.25611720127E+03  0.26911064235E+03  0.00000000000E+00 0.  1.
         11    1    4    4    0    0 -0.18145350984E+02 -0.53410391623E+02 -0.45391346219E+02  0.72403715424E+02  0.00000000000E+00 0. -1.
        -13    1    3    3    0    0  0.50654460962E+01  0.85550179313E+02 -0.28055386160E+03  0.29335125904E+03  0.00000000000E+00 0. -1.
         13    1    3    3    0    0  0.25937369807E+02  0.21114290625E+02 -0.18655918620E+02  0.38296262489E+02  0.00000000000E+00 0.  1.
          2    1    1    2  501    0 -0.38396377831E+02  0.25309787233E+02  0.22568617850E+02  0.51227040438E+02  0.00000000000E+00 0. -1.
<scales pt_clust_5="13000.00000" pt_clust_6="13000.00000" pt_clust_7="13000.00000" pt_clust_8="13000.00000" pt_clust_9="45.98768"></scales>
<clustering>
<clus scale="   45.988">  1  9  2 -1</clus>
<clus scale="   90.139">  7  8 -1 -1</clus>
<clus scale="   90.845">  5  6 -1 -1</clus>
<clus scale="  149.128">  2  7  1 -1</clus>
<clus scale="   45.988">  1  5  2 -1</clus>
</clustering>
</event>
<event>
 9    1  0.1636528E-005  0.1542076E+03  0.7546771E-02  0.1195445E+00
          1   -1    0    0  502    0 -0.00000000000E+00  0.00000000000E+00  0.44357415204E+03  0.44357415204E+03  0.00000000000E+00 0. -1.
         21   -1    0    0  501  502  0.00000000000E+00 -0.00000000000E+00 -0.56810618953E+03  0.56810618953E+03  0.00000000000E+00 0. -1.
         23    2    1    2    0    0 -0.42029134330E+02  0.11920469462E+03  0.29848617842E+03  0.33662573592E+03  0.90811232931E+02 0.  0.
         23    2    1    2    0    0  0.96470646389E+02 -0.88736002641E+02  0.72928937824E+02  0.17519882773E+03  0.90528092247E+02 0.  0.
        -11    1    4    4    0    0  0.10804389189E+03 -0.61587290562E+02  0.75642276196E+02  0.14556177686E+03  0.00000000000E+00 0.  1.
         11    1    4    4    0    0 -0.11573245505E+02 -0.27148712079E+02 -0.27133383713E+01  0.29637050869E+02  0.00000000000E+00 0. -1.
        -11    1    3    3    0    0  0.12592091943E+02  0.91723176406E+02  0.15328408007E+03  0.17907459639E+03  0.00000000000E+00 0.  1.
         11    1    3    3    0    0 -0.54621226272E+02  0.27481518211E+02  0.14520209835E+03  0.15755113953E+03  0.00000000000E+00 0. -1.
          1    1    1    2  501    0 -0.54441512059E+02 -0.30468691976E+02 -0.49594715373E+03  0.49985577792E+03  0.00000000000E+00 0. -1.
<scales pt_clust_5="13000.00000" pt_clust_6="13000.00000" pt_clust_7="13000.00000" pt_clust_8="13000.00000" pt_clust_9="62.38765"></scales>
<clustering>
<clus scale="   62.388">  2  9  1 -1</clus>
<clus scale="   90.528">  5  6 -1 -1</clus>
<clus scale="   90.811">  7  8 -1 -1</clus>
<clus scale="  154.041">  2  5  1 -1</clus>
<clus scale="   62.388">  2  5  1 -1</clus>
</clustering>
</event>
<event>
 9    1  0.1636528E-005  0.1516720E+03  0.7546771E-02  0.1215200E+00
         21   -1    0    0  501  502  0.00000000000E+00  0.00000000000E+00  0.27767101319E+03  0.27767101319E+03  0.00000000000E+00 0. -1.
          2   -1    0    0  502    0 -0.00000000000E+00 -0.00000000000E+00 -0.15003911089E+03  0.15003911089E+03  0.00000000000E+00 0. -1.
         23    2    1    2    0    0 -0.40580371600E+00  0.51869539221E+02  0.90616628328E+02  0.13931761044E+03  0.92235619332E+02 0.  0.
         23    2    1    2    0    0  0.11498961864E+03 -0.73039794817E+02 -0.56758531646E+01  0.16429512164E+03  0.91669229658E+02 0.  0.
        -11    1    3    3    0    0 -0.18540089385E+02  0.24176592820E+02  0.10030238719E+03  0.10482753184E+03  0.00000000000E+00 0.  1.
         11    1    3    3    0    0  0.18134285669E+02  0.27692946401E+02 -0.96857588656E+01  0.34490078601E+02  0.00000000000E+00 0. -1.
        -13    1    4    4    0    0  0.11525254114E+02 -0.51490690520E+02 -0.22350231529E+02  0.57303189632E+02  0.00000000000E+00 0.  1.
         13    1    4    4    0    0  0.10346436452E+03 -0.21549104297E+02  0.16674378365E+02  0.10699193201E+03  0.00000000000E+00 0. -1.
          2    1    1    2  501    0 -0.11458381492E+03  0.21170255596E+02  0.42691127135E+02  0.12409739199E+03  0.00000000000E+00 0. -1.
<scales pt_clust_5="13000.00000" pt_clust_6="13000.00000" pt_clust_7="13000.00000" pt_clust_8="13000.00000" pt_clust_9="120.83515"></scales>
<clustering>
<clus scale="   91.669">  7  8 -1 -1</clus>
<clus scale="   92.236">  5  6 -1 -1</clus>
<clus scale="  105.821">  2  5  1 -1</clus>
<clus scale="  120.835">  1  9  2 -1</clus>
<clus scale="  120.835">  1  5  2 -1</clus>
</clustering>
</event>
<event>
 9    1  0.1636528E-005  0.1010657E+03  0.7546771E-02  0.1278821E+00
          2   -1    0    0  502    0 -0.00000000000E+00  0.00000000000E+00  0.32343027468E+03  0.32343027468E+03  0.00000000000E+00 0. -1.
         21   -1    0    0  501  502  0.00000000000E+00 -0.00000000000E+00 -0.24939905287E+03  0.24939905287E+03  0.00000000000E+00 0.  1.
         23    2    1    2    0    0 -0.42271750185E+02  0.92792883509E+01  0.26488218169E+03  0.28394062589E+03  0.92664463513E+02 0.  0.
         23    2    1    2    0    0  0.42783918303E+01  0.44601423036E+01 -0.61634140273E+00  0.94411254906E+02  0.94206728370E+02 0.  0.
        -11    1    3    3    0    0 -0.41330888077E+02  0.47985984148E+02  0.17333928853E+03  0.18454648718E+03  0.00000000000E+00 0. -1.
         11    1    3    3    0    0 -0.94086210781E+00 -0.38706695797E+02  0.91542893157E+02  0.99394138704E+02  0.00000000000E+00 0.  1.
        -13    1    4    4    0    0 -0.93188032748E+01 -0.34433993061E+02  0.27061381446E+02  0.44775644478E+02  0.00000000000E+00 0. -1.
         13    1    4    4    0    0  0.13597195105E+02  0.38894135365E+02 -0.27677722849E+02  0.49635610428E+02  0.00000000000E+00 0.  1.
          2    1    1    2  501    0  0.37993358355E+02 -0.13739430655E+02 -0.19023461848E+03  0.19447744677E+03  0.00000000000E+00 0. -1.
<scales pt_clust_5="13000.00000" pt_clust_6="13000.00000" pt_clust_7="13000.00000" pt_clust_8="13000.00000" pt_clust_9="40.40133"></scales>
<clustering>
<clus scale="   40.401">  2  9  1 -1</clus>
<clus scale="   92.664">  5  6 -1 -1</clus>
<clus scale="   94.207">  7  8 -1 -1</clus>
<clus scale="   99.630">  1  5  2 -1</clus>
<clus scale="   40.401">  2  5  1 -1</clus>
</clustering>
</event>
<event>
 9    1  0.1636528E-005  0.1246640E+03  0.7546771E-02  0.1237039E+00
         -1   -1    0    0    0  501 -0.00000000000E+00  0.00000000000E+00  0.31445972287E+03  0.31445972287E+03  0.00000000000E+00 0.  1.
         21   -1    0    0  501  502  0.00000000000E+00 -0.00000000000E+00 -0.62040936533E+02  0.62040936533E+02  0.00000000000E+00 0. -1.
         23    2    1    2    0    0  0.89132637319E+02  0.37081997965E+02  0.14820922033E+03  0.19708363733E+03  0.86926897468E+02 0.  0.
         23    2    1    2    0    0 -0.60494429790E+02 -0.31224826096E+02  0.68684051940E+02  0.13341141869E+03  0.91905069755E+02 0.  0.
        -11    1    3    3    0    0  0.96657318183E+02  0.52538896980E+01  0.11729234404E+03  0.15207805393E+03  0.00000000000E+00 0. -1.
         11    1    3    3    0    0 -0.75246808637E+01  0.31828108267E+02  0.30916876288E+02  0.45005583402E+02  0.00000000000E+00 0.  1.
        -13    1    4    4    0    0 -0.42863522606E+02  0.28426934039E+02  0.23603545643E+02  0.56590630991E+02  0.00000000000E+00 0.  1.
         13    1    4    4    0    0 -0.17630907184E+02 -0.59651760135E+02  0.45080506297E+02  0.76820787703E+02  0.00000000000E+00 0. -1.
         -1    1    1    2    0  502 -0.28638207529E+02 -0.58571718683E+01  0.35525514068E+02  0.46005603382E+02  0.00000000000E+00 0.  1.
<scales pt_clust_5="13000.00000" pt_clust_6="13000.00000" pt_clust_7="13000.00000" pt_clust_8="13000.00000" pt_clust_9="29.23105"></scales>
<clustering>
<clus scale="   29.231">  2  9  1 -1</clus>
<clus scale="   86.927">  5  6 -1 -1</clus>
<clus scale="   91.905">  7  8 -1 -1</clus>
<clus scale="  121.041">  1  5  2 -1</clus>
<clus scale="   29.231">  2  5  1 -1</clus>
</clustering>
</event>
<event>
 9    1  0.1636528E-005  0.1719246E+03  0.7546771E-02  0.1201989E+00
          1   -1    0    0  502    0 -0.00000000000E+00  0.00000000000E+00  0.77247062945E+02  0.77247062945E+02  0.00000000000E+00 0. -1.
         21   -1    0    0  501  502  0.00000000000E+00 -0.00000000000E+00 -0.57852423188E+03  0.57852423188E+03  0.00000000000E+00 0. -1.
         23    2    1    2    0    0  0.52020687218E+01 -0.26953260813E+02 -0.92566068578E+02  0.13364808860E+03  0.92411009887E+02 0.  0.
         23    2    1    2    0    0  0.97032520230E+01 -0.13255818514E+03 -0.23918911059E+03  0.28887703799E+03  0.92588805508E+02 0.  0.
        -11    1    3    3    0    0 -0.36970054328E+02  0.29269529537E+01 -0.14071527844E+02  0.39665600543E+02  0.00000000000E+00 0.  1.
         11    1    3    3    0    0  0.42172123050E+02 -0.29880213766E+02 -0.78494540734E+02  0.93982488062E+02  0.00000000000E+00 0. -1.
        -11    1    4    4    0    0 -0.27971728539E+02 -0.58545672016E+01 -0.57269700948E+02  0.64004001447E+02  0.00000000000E+00 0.  1.
         11    1    4    4    0    0  0.37674980562E+02 -0.12670361794E+03 -0.18191940964E+03  0.22487303654E+03  0.00000000000E+00 0. -1.
          1    1    1    2  501    0 -0.14905320745E+02  0.15951144596E+03 -0.16952198977E+03  0.23324616823E+03  0.00000000000E+00 0. -1.
<scales pt_clust_5="13000.00000" pt_clust_6="13000.00000" pt_clust_7="13000.00000" pt_clust_8="13000.00000" pt_clust_9="144.86339"></scales>
<clustering>
<clus scale="   92.411">  5  6 -1 -1</clus>
<clus scale="   92.589">  7  8 -1 -1</clus>
<clus scale="   96.402">  1  5  2 -1</clus>
<clus scale="  144.863">  2  9  1 -1</clus>
<clus scale="  144.863">  2  5  1 -1</clus>
</clustering>
</event>
<event>
 9    1  0.1636528E-005  0.2735592E+03  0.7546771E-02  0.1112510E+00
          2   -1    0    0  502    0 -0.00000000000E+00  0.00000000000E+00  0.92385569741E+03  0.92385569741E+03  0.00000000000E+00 0. -1.
         21   -1    0    0  501  502  0.00000000000E+00 -0.00000000000E+00 -0.18093201548E+03  0.18093201548E+03  0.00000000000E+00 0. -1.
         23    2    1    2    0    0  0.95822309444E+02  0.14186332657E+03  0.36068265653E+03  0.40987508185E+03  0.92728019426E+02 0.  0.
         23    2    1    2    0    0 -0.14764967117E+03  0.14958288816E+03  0.31742474893E+03  0.39188107955E+03  0.92934619227E+02 0.  0.
        -11    1    4    4    0    0 -0.31302847475E+02  0.52432453957E+01  0.10724227172E+02  0.33501775039E+02  0.00000000000E+00 0.  1.
         11    1    4    4    0    0 -0.11634682370E+03  0.14433964276E+03  0.30670052175E+03  0.35837930451E+03  0.00000000000E+00 0. -1.
        -13    1    3    3    0    0  0.58419773002E+02  0.23226918597E+02  0.72314935949E+02  0.95821759462E+02  0.00000000000E+00 0.  1.
         13    1    3    3    0    0  0.37402536441E+02  0.11863640797E+03  0.28836772058E+03  0.31405332239E+03  0.00000000000E+00 0. -1.
          2    1    1    2  501    0  0.51827361729E+02 -0.29144621473E+03  0.64816276465E+02  0.30303155149E+03  0.00000000000E+00 0. -1.
<scales pt_clust_5="13000.00000" pt_clust_6="13000.00000" pt_clust_7="13000.00000" pt_clust_8="13000.00000" pt_clust_9="257.28927"></scales>
<clustering>
<clus scale="   92.728">  7  8 -1 -1</clus>
<clus scale="   92.935">  5  6 -1 -1</clus>
<clus scale="  194.694">  1  7  2 -1</clus>
<clus scale="  257.289">  2  9  1 -1</clus>
<clus scale="  257.289">  2  5  1 -1</clus>
</clustering>
</event>
<event>
 9    1  0.1636528E-005  0.1358961E+03  0.7546771E-02  0.1219752E+00
         -1   -1    0    0    0  501 -0.00000000000E+00  0.00000000000E+00  0.24916494948E+03  0.24916494948E+03  0.00000000000E+00 0.  1.
         21   -1    0    0  501  502  0.00000000000E+00 -0.00000000000E+00 -0.19596980344E+03  0.19596980344E+03  0.00000000000E+00 0.  1.
         23    2    1    2    0    0  0.30246241854E+02 -0.95648973101E+02  0.97163521323E+02  0.16708926313E+03  0.91730642506E+02 0.  0.
         23    2    1    2    0    0  0.11101236905E+00  0.10276044998E+03  0.75108166652E+02  0.15495463380E+03  0.88374088020E+02 0.  0.
        -11    1    3    3    0    0  0.51284543204E+02 -0.95719461943E+02  0.97656748937E+02  0.14604506284E+03  0.00000000000E+00 0.  1.
         11    1    3    3    0    0 -0.21038301349E+02  0.70488841454E-01 -0.49322761370E+00  0.21044200289E+02  0.00000000000E+00 0. -1.
        -11    1    4    4    0    0  0.37039736615E+02  0.15565293164E+02  0.15506411604E+02  0.43065870949E+02  0.00000000000E+00 0.  1.
         11    1    4    4    0    0 -0.36928724246E+02  0.87195156821E+02  0.59601755049E+02  0.11188876285E+03  0.00000000000E+00 0. -1.
         -1    1    1    2    0  502 -0.30357254224E+02 -0.71114768835E+01 -0.11907654194E+03  0.12309085599E+03  0.00000000000E+00 0.  1.
<scales pt_clust_5="13000.00000" pt_clust_6="13000.00000" pt_clust_7="13000.00000" pt_clust_8="13000.00000" pt_clust_9="31.17910"></scales>
<clustering>
<clus scale="   31.179">  2  9  1 -1</clus>
<clus scale="   88.374">  7  8 -1 -1</clus>
<clus scale="   91.731">  5  6 -1 -1</clus>
<clus scale="  133.653">  2  7  1 -1</clus>
<clus scale="   31.179">  2  5  1 -1</clus>
</clustering>
</event>
<event>
 9    1  0.1636528E-005  0.1231441E+03  0.7546771E-02  0.1260439E+00
          1   -1    0    0  502    0 -0.00000000000E+00  0.00000000000E+00  0.84919642720E+02  0.84919642720E+02  0.00000000000E+00 0. -1.
         21   -1    0    0  501  502  0.00000000000E+00 -0.00000000000E+00 -0.24223596502E+03  0.24223596502E+03  0.00000000000E+00 0. -1.
         23    2    1    2    0    0 -0.14485732440E+02 -0.49007508261E+01 -0.34570080942E+02  0.85870589333E+02  0.77102618717E+02 0.  0.
         23    2    1    2    0    0 -0.64894458586E+02 -0.33289842215E+02 -0.49859194310E+02  0.12695104379E+03  0.91165365749E+02 0.  0.
        -11    1    3    3    0    0  0.25692188859E+02  0.18852239641E+02 -0.15727202652E+02  0.35536465934E+02  0.00000000000E+00 0.  1.
         11    1    3    3    0    0 -0.40177921300E+02 -0.23752990467E+02 -0.18842878290E+02  0.50334123399E+02  0.00000000000E+00 0. -1.
        -11    1    4    4    0    0  0.11345716129E+01 -0.31705054610E+02 -0.51948571361E+02  0.60869958166E+02  0.00000000000E+00 0.  1.
         11    1    4    4    0    0 -0.66029030199E+02 -0.15847876049E+01  0.20893770511E+01  0.66081085624E+02  0.00000000000E+00 0. -1.
          1    1    1    2  501    0  0.79380191027E+02  0.38190593041E+02 -0.72887047044E+02  0.11433397461E+03  0.00000000000E+00 0. -1.
<scales pt_clust_5="13000.00000" pt_clust_6="13000.00000" pt_clust_7="13000.00000" pt_clust_8="13000.00000" pt_clust_9="82.78487"></scales>
<clustering>
<clus scale="   77.103">  5  6 -1 -1</clus>
<clus scale="   78.605">  1  5  2 -1</clus>
<clus scale="   82.785">  2  9  1 -1</clus>
<clus scale="   91.165">  7  8 -1 -1</clus>
<clus scale="   82.785">  2  5  1 -1</clus>
</clustering>
</event>
<event>
 9    1  0.1636528E-005  0.9281596E+02  0.7546771E-02  0.1297851E+00
         21   -1    0    0  501  502  0.00000000000E+00  0.00000000000E+00  0.76592465576E+02  0.76592465576E+02  0.00000000000E+00 0. -1.
          2   -1    0    0  502    0 -0.00000000000E+00 -0.00000000000E+00 -0.71012900131E+03  0.71012900131E+03  0.00000000000E+00 0. -1.
         23    2    1    2    0    0  0.95254632868E+01  0.96292439845E+01 -0.38209365196E+03  0.39328406853E+03  0.92159334313E+02 0.  0.
         23    2    1    2    0    0  0.17924355419E+02  0.40216846198E+02 -0.30158420062E+03  0.31759363191E+03  0.89297299686E+02 0.  0.
        -13    1    4    4    0    0  0.20022208437E+02  0.66975299230E+02 -0.18034621768E+03  0.19342010694E+03  0.00000000000E+00 0. -1.
         13    1    4    4    0    0 -0.20978530178E+01 -0.26758453032E+02 -0.12123798294E+03  0.12417352497E+03  0.00000000000E+00 0.  1.
        -13    1    3    3    0    0  0.29692703505E+02  0.43775385082E+02 -0.24002288000E+03  0.24578226930E+03  0.00000000000E+00 0. -1.
         13    1    3    3    0    0 -0.20167240218E+02 -0.34146141097E+02 -0.14207077197E+03  0.14750179923E+03  0.00000000000E+00 0.  1.
          2    1    1    2  501    0 -0.27449818706E+02 -0.49846090182E+02  0.50141316846E+02  0.75843766445E+02  0.00000000000E+00 0. -1.
<scales pt_clust_5="13000.00000" pt_clust_6="13000.00000" pt_clust_7="13000.00000" pt_clust_8="13000.00000" pt_clust_9="56.90453"></scales>
<clustering>
<clus scale="   56.905">  1  9  2 -1</clus>
<clus scale="   89.297">  5  6 -1 -1</clus>
<clus scale="   89.975">  1  5  2 -1</clus>
<clus scale="   92.159">  7  8 -1 -1</clus>
<clus scale="   56.905">  1  5  2 -1</clus>
</clustering>
</event>
<event>
 9    1  0.1636528E-005  0.2055443E+03  0.7546771E-02  0.1145256E+00
          1   -1    0    0  502    0 -0.00000000000E+00  0.00000000000E+00  0.30667987836E+03  0.30667987836E+03  0.00000000000E+00 0. -1.
         21   -1    0    0  501  502  0.00000000000E+00 -0.00000000000E+00 -0.28513927008E+03  0.28513927008E+03  0.00000000000E+00 0.  1.
         23    2    1    2    0    0 -0.84230906014E+02 -0.17980157342E+03  0.19757460192E+03  0.29440224801E+03  0.90628411531E+02 0.  0.
         23    2    1    2    0    0  0.91442888919E+02  0.10899281843E+03 -0.11437659958E+03  0.20324935441E+03  0.89370336979E+02 0.  0.
        -11    1    4    4    0    0  0.52434471756E+02  0.40842408946E+01 -0.18125284476E+02  0.55628956393E+02  0.00000000000E+00 0. -1.
         11    1    4    4    0    0  0.39008417163E+02  0.10490857754E+03 -0.96251315105E+02  0.14762039801E+03  0.00000000000E+00 0.  1.
        -13    1    3    3    0    0 -0.83794968466E+02 -0.10657200443E+03  0.84702232223E+02  0.15985511256E+03  0.00000000000E+00 0.  1.
         13    1    3    3    0    0 -0.43593754782E+00 -0.73229568991E+02  0.11287236970E+03  0.13454713545E+03  0.00000000000E+00 0. -1.
          1    1    1    2  501    0 -0.72119829049E+01  0.70808754987E+02 -0.61657394071E+02  0.94167546022E+02  0.00000000000E+00 0. -1.
<scales pt_clust_5="13000.00000" pt_clust_6="13000.00000" pt_clust_7="13000.00000" pt_clust_8="13000.00000" pt_clust_9="71.17508"></scales>
<clustering>
<clus scale="   71.175">  2  9  1 -1</clus>
<clus scale="   89.370">  5  6 -1 -1</clus>
<clus scale="   90.628">  7  8 -1 -1</clus>
<clus scale="  204.993">  2  5  1 -1</clus>
<clus scale="   71.175">  2  5  1 -1</clus>
</clustering>
</event>
<event>
 9    1  0.1636528E-005  0.1575796E+03  0.7546771E-02  0.1191649E+00
         -1   -1    0    0    0  501 -0.00000000000E+00  0.00000000000E+00  0.10461259297E+03  0.10461259297E+03  0.00000000000E+00 0.  1.
         21   -1    0    0  501  502  0.00000000000E+00 -0.00000000000E+00 -0.56944421387E+03  0.56944421387E+03  0.00000000000E+00 0. -1.
         23    2    1    2    0    0 -0.57129103035E+01  0.15222362457E+03 -0.11650234367E+02  0.17747601055E+03  0.90317977925E+02 0.  0.
         23    2    1    2    0    0 -0.15524815658E+02 -0.73837806752E+02 -0.21129717779E+03  0.24142721926E+03  0.89149106830E+02 0.  0.
        -11    1    4    4    0    0  0.22025706487E+02 -0.10334289711E+02 -0.12741896790E+03  0.12972094152E+03  0.00000000000E+00 0. -1.
         11    1    4    4    0    0 -0.37550522146E+02 -0.63503517041E+02 -0.83878209899E+02  0.11170627774E+03  0.00000000000E+00 0.  1.
        -13    1    3    3    0    0  0.34609051101E+02  0.87717761843E+02 -0.30492175960E+02  0.99105827052E+02  0.00000000000E+00 0. -1.
         13    1    3    3    0    0 -0.40321961404E+02  0.64505862729E+02  0.18841941592E+02  0.78370183494E+02  0.00000000000E+00 0.  1.
         -1    1    1    2    0  502  0.21237725962E+02 -0.78385817820E+02 -0.24188420873E+03  0.25515357703E+03  0.00000000000E+00 0.  1.
<scales pt_clust_5="13000.00000" pt_clust_6="13000.00000" pt_clust_7="13000.00000" pt_clust_8="13000.00000" pt_clust_9="81.21193"></scales>
<clustering>
<clus scale="   81.212">  2  9  1 -1</clus>
<clus scale="   89.149">  5  6 -1 -1</clus>
<clus scale="   90.318">  7  8 -1 -1</clus>
<clus scale="  156.913">  2  5  1 -1</clus>
<clus scale="   81.212">  2  5  1 -1</clus>
</clustering>
</event>
<event>
 9    1  0.1636528E-005  0.1112264E+03  0.7546771E-02  0.1260957E+00
         -3   -1    0    0    0  501 -0.00000000000E+00  0.00000000000E+00  0.20914241761E+03  0.20914241761E+03  0.00000000000E+00 0.  1.
         21   -1    0    0  501  502  0.00000000000E+00 -0.00000000000E+00 -0.11995649270E+03  0.11995649270E+03  0.00000000000E+00 0. -1.
         23    2    1    2    0    0  0.45336380588E+01 -0.54928272496E+02  0.13538381751E+03  0.17173217267E+03  0.90141511483E+02 0.  0.
         23    2    1    2    0    0 -0.27181295070E+02  0.51579811663E+02 -0.62706117190E+02  0.12914174806E+03  0.96675923510E+02 0.  0.
        -13    1    3    3    0    0 -0.35665433421E+02  0.19514924477E+01  0.40031768658E+02  0.53650479641E+02  0.00000000000E+00 0. -1.
         13    1    3    3    0    0  0.40199071480E+02 -0.56879764944E+02  0.95352048855E+02  0.11808169303E+03  0.00000000000E+00 0.  1.
        -13    1    4    4    0    0  0.36583824444E+02  0.20596121868E+02 -0.22182414245E+02  0.47483006947E+02  0.00000000000E+00 0.  1.
         13    1    4    4    0    0 -0.63765119515E+02  0.30983689795E+02 -0.40523702945E+02  0.81658741115E+02  0.00000000000E+00 0. -1.
         -3    1    1    2    0  502  0.22647657012E+02  0.33484608330E+01  0.16508224586E+02  0.28224989585E+02  0.00000000000E+00 0.  1.
<scales pt_clust_5="13000.00000" pt_clust_6="13000.00000" pt_clust_7="13000.00000" pt_clust_8="13000.00000" pt_clust_9="22.89387"></scales>
<clustering>
<clus scale="   22.894">  2  9  1 -1</clus>
<clus scale="   90.142">  5  6 -1 -1</clus>
<clus scale="   96.676">  7  8 -1 -1</clus>
<clus scale="  105.596">  1  5  2 -1</clus>
<clus scale="   22.894">  2  5  1 -1</clus>
</clustering>
</event>
<event>
 9    1  0.1636528E-005  0.9236478E+02  0.7546771E-02  0.1298244E+00
         -1   -1    0    0    0  501 -0.00000000000E+00  0.00000000000E+00  0.27074912555E+02  0.27074912555E+02  0.00000000000E+00 0.  1.
         21   -1    0    0  501  502  0.00000000000E+00 -0.00000000000E+00 -0.40336517457E+03  0.40336517457E+03  0.00000000000E+00 0. -1.
         23    2    1    2    0    0  0.87078403165E+01  0.10505167454E+02 -0.17097557797E+03  0.19365449081E+03  0.89906776847E+02 0.  0.
         23    2    1    2    0    0  0.11804885119E+02 -0.12449732676E+02 -0.18808029885E+03  0.20992340594E+03  0.91647620746E+02 0.  0.
        -13    1    4    4    0    0  0.27544283048E+02  0.29530184567E+02 -0.47387379696E+02  0.62259803113E+02  0.00000000000E+00 0.  1.
         13    1    4    4    0    0 -0.15739397929E+02 -0.41979917243E+02 -0.14069291916E+03  0.14766360283E+03  0.00000000000E+00 0. -1.
        -13    1    3    3    0    0 -0.37615291179E+02  0.72609405772E+01 -0.11334062924E+03  0.11964000010E+03  0.00000000000E+00 0.  1.
         13    1    3    3    0    0  0.46323131495E+02  0.32442268763E+01 -0.57634948734E+02  0.74014490710E+02  0.00000000000E+00 0. -1.
         -1    1    1    2    0  502 -0.20512725436E+02  0.19445652225E+01 -0.17234385191E+02  0.26862190373E+02  0.00000000000E+00 0.  1.
<scales pt_clust_5="13000.00000" pt_clust_6="13000.00000" pt_clust_7="13000.00000" pt_clust_8="13000.00000" pt_clust_9="20.60470"></scales>
<clustering>
<clus scale="   20.605">  2  9  1 -1</clus>
<clus scale="   89.907">  7  8 -1 -1</clus>
<clus scale="   90.638">  1  7  2 -1</clus>
<clus scale="   91.648">  5  6 -1 -1</clus>
<clus scale="   20.605">  2  5  1 -1</clus>
</clustering>
</event>
<event>
 9    1  0.1636528E-005  0.9770194E+02  0.7546771E-02  0.1287140E+00
         21   -1    0    0  501  502  0.00000000000E+00  0.00000000000E+00  0.71819040481E+03  0.71819040481E+03  0.00000000000E+00 0. -1.
          3   -1    0    0  502    0 -0.00000000000E+00 -0.00000000000E+00 -0.10694133168E+03  0.10694133168E+03  0.00000000000E+00 0. -1.
         23    2    1    2    0    0  0.17618955037E+02  0.84604090367E+01 -0.34424541239E+02  0.10525550095E+03  0.97527767032E+02 0.  0.
         23    2    1    2    0    0  0.63728323286E+02  0.89106673461E+01  0.60844535153E+02  0.12916125700E+03  0.94020602367E+02 0.  0.
        -11    1    4    4    0    0  0.88950784731E+01  0.41393567635E+02  0.19499351310E+01  0.42383394268E+02  0.00000000000E+00 0.  1.
         11    1    4    4    0    0  0.54833244813E+02 -0.32482900289E+02  0.58894600022E+02  0.86777862728E+02  0.00000000000E+00 0. -1.
        -11    1    3    3    0    0 -0.39314863564E+02  0.14284731153E+01 -0.26286562026E+02  0.47314716269E+02  0.00000000000E+00 0.  1.
         11    1    3    3    0    0  0.56933818601E+02  0.70319359215E+01 -0.81379792130E+01  0.57940784677E+02  0.00000000000E+00 0. -1.
          3    1    1    2  501    0 -0.81347278323E+02 -0.17371076383E+02  0.58482907922E+03  0.59071497855E+03  0.00000000000E+00 0. -1.
<scales pt_clust_5="13000.00000" pt_clust_6="13000.00000" pt_clust_7="13000.00000" pt_clust_8="13000.00000" pt_clust_9="83.18133"></scales>
<clustering>
<clus scale="   83.181">  1  9  2 -1</clus>
<clus scale="   94.021">  5  6 -1 -1</clus>
<clus scale="   94.201">  1  5  2 -1</clus>
<clus scale="   97.528">  7  8 -1 -1</clus>
<clus scale="   83.181">  1  5  2 -1</clus>
</clustering>
</event>
<event>
 9    1  0.1636528E-005  0.2094819E+03  0.7546771E-02  0.1142102E+00
         -3   -1    0    0    0  501 -0.00000000000E+00  0.00000000000E+00  0.46996398017E+03  0.46996398017E+03  0.00000000000E+00 0.  1.
         21   -1    0    0  501  502  0.00000000000E+00 -0.00000000000E+00 -0.19522572213E+03  0.19522572213E+03  0.00000000000E+00 0. -1.
         23    2    1    2    0    0  0.13527538531E+03  0.12364970057E+03  0.32938104832E+03  0.38802086032E+03  0.92084932129E+02 0.  0.
         23    2    1    2    0    0 -0.12992132880E+03 -0.16500260858E+03 -0.49463466231E+02  0.23515034226E+03  0.93507413929E+02 0.  0.
        -11    1    4    4    0    0 -0.12097363578E+03 -0.14565266593E+03 -0.91656078617E+01  0.18956088208E+03  0.00000000000E+00 0. -1.
         11    1    4    4    0    0 -0.89476930269E+01 -0.19349942642E+02 -0.40297858370E+02  0.45589460185E+02  0.00000000000E+00 0.  1.
        -13    1    3    3    0    0  0.57124393755E+02  0.10760848605E+03  0.16297793324E+03  0.20348117691E+03  0.00000000000E+00 0.  1.
         13    1    3    3    0    0  0.78150991559E+02  0.16041214523E+02  0.16640311508E+03  0.18453968341E+03  0.00000000000E+00 0. -1.
         -3    1    1    2    0  502 -0.53540565106E+01  0.41352908001E+02 -0.51793240409E+01  0.42018499721E+02  0.00000000000E+00 0.  1.
<scales pt_clust_5="13000.00000" pt_clust_6="13000.00000" pt_clust_7="13000.00000" pt_clust_8="13000.00000" pt_clust_9="41.69807"></scales>
<clustering>
<clus scale="   41.698">  2  9  1 -1</clus>
<clus scale="   92.085">  7  8 -1 -1</clus>
<clus scale="   93.507">  5  6 -1 -1</clus>
<clus scale="  208.851">  1  7  2 -1</clus>
<clus scale="   41.698">  2  5  1 -1</clus>
</clustering>
</event>
<event>
 9    1  0.1636528E-005  0.1102044E+03  0.7546771E-02  0.1262614E+00
         21   -1    0    0  501  502  0.00000000000E+00  0.00000000000E+00  0.49101044088E+03  0.49101044088E+03  0.00000000000E+00 0.  1.
         -1   -1    0    0    0  501 -0.00000000000E+00 -0.00000000000E+00 -0.52254968592E+02  0.52254968592E+02  0.00000000000E+00 0.  1.
         23    2    1    2    0    0 -0.68903704043E+01  0.53180996006E+02  0.49487125892E+02  0.11754689869E+03  0.92155315762E+02 0.  0.
         23    2    1    2    0    0  0.34353112271E+02 -0.71668090172E+02  0.18607558151E+03  0.21984652497E+03  0.85976281801E+02 0.  0.
        -13    1    3    3    0    0 -0.40830667712E+02  0.57131449822E+02  0.21680288907E+02  0.73492726930E+02  0.00000000000E+00 0.  1.
         13    1    3    3    0    0  0.33940297308E+02 -0.39504538158E+01  0.27806836985E+02  0.44054171764E+02  0.00000000000E+00 0. -1.
        -13    1    4    4    0    0 -0.23757609899E+02 -0.15301692944E+02  0.18602014299E+02  0.33831948969E+02  0.00000000000E+00 0. -1.
         13    1    4    4    0    0  0.58110722171E+02 -0.56366397229E+02  0.16747356721E+03  0.18601457600E+03  0.00000000000E+00 0.  1.
         -1    1    1    2    0  502 -0.27462741867E+02  0.18487094166E+02  0.20319276489E+03  0.20587198581E+03  0.00000000000E+00 0.  1.
<scales pt_clust_5="13000.00000" pt_clust_6="13000.00000" pt_clust_7="13000.00000" pt_clust_8="13000.00000" pt_clust_9="33.10551"></scales>
<clustering>
<clus scale="   33.106">  1  9  2 -1</clus>
<clus scale="   85.976">  7  8 -1 -1</clus>
<clus scale="   92.155">  5  6 -1 -1</clus>
<clus scale="  105.092">  1  7  2 -1</clus>
<clus scale="   33.106">  1  5  2 -1</clus>
</clustering>
</event>
<event>
 9    1  0.1636528E-005  0.1396167E+03  0.7546771E-02  0.1232525E+00
         -1   -1    0    0    0  501 -0.00000000000E+00  0.00000000000E+00  0.53463374893E+03  0.53463374893E+03  0.00000000000E+00 0.  1.
         21   -1    0    0  501  502  0.00000000000E+00 -0.00000000000E+00 -0.69142467371E+02  0.69142467371E+02  0.00000000000E+00 0.  1.
         23    2    1    2    0    0 -0.30071126854E+02  0.11644790061E+02  0.19313658261E+03  0.21502329635E+03  0.88844834539E+02 0.  0.
         23    2    1    2    0    0  0.11801950533E+02  0.95722236036E+02  0.24131843495E+03  0.27550676867E+03  0.91473274959E+02 0.  0.
        -13    1    4    4    0    0 -0.34659144596E+02  0.39437489795E+02  0.58213321366E+02  0.78392363722E+02  0.00000000000E+00 0.  1.
         13    1    4    4    0    0  0.46461095129E+02  0.56284746241E+02  0.18310511358E+03  0.19711440495E+03  0.00000000000E+00 0. -1.
        -13    1    3    3    0    0 -0.59837331334E+02  0.16995430840E+02  0.10745599055E+03  0.12416175254E+03  0.00000000000E+00 0.  1.
         13    1    3    3    0    0  0.29766204481E+02 -0.53506407795E+01  0.85680592067E+02  0.90861543807E+02  0.00000000000E+00 0. -1.
         -1    1    1    2    0  502  0.18269176321E+02 -0.10736702610E+03  0.31036264002E+02  0.11324615128E+03  0.00000000000E+00 0.  1.
<scales pt_clust_5="13000.00000" pt_clust_6="13000.00000" pt_clust_7="13000.00000" pt_clust_8="13000.00000" pt_clust_9="105.47725"></scales>
<clustering>
<clus scale="   88.845">  7  8 -1 -1</clus>
<clus scale="   91.473">  5  6 -1 -1</clus>
<clus scale="   94.516">  1  7  2 -1</clus>
<clus scale="  105.477">  2  9  1 -1</clus>
<clus scale="  105.477">  2  5  1 -1</clus>
</clustering>
</event>
<event>
 9    1  0.1636528E-005  0.1083334E+03  0.7546771E-02  0.1263862E+00
          1   -1    0    0  502    0 -0.00000000000E+00  0.00000000000E+00  0.35119288286E+03  0.35119288286E+03  0.00000000000E+00 0. -1.
         21   -1    0    0  501  502  0.00000000000E+00 -0.00000000000E+00 -0.81888661526E+02  0.81888661526E+02  0.00000000000E+00 0.  1.
         23    2    1    2    0    0 -0.14055632663E+02  0.47897855306E+02  0.17245924437E+03  0.20102294676E+03  0.90422722815E+02 0.  0.
         23    2    1    2    0    0  0.30760226512E+02 -0.65941650729E+02  0.14019366880E+03  0.18222155224E+03  0.90862184059E+02 0.  0.
        -11    1    3    3    0    0 -0.50765124064E+02  0.18328912857E+02  0.71336298479E+02  0.89453419993E+02  0.00000000000E+00 0.  1.
         11    1    3    3    0    0  0.36709491401E+02  0.29568942448E+02  0.10112294589E+03  0.11156952676E+03  0.00000000000E+00 0. -1.
        -13    1    4    4    0    0  0.58882296911E+02 -0.45608455392E+02  0.12225691043E+03  0.14315728497E+03  0.00000000000E+00 0. -1.
         13    1    4    4    0    0 -0.28122070399E+02 -0.20333195337E+02  0.17936758372E+02  0.39064267266E+02  0.00000000000E+00 0.  1.
          1    1    1    2  501    0 -0.16704593850E+02  0.18043795423E+02 -0.43348691841E+02  0.49837045390E+02  0.00000000000E+00 0. -1.
<scales pt_clust_5="13000.00000" pt_clust_6="13000.00000" pt_clust_7="13000.00000" pt_clust_8="13000.00000" pt_clust_9="24.58906"></scales>
<clustering>
<clus scale="   24.589">  2  9  1 -1</clus>
<clus scale="   90.423">  5  6 -1 -1</clus>
<clus scale="   90.862">  7  8 -1 -1</clus>
<clus scale="  107.965">  1  5  2 -1</clus>
<clus scale="   24.589">  2  5  1 -1</clus>
</clustering>
</event>
<event>
 9    1  0.1636528E-005  0.1531257E+03  0.7546771E-02  0.1198910E+00
         21   -1    0    0  501  502  0.00000000000E+00  0.00000000000E+00  0.55190205555E+02  0.55190205555E+02  0.00000000000E+00 0. -1.
         -1   -1    0    0    0  501 -0.00000000000E+00 -0.00000000000E+00 -0.54892884360E+03  0.54892884360E+03  0.00000000000E+00 0.  1.
         23    2    1    2    0    0  0.10858836906E+03  0.22714911647E+02 -0.29949755354E+03  0.33199799066E+03  0.90644801970E+02 0.  0.
         23    2    1    2    0    0 -0.11216128802E+03 -0.46964289166E+02 -0.18951688079E+03  0.24715876371E+03  0.10190685643E+03 0.  0.
        -11    1    3    3    0    0  0.39609281248E+02  0.22592840518E+01 -0.22083433435E+02  0.45405699617E+02  0.00000000000E+00 0. -1.
         11    1    3    3    0    0  0.68979087810E+02  0.20455627596E+02 -0.27741412010E+03  0.28659229105E+03  0.00000000000E+00 0.  1.
        -13    1    4    4    0    0 -0.69089062685E+02 -0.73194556753E+02 -0.87542477452E+02  0.13339575360E+03  0.00000000000E+00 0. -1.
         13    1    4    4    0    0 -0.43072225330E+02  0.26230267586E+02 -0.10197440334E+03  0.11376301010E+03  0.00000000000E+00 0.  1.
         -1    1    1    2    0  502  0.35729189574E+01  0.24249377519E+02 -0.47242037180E+01  0.24962294780E+02  0.00000000000E+00 0.  1.
<scales pt_clust_5="13000.00000" pt_clust_6="13000.00000" pt_clust_7="13000.00000" pt_clust_8="13000.00000" pt_clust_9="24.51118"></scales>
<clustering>
<clus scale="   24.511">  1  9  2 -1</clus>
<clus scale="   90.645">  5  6 -1 -1</clus>
<clus scale="  101.907">  7  8 -1 -1</clus>
<clus scale="  145.873">  2  5  1 -1</clus>
<clus scale="   24.511">  1  5  2 -1</clus>
</clustering>
</event>
<event>
 9    1  0.1636528E-005  0.1128828E+03  0.7546771E-02  0.1258163E+00
          1   -1    0    0  502    0 -0.00000000000E+00  0.00000000000E+00  0.48733106236E+03  0.48733106236E+03  0.00000000000E+00 0. -1.
         21   -1    0    0  501  502  0.00000000000E+00 -0.00000000000E+00 -0.38090018735E+02  0.38090018735E+02  0.00000000000E+00 0.  1.
         23    2    1    2    0    0 -0.62469466227E+02  0.18439750318E+01  0.24471094237E+03  0.26851559486E+03  0.91166577839E+02 0.  0.
         23    2    1    2    0    0  0.44960259305E+02  0.24036427275E+02  0.19497641695E+03  0.22423071868E+03  0.98307869895E+02 0.  0.
        -11    1    4    4    0    0  0.26004129432E+02  0.55056686173E+02  0.16876452009E+03  0.17941269933E+03  0.00000000000E+00 0.  1.
         11    1    4    4    0    0  0.18956129874E+02 -0.31020258898E+02  0.26211896854E+02  0.44818019352E+02  0.00000000000E+00 0. -1.
        -13    1    3    3    0    0  0.14228372262E+02 -0.23752293336E+02  0.42338150922E+02  0.50587913966E+02  0.00000000000E+00 0. -1.
         13    1    3    3    0    0 -0.76697838488E+02  0.25596268367E+02  0.20237279145E+03  0.21792768090E+03  0.00000000000E+00 0.  1.
          1    1    1    2  501    0  0.17509206921E+02 -0.25880402306E+02  0.95536843117E+01  0.32674767551E+02  0.00000000000E+00 0. -1.
<scales pt_clust_5="13000.00000" pt_clust_6="13000.00000" pt_clust_7="13000.00000" pt_clust_8="13000.00000" pt_clust_9="31.24688"></scales>
<clustering>
<clus scale="   31.247">  2  9  1 -1</clus>
<clus scale="   91.167">  7  8 -1 -1</clus>
<clus scale="   98.308">  5  6 -1 -1</clus>
<clus scale="  106.721">  1  7  2 -1</clus>
<clus scale="   31.247">  2  5  1 -1</clus>
</clustering>
</event>
<event>
 9    1  0.1636528E-005  0.1472131E+03  0.7546771E-02  0.1204514E+00
         -3   -1    0    0    0  501 -0.00000000000E+00  0.00000000000E+00  0.22196992379E+03  0.22196992379E+03  0.00000000000E+00 0.  1.
         21   -1    0    0  501  502  0.00000000000E+00 -0.00000000000E+00 -0.20000234622E+03  0.20000234622E+03  0.00000000000E+00 0. -1.
         23    2    1    2    0    0  0.29691015559E+02  0.84997635486E+02 -0.35143413909E+02  0.13502221428E+03  0.94285653015E+02 0.  0.
         23    2    1    2    0    0 -0.69088523755E+02 -0.12520929394E+03 -0.40289159669E+02  0.17445147543E+03  0.91430353229E+02 0.  0.
        -11    1    3    3    0    0 -0.13481823245E+02  0.20831471021E+02 -0.50415078980E+02  0.56190656977E+02  0.00000000000E+00 0. -1.
         11    1    3    3    0    0  0.43172838805E+02  0.64166164466E+02  0.15271665071E+02  0.78831557302E+02  0.00000000000E+00 0.  1.
        -13    1    4    4    0    0 -0.61207220443E+00 -0.30718126820E+02 -0.48560836192E+02  0.57464186755E+02  0.00000000000E+00 0.  1.
         13    1    4    4    0    0 -0.68476451551E+02 -0.94491167115E+02  0.82716765231E+01  0.11698728868E+03  0.00000000000E+00 0. -1.
         -3    1    1    2    0  502  0.39397508196E+02  0.40211658449E+02  0.97400151145E+02  0.11249858030E+03  0.00000000000E+00 0.  1.
<scales pt_clust_5="13000.00000" pt_clust_6="13000.00000" pt_clust_7="13000.00000" pt_clust_8="13000.00000" pt_clust_9="56.29515"></scales>
<clustering>
<clus scale="   56.295">  2  9  1 -1</clus>
<clus scale="   91.430">  7  8 -1 -1</clus>
<clus scale="   94.286">  5  6 -1 -1</clus>
<clus scale="  145.401">  2  7  1 -1</clus>
<clus scale="   56.295">  2  5  1 -1</clus>
</clustering>
</event>
<event>
 9    1  0.1636528E-005  0.1125487E+03  0.7546771E-02  0.1256372E+00
         21   -1    0    0  501  502  0.00000000000E+00  0.00000000000E+00  0.12377208681E+03  0.12377208681E+03  0.00000000000E+00 0.  1.
         -1   -1    0    0    0  501 -0.00000000000E+00 -0.00000000000E+00 -0.25695155206E+03  0.25695155206E+03  0.00000000000E+00 0.  1.
         23    2    1    2    0    0  0.13569023851E+02 -0.57575971965E+02 -0.16181128883E+03  0.19477530788E+03  0.90859322104E+02 0.  0.
         23    2    1    2    0    0 -0.12848756219E+02  0.80566166064E+02 -0.26820543356E+02  0.12591473366E+03  0.92082468228E+02 0.  0.
        -11    1    4    4    0    0 -0.45840445733E+02  0.77170340809E+02 -0.21833252274E+02  0.92375856535E+02  0.00000000000E+00 0.  1.
         11    1    4    4    0    0  0.32991689514E+02  0.33958252545E+01 -0.49872910814E+01  0.33538877120E+02  0.00000000000E+00 0. -1.
        -11    1    3    3    0    0 -0.19786129543E+02 -0.38639501225E+02 -0.14763287265E+03  0.15388296548E+03  0.00000000000E+00 0.  1.
         11    1    3    3    0    0  0.33355153393E+02 -0.18936470740E+02 -0.14178416174E+02  0.40892342403E+02  0.00000000000E+00 0. -1.
         -1    1    1    2    0  502 -0.72026763224E+00 -0.22990194099E+02  0.55452366933E+02  0.60033597332E+02  0.00000000000E+00 0.  1.
<scales pt_clust_5="13000.00000" pt_clust_6="13000.00000" pt_clust_7="13000.00000" pt_clust_8="13000.00000" pt_clust_9="23.00147"></scales>
<clustering>
<clus scale="   23.001">  1  9  2 -1</clus>
<clus scale="   90.859">  7  8 -1 -1</clus>
<clus scale="   92.082">  5  6 -1 -1</clus>
<clus scale="  111.550">  2  7  1 -1</clus>
<clus scale="   23.001">  1  5  2 -1</clus>
</clustering>
</event>
<event>
 9    1  0.1636528E-005  0.1525508E+03  0.7546771E-02  0.1198049E+00
         21   -1    0    0  501  502  0.00000000000E+00  0.00000000000E+00  0.17133578077E+03  0.17133578077E+03  0.00000000000E+00 0.  1.
         -2   -1    0    0    0  501 -0.00000000000E+00 -0.00000000000E+00 -0.47189944002E+03  0.47189944002E+03  0.00000000000E+00 0.  1.
         23    2    1    2    0    0  0.10357624435E+03  0.43247977285E+02 -0.31570335372E+03  0.34893314057E+03  0.97402787952E+02 0.  0.
         23    2    1    2    0    0 -0.15972147564E+03  0.29567034030E+02 -0.33042004480E+02  0.19049558245E+03  0.93870301961E+02 0.  0.
        -13    1    3    3    0    0  0.85334891443E+02  0.62543285184E+02 -0.29994164669E+03  0.31805455136E+03  0.00000000000E+00 0.  1.
         13    1    3    3    0    0  0.18241352911E+02 -0.19295307898E+02 -0.15761707026E+02  0.30878589205E+02  0.00000000000E+00 0. -1.
        -13    1    4    4    0    0 -0.98165045458E+02  0.59769509507E+02 -0.39731733641E+02  0.12160337608E+03  0.00000000000E+00 0. -1.
         13    1    4    4    0    0 -0.61556430178E+02 -0.30202475477E+02  0.66897291608E+01  0.68892206362E+02  0.00000000000E+00 0.  1.
         -2    1    1    2    0  502  0.56145231282E+02 -0.72815011315E+02  0.48181698949E+02  0.10380649778E+03  0.00000000000E+00 0.  1.
<scales pt_clust_5="13000.00000" pt_clust_6="13000.00000" pt_clust_7="13000.00000" pt_clust_8="13000.00000" pt_clust_9="91.94734"></scales>
<clustering>
<clus scale="   91.947">  1  9  2 -1</clus>
<clus scale="   93.870">  7  8 -1 -1</clus>
<clus scale="   97.403">  5  6 -1 -1</clus>
<clus scale="  150.320">  1  7  2 -1</clus>
<clus scale="   91.947">  1  5  2 -1</clus>
</clustering>
</event>
<event>
 9    1  0.1636528E-005  0.1141965E+03  0.7546771E-02  0.1253398E+00
          1   -1    0    0  502    0 -0.00000000000E+00  0.00000000000E+00  0.14325114656E+03  0.14325114656E+03  0.00000000000E+00 0.  1.
         21   -1    0    0  501  502  0.00000000000E+00 -0.00000000000E+00 -0.21849139435E+03  0.21849139435E+03  0.00000000000E+00 0. -1.
         23    2    1    2    0    0 -0.29120497899E+02  0.63640591393E+02  0.91932096303E+02  0.14836682300E+03  0.93075644327E+02 0.  0.
         23    2    1    2    0    0  0.54296730021E+01 -0.48581613370E+02 -0.12463082156E+03  0.16240701043E+03  0.91943139205E+02 0.  0.
        -11    1    4    4    0    0  0.18073283607E+02 -0.14524074232E+02  0.82804506651E+01  0.24620279768E+02  0.00000000000E+00 0.  1.
         11    1    4    4    0    0 -0.12643610605E+02 -0.34057539138E+02 -0.13291127223E+03  0.13778673066E+03  0.00000000000E+00 0. -1.
        -13    1    3    3    0    0  0.25914554047E+02  0.54247079079E+02  0.40771937266E+02  0.72640626157E+02  0.00000000000E+00 0. -1.
         13    1    3    3    0    0 -0.55035051946E+02  0.93935123148E+01  0.51160159037E+02  0.75726196848E+02  0.00000000000E+00 0.  1.
          1    1    1    2  501    0  0.23690824897E+02 -0.15058978024E+02 -0.42541522527E+02  0.50968707481E+02  0.00000000000E+00 0.  1.
<scales pt_clust_5="13000.00000" pt_clust_6="13000.00000" pt_clust_7="13000.00000" pt_clust_8="13000.00000" pt_clust_9="28.07184"></scales>
<clustering>
<clus scale="   28.072">  2  9  1 -1</clus>
<clus scale="   91.943">  5  6 -1 -1</clus>
<clus scale="   93.076">  7  8 -1 -1</clus>
<clus scale="  113.275">  2  5  1 -1</clus>
<clus scale="   28.072">  2  5  1 -1</clus>
</clustering>
</event>
<event>
 9    1  0.1636528E-005  0.2472508E+03  0.7546771E-02  0.1142362E+00
         21   -1    0    0  501  502  0.00000000000E+00  0.00000000000E+00  0.12668498627E+04  0.12668498627E+04  0.00000000000E+00 0. -1.
          1   -1    0    0  502    0 -0.00000000000E+00 -0.00000000000E+00 -0.24031929545E+03  0.24031929545E+03  0.00000000000E+00 0. -1.
         23    2    1    2    0    0 -0.17252599058E+01  0.86584025280E+02 -0.10796246235E+03  0.16609954449E+03  0.91833520291E+02 0.  0.
         23    2    1    2    0    0 -0.21852733569E+03  0.56545998043E+02  0.10297832557E+04  0.10582948867E+04  0.92643765322E+02 0.  0.
        -13    1    3    3    0    0  0.42095538392E+02  0.31998594637E+02 -0.28019384815E+02  0.59841710676E+02  0.00000000000E+00 0.  1.
         13    1    3    3    0    0 -0.43820798297E+02  0.54585430643E+02 -0.79943077536E+02  0.10625783382E+03  0.00000000000E+00 0. -1.
        -13    1    4    4    0    0 -0.71407932173E+02  0.64969896135E+02  0.39321443394E+03  0.40489229585E+03  0.00000000000E+00 0.  1.
         13    1    4    4    0    0 -0.14711940352E+03 -0.84238980920E+01  0.63656882175E+03  0.65340259088E+03  0.00000000000E+00 0. -1.
          1    1    1    2  501    0  0.22025259560E+03 -0.14313002332E+03  0.10470977393E+03  0.28277472695E+03  0.00000000000E+00 0. -1.
<scales pt_clust_5="13000.00000" pt_clust_6="13000.00000" pt_clust_7="13000.00000" pt_clust_8="13000.00000" pt_clust_9="229.23813"></scales>
<clustering>
<clus scale="   91.834">  5  6 -1 -1</clus>
<clus scale="   92.644">  7  8 -1 -1</clus>
<clus scale="  126.227">  2  5  1 -1</clus>
<clus scale="  229.238">  1  9  2 -1</clus>
<clus scale="  229.238">  1  5  2 -1</clus>
</clustering>
</event>
<event>
 9    1  0.1636528E-005  0.9654862E+02  0.7546771E-02  0.1289462E+00
         21   -1    0    0  501  502  0.00000000000E+00  0.00000000000E+00  0.30910078201E+02  0.30910078201E+02  0.00000000000E+00 0. -1.
         -1   -1    0    0    0  501 -0.00000000000E+00 -0.00000000000E+00 -0.66684415342E+03  0.66684415342E+03  0.00000000000E+00 0.  1.
         23    2    1    2    0    0 -0.19485493413E+02 -0.38591234375E+01 -0.44272817717E+03  0.45283515418E+03  0.93042252323E+02 0.  0.
         23    2    1    2    0    0  0.33006141460E+02  0.26476327184E+02 -0.19466762331E+03  0.21852812312E+03  0.89825696508E+02 0.  0.
        -11    1    4    4    0    0  0.26091715877E+02 -0.14952093552E+02 -0.14234784289E+02  0.33271186074E+02  0.00000000000E+00 0.  1.
         11    1    4    4    0    0  0.69144255833E+01  0.41428420736E+02 -0.18043283902E+03  0.18525693705E+03  0.00000000000E+00 0. -1.
        -11    1    3    3    0    0  0.32312549093E+02 -0.21490185310E+02 -0.14400162426E+03  0.14913885034E+03  0.00000000000E+00 0. -1.
         11    1    3    3    0    0 -0.51798042506E+02  0.17631061873E+02 -0.29872655291E+03  0.30369630384E+03  0.00000000000E+00 0.  1.
         -1    1    1    2    0  502 -0.13520648047E+02 -0.22617203746E+02  0.14617252656E+01  0.26390954315E+02  0.00000000000E+00 0.  1.
<scales pt_clust_5="13000.00000" pt_clust_6="13000.00000" pt_clust_7="13000.00000" pt_clust_8="13000.00000" pt_clust_9="26.35044"></scales>
<clustering>
<clus scale="   26.350">  1  9  2 -1</clus>
<clus scale="   89.826">  5  6 -1 -1</clus>
<clus scale="   93.042">  7  8 -1 -1</clus>
<clus scale="   93.453">  1  5  2 -1</clus>
<clus scale="   26.350">  1  5  2 -1</clus>
</clustering>
</event>
<event>
 9    1  0.1636528E-005  0.3042095E+03  0.7546771E-02  0.1084538E+00
         21   -1    0    0  501  502  0.00000000000E+00  0.00000000000E+00  0.43361214240E+03  0.43361214240E+03  0.00000000000E+00 0.  1.
          1   -1    0    0  502    0 -0.00000000000E+00 -0.00000000000E+00 -0.50008514627E+03  0.50008514627E+03  0.00000000000E+00 0. -1.
         23    2    1    2    0    0  0.10028957738E+03 -0.26980428907E+03 -0.31625003453E+03  0.43576194398E+03  0.83797576065E+02 0.  0.
         23    2    1    2    0    0  0.27437729421E+02  0.27469853217E+03  0.14652809558E+03  0.33362295589E+03  0.11671195881E+03 0.  0.
        -13    1    4    4    0    0 -0.37976950954E+02  0.15896686824E+03  0.55920102780E+02  0.17274192281E+03  0.00000000000E+00 0.  1.
         13    1    4    4    0    0  0.65414680375E+02  0.11573166393E+03  0.90607992797E+02  0.16088103307E+03  0.00000000000E+00 0. -1.
        -13    1    3    3    0    0  0.26059718629E+02 -0.72946396102E+02 -0.36236614383E+02  0.85518289630E+02  0.00000000000E+00 0.  1.
         13    1    3    3    0    0  0.74229858752E+02 -0.19685789296E+03 -0.28001342014E+03  0.35024365435E+03  0.00000000000E+00 0. -1.
          1    1    1    2  501    0 -0.12772730680E+03 -0.48942431062E+01  0.10324893508E+03  0.16431238880E+03  0.00000000000E+00 0. -1.
<scales pt_clust_5="13000.00000" pt_clust_6="13000.00000" pt_clust_7="13000.00000" pt_clust_8="13000.00000" pt_clust_9="127.82104"></scales>
<clustering>
<clus scale="   83.798">  7  8 -1 -1</clus>
<clus scale="  116.712">  5  6 -1 -1</clus>
<clus scale="  127.821">  1  9  2 -1</clus>
<clus scale="  293.162">  2  7  1 -1</clus>
<clus scale="  127.821">  1  5  2 -1</clus>
</clustering>
</event>
<event>
 9    1  0.1636528E-005  0.9606147E+02  0.7546771E-02  0.1290245E+00
         21   -1    0    0  501  502  0.00000000000E+00  0.00000000000E+00  0.40134279142E+02  0.40134279142E+02  0.00000000000E+00 0. -1.
         -1   -1    0    0    0  501 -0.00000000000E+00 -0.00000000000E+00 -0.66696271849E+03  0.66696271849E+03  0.00000000000E+00 0.  1.
         23    2    1    2    0    0 -0.12715728547E+02  0.72087715003E+01 -0.23046037328E+03  0.24837382380E+03  0.91454450732E+02 0.  0.
         23    2    1    2    0    0  0.71031799759E+02  0.51624340292E+02 -0.13206118199E+03  0.18173900790E+03  0.88759912776E+02 0.  0.
        -11    1    3    3    0    0 -0.41752289811E+02  0.18224260973E+02 -0.61234737406E+02  0.76322149194E+02  0.00000000000E+00 0. -1.
         11    1    3    3    0    0  0.29036561264E+02 -0.11015489473E+02 -0.16922563588E+03  0.17205167461E+03  0.00000000000E+00 0.  1.
        -13    1    4    4    0    0  0.40340707552E+02  0.73291926223E+00 -0.39817951303E+01  0.40543366275E+02  0.00000000000E+00 0. -1.
         13    1    4    4    0    0  0.30691092206E+02  0.50891421030E+02 -0.12807938686E+03  0.14119564162E+03  0.00000000000E+00 0.  1.
         -1    1    1    2    0  502 -0.58316071212E+02 -0.58833111793E+02 -0.26430688408E+03  0.27698416593E+03  0.00000000000E+00 0.  1.
<scales pt_clust_5="13000.00000" pt_clust_6="13000.00000" pt_clust_7="13000.00000" pt_clust_8="13000.00000" pt_clust_9="82.83783"></scales>
<clustering>
<clus scale="   82.838">  1  9  2 -1</clus>
<clus scale="   88.760">  7  8 -1 -1</clus>
<clus scale="   91.454">  5  6 -1 -1</clus>
<clus scale="   93.500">  1  7  2 -1</clus>
<clus scale="   82.838">  1  5  2 -1</clus>
</clustering>
</event>
<event>
 9    1  0.1636528E-005  0.1590647E+03  0.7546771E-02  0.1213147E+00
         21   -1    0    0  501  502  0.00000000000E+00  0.00000000000E+00  0.35609861378E+03  0.35609861378E+03  0.00000000000E+00 0. -1.
          1   -1    0    0  502    0 -0.00000000000E+00 -0.00000000000E+00 -0.12056517639E+03  0.12056517639E+03  0.00000000000E+00 0. -1.
         23    2    1    2    0    0  0.44510109037E+01 -0.23924061596E+02  0.26822380748E+02  0.99506529048E+02  0.92681912976E+02 0.  0.
         23    2    1    2    0    0 -0.60571446845E+02 -0.10757500282E+03  0.16976589838E+03  0.22897415608E+03  0.91473616373E+02 0.  0.
        -11    1    4    4    0    0  0.20201205742E+02 -0.21745387520E+02  0.64284368522E+02  0.70805583312E+02  0.00000000000E+00 0.  1.
         11    1    4    4    0    0 -0.80772652587E+02 -0.85829615299E+02  0.10548152986E+03  0.15816857276E+03  0.00000000000E+00 0. -1.
        -13    1    3    3    0    0  0.71174635369E+01 -0.50203411476E+02  0.44712826961E+02  0.67603829077E+02  0.00000000000E+00 0. -1.
         13    1    3    3    0    0 -0.26664526332E+01  0.26279349880E+02 -0.17890446213E+02  0.31902699971E+02  0.00000000000E+00 0.  1.
          1    1    1    2  501    0  0.56120435941E+02  0.13149906441E+03  0.38945158259E+02  0.14818310506E+03  0.00000000000E+00 0. -1.
<scales pt_clust_5="13000.00000" pt_clust_6="13000.00000" pt_clust_7="13000.00000" pt_clust_8="13000.00000" pt_clust_9="130.13138"></scales>
<clustering>
<clus scale="   91.474">  5  6 -1 -1</clus>
<clus scale="   92.682">  7  8 -1 -1</clus>
<clus scale="   95.823">  2  7  1 -1</clus>
<clus scale="  130.131">  1  9  2 -1</clus>
<clus scale="  130.131">  1  5  2 -1</clus>
</clustering>
</event>
<event>
 9    1  0.1636528E-005  0.1308394E+03  0.7546771E-02  0.1227060E+00
         21   -1    0    0  501  502  0.00000000000E+00  0.00000000000E+00  0.49644910512E+02  0.49644910512E+02  0.00000000000E+00 0. -1.
          1   -1    0    0  502    0 -0.00000000000E+00 -0.00000000000E+00 -0.60751665122E+03  0.60751665122E+03  0.00000000000E+00 0. -1.
         23    2    1    2    0    0 -0.10731878205E+02 -0.10766460941E+03 -0.38246912323E+03  0.40677792827E+03  0.86480121245E+02 0.  0.
         23    2    1    2    0    0  0.19894692869E+02  0.74199836452E+02 -0.18004727452E+03  0.21537761911E+03  0.89828075892E+02 0.  0.
        -11    1    4    4    0    0  0.18623583513E+02 -0.12927038237E+02 -0.11008454728E+02  0.25201830409E+02  0.00000000000E+00 0. -1.
         11    1    4    4    0    0  0.12711093555E+01  0.87126874689E+02 -0.16903881979E+03  0.19017578870E+03  0.00000000000E+00 0.  1.
        -13    1    3    3    0    0 -0.18013844114E+02 -0.58918400288E+02 -0.32623449575E+03  0.33200123899E+03  0.00000000000E+00 0. -1.
         13    1    3    3    0    0  0.72819659091E+01 -0.48746209124E+02 -0.56234627477E+02  0.74776689276E+02  0.00000000000E+00 0.  1.
          1    1    1    2  501    0 -0.91628146638E+01  0.33464772960E+02  0.46446570427E+01  0.35006014353E+02  0.00000000000E+00 0. -1.
<scales pt_clust_5="13000.00000" pt_clust_6="13000.00000" pt_clust_7="13000.00000" pt_clust_8="13000.00000" pt_clust_9="34.69652"></scales>
<clustering>
<clus scale="   34.697">  1  9  2 -1</clus>
<clus scale="   86.480">  7  8 -1 -1</clus>
<clus scale="   89.828">  5  6 -1 -1</clus>
<clus scale="  128.564">  2  7  1 -1</clus>
<clus scale="   34.697">  1  5  2 -1</clus>
</clustering>
</event>
<event>
 9    1  0.1636528E-005  0.1998968E+03  0.7546771E-02  0.1150953E+00
          2   -1    0    0  502    0 -0.00000000000E+00  0.00000000000E+00  0.13400377592E+04  0.13400377592E+04  0.00000000000E+00 0. -1.
         21   -1    0    0  501  502  0.00000000000E+00 -0.00000000000E+00 -0.10443357342E+03  0.10443357342E+03  0.00000000000E+00 0. -1.
         23    2    1    2    0    0 -0.18108267202E+03 -0.28606366004E+02  0.67179531884E+03  0.70216812361E+03  0.90121390978E+02 0.  0.
         23    2    1    2    0    0  0.15119848466E+03 -0.17175834773E+03  0.45271331871E+03  0.51125926513E+03  0.63833968013E+02 0.  0.
        -11    1    4    4    0    0  0.74979139408E+02 -0.51296974564E+02  0.22448566098E+03  0.24217155682E+03  0.00000000000E+00 0.  1.
         11    1    4    4    0    0  0.76219345251E+02 -0.12046137316E+03  0.22822765773E+03  0.26908770832E+03  0.00000000000E+00 0. -1.
        -13    1    3    3    0    0 -0.84917406739E+02 -0.54727087138E+02  0.40380568852E+03  0.41625119113E+03  0.00000000000E+00 0. -1.
         13    1    3    3    0    0 -0.96165265282E+02  0.26120721134E+02  0.26798963032E+03  0.28591693248E+03  0.00000000000E+00 0.  1.
          2    1    1    2  501    0  0.29884187362E+02  0.20036471373E+03  0.11109554822E+03  0.23104394387E+03  0.00000000000E+00 0. -1.
<scales pt_clust_5="13000.00000" pt_clust_6="13000.00000" pt_clust_7="13000.00000" pt_clust_8="13000.00000" pt_clust_9="202.58105"></scales>
<clustering>
<clus scale="   63.834">  5  6 -1 -1</clus>
<clus scale="   90.121">  7  8 -1 -1</clus>
<clus scale="  202.581">  2  9  1 -1</clus>
<clus scale="  202.581">  2  5  1 -1</clus>
<clus scale="  199.897">  2  5  1 -1</clus>
</clustering>
</event>
<event>
 9    1  0.1636528E-005  0.9310218E+02  0.7546771E-02  0.1296103E+00
          2   -1    0    0  502    0 -0.00000000000E+00  0.00000000000E+00  0.46962660825E+03  0.46962660825E+03  0.00000000000E+00 0. -1.
         21   -1    0    0  501  502  0.00000000000E+00 -0.00000000000E+00 -0.31791790918E+02  0.31791790918E+02  0.00000000000E+00 0. -1.
         23    2    1    2    0    0  0.20591668564E+01  0.80740963375E+00  0.22185563478E+03  0.23985900088E+03  0.91145628218E+02 0.  0.
         23    2    1    2    0    0 -0.20683631872E+02 -0.38852184454E+02  0.17970845241E+03  0.20579344583E+03  0.90102772512E+02 0.  0.
        -11    1    4    4    0    0 -0.15421746967E+02  0.24078588183E+02  0.10052007171E+03  0.10450786336E+03  0.00000000000E+00 0.  1.
         11    1    4    4    0    0 -0.52618849049E+01 -0.62930772636E+02  0.79188380699E+02  0.10128558246E+03  0.00000000000E+00 0. -1.
        -11    1    3    3    0    0  0.31475382085E+02 -0.25428879099E+02  0.16985216999E+03  0.17460551887E+03  0.00000000000E+00 0.  1.
         11    1    3    3    0    0 -0.29416215229E+02  0.26236288733E+02  0.52003464791E+02  0.65253482015E+02  0.00000000000E+00 0. -1.
          2    1    1    2  501    0  0.18624465015E+02  0.38044774820E+02  0.36270730146E+02  0.55765952458E+02  0.00000000000E+00 0. -1.
<scales pt_clust_5="13000.00000" pt_clust_6="13000.00000" pt_clust_7="13000.00000" pt_clust_8="13000.00000" pt_clust_9="42.35889"></scales>
<clustering>
<clus scale="   42.359">  2  9  1 -1</clus>
<clus scale="   90.103">  5  6 -1 -1</clus>
<clus scale="   91.146">  7  8 -1 -1</clus>
<clus scale="   92.081">  2  5  1 -1</clus>
<clus scale="   42.359">  2  5  1 -1</clus>
</clustering>
</event>
<event>
 9    1  0.1636528E-005  0.1034527E+03  0.7546771E-02  0.1275116E+00
         21   -1    0    0  501  502  0.00000000000E+00  0.00000000000E+00  0.25664393084E+03  0.25664393084E+03  0.00000000000E+00 0. -1.
          3   -1    0    0  502    0 -0.00000000000E+00 -0.00000000000E+00 -0.26497673215E+03  0.26497673215E+03  0.00000000000E+00 0. -1.
         23    2    1    2    0    0 -0.63878440764E+01 -0.11364878681E+02 -0.10859112600E+03  0.14727135952E+03  0.98624822791E+02 0.  0.
         23    2    1    2    0    0  0.61714334796E+02 -0.61690317949E+02 -0.94088638724E+02  0.15947998385E+03  0.94693393979E+02 0.  0.
        -11    1    3    3    0    0 -0.49967517641E+02  0.20085884034E+01 -0.76983104210E+02  0.91799703596E+02  0.00000000000E+00 0.  1.
         11    1    3    3    0    0  0.43579673564E+02 -0.13373467085E+02 -0.31608021789E+02  0.55471655926E+02  0.00000000000E+00 0. -1.
        -13    1    4    4    0    0  0.14654260666E+02  0.25546888389E+02 -0.25323129289E+02  0.38841366338E+02  0.00000000000E+00 0.  1.
         13    1    4    4    0    0  0.47060074130E+02 -0.87237206338E+02 -0.68765509435E+02  0.12063861751E+03  0.00000000000E+00 0. -1.
          3    1    1    2  501    0 -0.55326490720E+02  0.73055196631E+02  0.19434696341E+03  0.21486931962E+03  0.00000000000E+00 0. -1.
<scales pt_clust_5="13000.00000" pt_clust_6="13000.00000" pt_clust_7="13000.00000" pt_clust_8="13000.00000" pt_clust_9="91.64105"></scales>
<clustering>
<clus scale="   91.641">  1  9  2 -1</clus>
<clus scale="   94.693">  7  8 -1 -1</clus>
<clus scale="   98.625">  5  6 -1 -1</clus>
<clus scale="   99.712">  1  7  2 -1</clus>
<clus scale="   91.641">  1  5  2 -1</clus>
</clustering>
</event>
<event>
 9    1  0.1636528E-005  0.1281845E+03  0.7546771E-02  0.1240593E+00
         21   -1    0    0  501  502  0.00000000000E+00  0.00000000000E+00  0.52917294632E+03  0.52917294632E+03  0.00000000000E+00 0.  1.
          1   -1    0    0  502    0 -0.00000000000E+00 -0.00000000000E+00 -0.70972747416E+02  0.70972747416E+02  0.00000000000E+00 0. -1.
         23    2    1    2    0    0  0.51687813123E+02  0.29790594821E+02  0.91425707068E+01  0.13055984433E+03  0.11577208984E+03 0.  0.
         23    2    1    2    0    0 -0.41407538406E+02  0.86394117061E+01  0.32816830224E+03  0.34231928436E+03  0.87743000720E+02 0.  0.
        -11    1    3    3    0    0  0.24418573191E+02  0.70530964625E+02 -0.14657046324E+02  0.76063872466E+02  0.00000000000E+00 0. -1.
         11    1    3    3    0    0  0.27269239932E+02 -0.40740369804E+02  0.23799617031E+02  0.54495971861E+02  0.00000000000E+00 0.  1.
        -13    1    4    4    0    0  0.25143729946E+02 -0.31664129325E+01  0.49981867998E+02  0.56039454450E+02  0.00000000000E+00 0. -1.
         13    1    4    4    0    0 -0.66551268353E+02  0.11805824639E+02  0.27818643424E+03  0.28627982990E+03  0.00000000000E+00 0.  1.
          1    1    1    2  501    0 -0.10280274717E+02 -0.38430006527E+02  0.12088932596E+03  0.12726656505E+03  0.00000000000E+00 0. -1.
<scales pt_clust_5="13000.00000" pt_clust_6="13000.00000" pt_clust_7="13000.00000" pt_clust_8="13000.00000" pt_clust_9="39.78127"></scales>
<clustering>
<clus scale="   39.781">  1  9  2 -1</clus>
<clus scale="   87.743">  7  8 -1 -1</clus>
<clus scale="  103.571">  1  7  2 -1</clus>
<clus scale="  115.772">  5  6 -1 -1</clus>
<clus scale="   39.781">  1  5  2 -1</clus>
</clustering>
</event>
<event>
 9    1  0.1636528E-005  0.9298646E+02  0.7546771E-02  0.1295855E+00
          2   -1    0    0  502    0 -0.00000000000E+00  0.00000000000E+00  0.51757348788E+03  0.51757348788E+03  0.00000000000E+00 0. -1.
         21   -1    0    0  501  502  0.00000000000E+00 -0.00000000000E+00 -0.46053338542E+02  0.46053338542E+02  0.00000000000E+00 0. -1.
         23    2    1    2    0    0 -0.19592362697E+01 -0.24791046847E+02  0.28930494668E+03  0.30447756535E+03  0.91601315578E+02 0.  0.
         23    2    1    2    0    0  0.67035270311E+01  0.15063946998E+01  0.20595009802E+03  0.22556312437E+03  0.91739161217E+02 0.  0.
        -11    1    3    3    0    0  0.27960948540E+02 -0.48227191199E+02  0.14800423541E+03  0.15815476696E+03  0.00000000000E+00 0. -1.
         11    1    3    3    0    0 -0.29920184810E+02  0.23436144352E+02  0.14130071127E+03  0.14632279839E+03  0.00000000000E+00 0.  1.
        -11    1    4    4    0    0 -0.41496016838E+02  0.10812843866E+02  0.93423219425E+02  0.10279462502E+03  0.00000000000E+00 0.  1.
         11    1    4    4    0    0  0.48199543869E+02 -0.93064491661E+01  0.11252687859E+03  0.12276849934E+03  0.00000000000E+00 0. -1.
          2    1    1    2  501    0 -0.47442907614E+01  0.23284652147E+02 -0.23734895367E+02  0.33586136701E+02  0.00000000000E+00 0. -1.
<scales pt_clust_5="13000.00000" pt_clust_6="13000.00000" pt_clust_7="13000.00000" pt_clust_8="13000.00000" pt_clust_9="23.76307"></scales>
<clustering>
<clus scale="   23.763">  2  9  1 -1</clus>
<clus scale="   91.601">  5  6 -1 -1</clus>
<clus scale="   91.739">  7  8 -1 -1</clus>
<clus scale="   92.850">  1  5  2 -1</clus>
<clus scale="   23.763">  2  5  1 -1</clus>
</clustering>
</event>
<event>
 9    1  0.1636528E-005  0.3040304E+03  0.7546771E-02  0.1083272E+00
         21   -1    0    0  501  502  0.00000000000E+00  0.00000000000E+00  0.67454975770E+03  0.67454975770E+03  0.00000000000E+00 0.  1.
          1   -1    0    0  502    0 -0.00000000000E+00 -0.00000000000E+00 -0.43406815021E+03  0.43406815021E+03  0.00000000000E+00 0. -1.
         23    2    1    2    0    0 -0.67589877547E+02 -0.28775739452E+03 -0.29693007788E+03  0.42865962018E+03  0.90602920337E+02 0.  0.
         23    2    1    2    0    0  0.14635302971E+02  0.26808676598E+03  0.22373997015E+03  0.36124044147E+03  0.91380392426E+02 0.  0.
        -11    1    4    4    0    0 -0.28198873847E+02  0.20492164865E+03  0.17219756391E+03  0.26914691079E+03  0.00000000000E+00 0.  1.
         11    1    4    4    0    0  0.42834176817E+02  0.63165117331E+02  0.51542406241E+02  0.92093530675E+02  0.00000000000E+00 0. -1.
        -11    1    3    3    0    0 -0.47512216023E+02 -0.59895054185E+02 -0.46488634703E+02  0.89476373104E+02  0.00000000000E+00 0.  1.
         11    1    3    3    0    0 -0.20077661524E+02 -0.22786234034E+03 -0.25044144318E+03  0.33918324708E+03  0.00000000000E+00 0. -1.
          1    1    1    2  501    0  0.52954574576E+02  0.19670628539E+02  0.31367171522E+03  0.31871784626E+03  0.00000000000E+00 0. -1.
<scales pt_clust_5="13000.00000" pt_clust_6="13000.00000" pt_clust_7="13000.00000" pt_clust_8="13000.00000" pt_clust_9="56.49000"></scales>
<clustering>
<clus scale="   56.490">  1  9  2 -1</clus>
<clus scale="   90.603">  7  8 -1 -1</clus>
<clus scale="   91.380">  5  6 -1 -1</clus>
<clus scale="  303.798">  2  7  1 -1</clus>
<clus scale="   56.490">  1  5  2 -1</clus>
</clustering>
</event>
<event>
 9    1  0.1636528E-005  0.9358715E+02  0.7546771E-02  0.1301862E+00
          1   -1    0    0  502    0 -0.00000000000E+00  0.00000000000E+00  0.13191794974E+03  0.13191794974E+03  0.00000000000E+00 0. -1.
         21   -1    0    0  501  502  0.00000000000E+00 -0.00000000000E+00 -0.37252933147E+03  0.37252933147E+03  0.00000000000E+00 0. -1.
         23    2    1    2    0    0 -0.15641104541E+02 -0.14641082259E+02  0.10493135637E+03  0.14081891443E+03  0.91435068053E+02 0.  0.
         23    2    1    2    0    0  0.11982862998E+02 -0.76286083609E+01 -0.18733271875E+03  0.20381681502E+03  0.79031398198E+02 0.  0.
        -11    1    4    4    0    0 -0.17832572497E+02 -0.33241579435E+02 -0.12066970713E+03  0.12642856269E+03  0.00000000000E+00 0. -1.
         11    1    4    4    0    0  0.29815435495E+02  0.25612971074E+02 -0.66663011620E+02  0.77388252333E+02  0.00000000000E+00 0.  1.
        -13    1    3    3    0    0  0.32649505286E+02  0.15737503919E+02  0.48768178709E+02  0.60761784697E+02  0.00000000000E+00 0.  1.
         13    1    3    3    0    0 -0.48290609827E+02 -0.30378586179E+02  0.56163177663E+02  0.80057129731E+02  0.00000000000E+00 0. -1.
          1    1    1    2  501    0  0.36582415431E+01  0.22269690620E+02 -0.15821001936E+03  0.15981155176E+03  0.00000000000E+00 0. -1.
<scales pt_clust_5="13000.00000" pt_clust_6="13000.00000" pt_clust_7="13000.00000" pt_clust_8="13000.00000" pt_clust_9="22.56816"></scales>
<clustering>
<clus scale="   22.568">  2  9  1 -1</clus>
<clus scale="   79.031">  5  6 -1 -1</clus>
<clus scale="   81.512">  2  5  1 -1</clus>
<clus scale="   91.435">  7  8 -1 -1</clus>
<clus scale="   22.568">  2  5  1 -1</clus>
</clustering>
</event>
<event>
 9    1  0.1636528E-005  0.1330681E+03  0.7546771E-02  0.1223169E+00
         21   -1    0    0  501  502  0.00000000000E+00  0.00000000000E+00  0.48561410699E+02  0.48561410699E+02  0.00000000000E+00 0.  1.
          2   -1    0    0  502    0 -0.00000000000E+00 -0.00000000000E+00 -0.52687726542E+03  0.52687726542E+03  0.00000000000E+00 0. -1.
         23    2    1    2    0    0  0.93036253922E+02 -0.50136719823E+02 -0.29724412523E+03  0.32864158899E+03  0.92096627563E+02 0.  0.
         23    2    1    2    0    0 -0.78275005954E+02  0.32280017890E+02 -0.18529279851E+03  0.22324769925E+03  0.91307929173E+02 0.  0.
        -11    1    4    4    0    0 -0.29483616257E+02 -0.58514781498E+01 -0.14786928252E+03  0.15089349932E+03  0.00000000000E+00 0. -1.
         11    1    4    4    0    0 -0.48791389697E+02  0.38131496040E+02 -0.37423515990E+02  0.72354199933E+02  0.00000000000E+00 0.  1.
        -13    1    3    3    0    0  0.93299497919E+02 -0.34754155225E+01 -0.20540109570E+03  0.22562465499E+03  0.00000000000E+00 0. -1.
         13    1    3    3    0    0 -0.26324399653E+00 -0.46661304300E+02 -0.91843029536E+02  0.10301693400E+03  0.00000000000E+00 0.  1.
          2    1    1    2  501    0 -0.14761247968E+02  0.17856701932E+02  0.42210690272E+01  0.23549387873E+02  0.00000000000E+00 0. -1.
<scales pt_clust_5="13000.00000" pt_clust_6="13000.00000" pt_clust_7="13000.00000" pt_clust_8="13000.00000" pt_clust_9="23.16800"></scales>
<clustering>
<clus scale="   23.168">  1  9  2 -1</clus>
<clus scale="   91.308">  5  6 -1 -1</clus>
<clus scale="   92.097">  7  8 -1 -1</clus>
<clus scale="  132.524">  1  5  2 -1</clus>
<clus scale="   23.168">  1  5  2 -1</clus>
</clustering>
</event>
<event>
 9    1  0.1636528E-005  0.1080350E+03  0.7546771E-02  0.1264806E+00
         21   -1    0    0  501  502  0.00000000000E+00  0.00000000000E+00  0.75690873896E+03  0.75690873896E+03  0.00000000000E+00 0.  1.
         -2   -1    0    0    0  501 -0.00000000000E+00 -0.00000000000E+00 -0.81471522204E+02  0.81471522204E+02  0.00000000000E+00 0.  1.
         23    2    1    2    0    0 -0.10803401672E+02 -0.52605940560E+02 -0.23327063417E+02  0.10902515878E+03  0.91968662540E+02 0.  0.
         23    2    1    2    0    0 -0.38029243631E+02  0.85678744746E+02  0.31233203159E+03  0.33844805414E+03  0.90601968629E+02 0.  0.
        -11    1    4    4    0    0 -0.31319309623E+02  0.14651753354E+01  0.17052841092E+03  0.17338680695E+03  0.00000000000E+00 0. -1.
         11    1    4    4    0    0 -0.67099340080E+01  0.84213569411E+02  0.14180362068E+03  0.16506124719E+03  0.00000000000E+00 0.  1.
        -13    1    3    3    0    0  0.33996484380E+02  0.33485706827E+01 -0.13251070731E+02  0.36641025523E+02  0.00000000000E+00 0. -1.
         13    1    3    3    0    0 -0.44799886052E+02 -0.55954511243E+02 -0.10075992686E+02  0.72384133257E+02  0.00000000000E+00 0.  1.
         -2    1    1    2    0  502  0.48832645302E+02 -0.33072804186E+02  0.38643224858E+03  0.39090704825E+03  0.00000000000E+00 0.  1.
<scales pt_clust_5="13000.00000" pt_clust_6="13000.00000" pt_clust_7="13000.00000" pt_clust_8="13000.00000" pt_clust_9="58.97828"></scales>
<clustering>
<clus scale="   58.978">  1  9  2 -1</clus>
<clus scale="   90.602">  5  6 -1 -1</clus>
<clus scale="   91.969">  7  8 -1 -1</clus>
<clus scale="  106.874">  1  5  2 -1</clus>
<clus scale="   58.978">  1  5  2 -1</clus>
</clustering>
</event>
<event>
 9    1  0.1636528E-005  0.9960480E+02  0.7546771E-02  0.1286349E+00
         21   -1    0    0  501  502  0.00000000000E+00  0.00000000000E+00  0.31870446694E+03  0.31870446694E+03  0.00000000000E+00 0. -1.
          3   -1    0    0  502    0 -0.00000000000E+00 -0.00000000000E+00 -0.25854169229E+03  0.25854169229E+03  0.00000000000E+00 0. -1.
         23    2    1    2    0    0 -0.43527969405E+02 -0.73546010203E+01 -0.23402687555E+03  0.25466106121E+03  0.90193698996E+02 0.  0.
         23    2    1    2    0    0  0.18176829993E+02  0.74279845591E+01  0.11329347012E+03  0.13992116172E+03  0.79730477376E+02 0.  0.
        -13    1    4    4    0    0  0.42816101965E+02 -0.92280597173E+01  0.34669175022E+02  0.55859890533E+02  0.00000000000E+00 0.  1.
         13    1    4    4    0    0 -0.24639271972E+02  0.16656044276E+02  0.78624295100E+02  0.84061271190E+02  0.00000000000E+00 0. -1.
        -13    1    3    3    0    0 -0.69483905819E+02 -0.17524486672E+02 -0.15244236340E+03  0.16844522837E+03  0.00000000000E+00 0.  1.
         13    1    3    3    0    0  0.25955936415E+02  0.10169885652E+02 -0.81584512150E+02  0.86215832838E+02  0.00000000000E+00 0. -1.
          3    1    1    2  501    0  0.25351139412E+02 -0.73383538788E-01  0.18089618009E+03  0.18266393630E+03  0.00000000000E+00 0. -1.
<scales pt_clust_5="13000.00000" pt_clust_6="13000.00000" pt_clust_7="13000.00000" pt_clust_8="13000.00000" pt_clust_9="25.35125"></scales>
<clustering>
<clus scale="   25.351">  1  9  2 -1</clus>
<clus scale="   79.730">  5  6 -1 -1</clus>
<clus scale="   90.194">  7  8 -1 -1</clus>
<clus scale="   90.239">  1  5  2 -1</clus>
<clus scale="   25.351">  1  5  2 -1</clus>
</clustering>
</event>
<event>
 9    1  0.1636528E-005  0.9751075E+02  0.7546771E-02  0.1293207E+00
         21   -1    0    0  501  502  0.00000000000E+00  0.00000000000E+00  0.12588361034E+03  0.12588361034E+03  0.00000000000E+00 0. -1.
          1   -1    0    0  502    0 -0.00000000000E+00 -0.00000000000E+00 -0.20387375733E+03  0.20387375733E+03  0.00000000000E+00 0. -1.
         23    2    1    2    0    0  0.36196267044E+02  0.51568972096E+01 -0.12556768703E+03  0.15952833720E+03  0.91352520516E+02 0.  0.
         23    2    1    2    0    0 -0.12987431076E+02 -0.46480456859E+02 -0.14255164818E+02  0.92321585139E+02  0.77401286312E+02 0.  0.
        -13    1    4    4    0    0 -0.33182897292E+02 -0.53112263529E+02 -0.26260708904E+02  0.67909071868E+02  0.00000000000E+00 0.  1.
         13    1    4    4    0    0  0.20195466216E+02  0.66318066695E+01  0.12005544086E+02  0.24412513270E+02  0.00000000000E+00 0. -1.
        -13    1    3    3    0    0 -0.30516514976E+02 -0.45418442636E+01 -0.35671554634E+02  0.47162971128E+02  0.00000000000E+00 0.  1.
         13    1    3    3    0    0  0.66712782021E+02  0.96987414733E+01 -0.89896132399E+02  0.11236536607E+03  0.00000000000E+00 0. -1.
          1    1    1    2  501    0 -0.23208835968E+02  0.41323559650E+02  0.61832704855E+02  0.77907445336E+02  0.00000000000E+00 0. -1.
<scales pt_clust_5="13000.00000" pt_clust_6="13000.00000" pt_clust_7="13000.00000" pt_clust_8="13000.00000" pt_clust_9="47.39501"></scales>
<clustering>
<clus scale="   47.395">  1  9  2 -1</clus>
<clus scale="   77.401">  5  6 -1 -1</clus>
<clus scale="   84.581">  1  5  2 -1</clus>
<clus scale="   91.353">  7  8 -1 -1</clus>
<clus scale="   47.395">  1  5  2 -1</clus>
</clustering>
</event>
<event>
 9    1  0.1636528E-005  0.1567982E+03  0.7546771E-02  0.1193032E+00
          2   -1    0    0  502    0 -0.00000000000E+00  0.00000000000E+00  0.87222319952E+03  0.87222319952E+03  0.00000000000E+00 0. -1.
         21   -1    0    0  501  502  0.00000000000E+00 -0.00000000000E+00 -0.17747351369E+03  0.17747351369E+03  0.00000000000E+00 0. -1.
         23    2    1    2    0    0 -0.30424882123E+02 -0.14136584701E+03  0.57968196199E+03  0.60502826947E+03  0.95488500089E+02 0.  0.
         23    2    1    2    0    0  0.15958345174E+02  0.97028013656E+02  0.25984857478E+03  0.29256118239E+03  0.91660566286E+02 0.  0.
        -11    1    4    4    0    0 -0.27437509524E+02  0.49600342450E+02  0.18700926872E+03  0.19541104750E+03  0.00000000000E+00 0.  1.
         11    1    4    4    0    0  0.43395854698E+02  0.47427671206E+02  0.72839306062E+02  0.97150134887E+02  0.00000000000E+00 0. -1.
        -11    1    3    3    0    0  0.30910873071E+02 -0.20061063654E+02  0.10564901809E+03  0.11189121222E+03  0.00000000000E+00 0.  1.
         11    1    3    3    0    0 -0.61335755194E+02 -0.12130478336E+03  0.47403294390E+03  0.49313705725E+03  0.00000000000E+00 0. -1.
          2    1    1    2  501    0  0.14466536949E+02  0.44337833355E+02 -0.14478085094E+03  0.15210726136E+03  0.00000000000E+00 0. -1.
<scales pt_clust_5="13000.00000" pt_clust_6="13000.00000" pt_clust_7="13000.00000" pt_clust_8="13000.00000" pt_clust_9="46.63823"></scales>
<clustering>
<clus scale="   46.638">  2  9  1 -1</clus>
<clus scale="   91.661">  5  6 -1 -1</clus>
<clus scale="   95.489">  7  8 -1 -1</clus>
<clus scale="  154.497">  2  5  1 -1</clus>
<clus scale="   46.638">  2  5  1 -1</clus>
</clustering>
</event>
<event>
 9    1  0.1636528E-005  0.1392093E+03  0.7546771E-02  0.1214425E+00
         21   -1    0    0  501  502  0.00000000000E+00  0.00000000000E+00  0.55968387001E+02  0.55968387001E+02  0.00000000000E+00 0.  1.
         -2   -1    0    0    0  501 -0.00000000000E+00 -0.00000000000E+00 -0.10196218382E+04  0.10196218382E+04  0.00000000000E+00 0.  1.
         23    2    1    2    0    0 -0.32763796670E+02 -0.81944384720E+02 -0.41428671336E+03  0.43355777005E+03  0.92468970733E+02 0.  0.
         23    2    1    2    0    0 -0.36440838032E+02  0.13298705784E+03 -0.52788466030E+03  0.55339772385E+03  0.92592299640E+02 0.  0.
        -13    1    4    4    0    0  0.23194710698E+02  0.28287620962E+02 -0.21545753632E+03  0.21854092080E+03  0.00000000000E+00 0.  1.
         13    1    4    4    0    0 -0.59635548730E+02  0.10469943688E+03 -0.31242712398E+03  0.33485680305E+03  0.00000000000E+00 0. -1.
        -13    1    3    3    0    0 -0.19128211401E+02  0.16587682382E+02 -0.51587346779E+02  0.57465589929E+02  0.00000000000E+00 0.  1.
         13    1    3    3    0    0 -0.13635585269E+02 -0.98532067102E+02 -0.36269936658E+03  0.37609218012E+03  0.00000000000E+00 0. -1.
         -2    1    1    2    0  502  0.69204634702E+02 -0.51042673118E+02 -0.21482077587E+02  0.88634731346E+02  0.00000000000E+00 0.  1.
<scales pt_clust_5="13000.00000" pt_clust_6="13000.00000" pt_clust_7="13000.00000" pt_clust_8="13000.00000" pt_clust_9="85.99207"></scales>
<clustering>
<clus scale="   85.992">  1  9  2 -1</clus>
<clus scale="   92.469">  7  8 -1 -1</clus>
<clus scale="   92.592">  5  6 -1 -1</clus>
<clus scale="  139.127">  2  7  1 -1</clus>
<clus scale="   85.992">  1  5  2 -1</clus>
</clustering>
</event>
<event>
 9    1  0.1636528E-005  0.1821969E+03  0.7546771E-02  0.1166011E+00
          2   -1    0    0  502    0 -0.00000000000E+00  0.00000000000E+00  0.28833484680E+03  0.28833484680E+03  0.00000000000E+00 0. -1.
         21   -1    0    0  501  502  0.00000000000E+00 -0.00000000000E+00 -0.29166859684E+03  0.29166859684E+03  0.00000000000E+00 0. -1.
         23    2    1    2    0    0  0.12236065651E+03 -0.68027269654E+02  0.10732901765E+03  0.19754633317E+03  0.88911169395E+02 0.  0.
         23    2    1    2    0    0 -0.16028630795E+03  0.10332882934E+03  0.46816094789E+02  0.21667367558E+03  0.91581589151E+02 0.  0.
        -11    1    3    3    0    0  0.58294612384E+01 -0.41538385948E+02  0.49204333292E+02  0.64656682100E+02  0.00000000000E+00 0.  1.
         11    1    3    3    0    0  0.11653119527E+03 -0.26488883706E+02  0.58124684355E+02  0.13288965107E+03  0.00000000000E+00 0. -1.
        -13    1    4    4    0    0 -0.12142985980E+03  0.44335830511E+02  0.63597564712E+02  0.14406778597E+03  0.00000000000E+00 0. -1.
         13    1    4    4    0    0 -0.38856448151E+02  0.58992998827E+02 -0.16781469923E+02  0.72605889612E+02  0.00000000000E+00 0.  1.
          2    1    1    2  501    0  0.37925651444E+02 -0.35301559684E+02 -0.15747886248E+03  0.16578343489E+03  0.00000000000E+00 0. -1.
<scales pt_clust_5="13000.00000" pt_clust_6="13000.00000" pt_clust_7="13000.00000" pt_clust_8="13000.00000" pt_clust_9="51.81269"></scales>
<clustering>
<clus scale="   51.813">  2  9  1 -1</clus>
<clus scale="   88.911">  5  6 -1 -1</clus>
<clus scale="   91.582">  7  8 -1 -1</clus>
<clus scale="  180.869">  1  5  2 -1</clus>
<clus scale="   51.813">  2  5  1 -1</clus>
</clustering>
</event>
<event>
 9    1  0.1636528E-005  0.9608292E+02  0.7546771E-02  0.1289896E+00
         -3   -1    0    0    0  501 -0.00000000000E+00  0.00000000000E+00  0.26226940699E+02  0.26226940699E+02  0.00000000000E+00 0.  1.
         21   -1    0    0  501  502  0.00000000000E+00 -0.00000000000E+00 -0.64626583395E+03  0.64626583395E+03  0.00000000000E+00 0. -1.
         23    2    1    2    0    0  0.18434029189E+02 -0.74358500045E+01 -0.10919698332E+03  0.14455871340E+03  0.92618222592E+02 0.  0.
         23    2    1    2    0    0 -0.28542447022E+02  0.31659437725E+02 -0.31939946995E+03  0.33470060105E+03  0.90506793459E+02 0.  0.
        -11    1    3    3    0    0 -0.35121565516E+02  0.10050823551E+00 -0.68132331371E+02  0.76652130070E+02  0.00000000000E+00 0. -1.
         11    1    3    3    0    0  0.53555594705E+02 -0.75363582400E+01 -0.41064651944E+02  0.67906583326E+02  0.00000000000E+00 0.  1.
        -13    1    4    4    0    0 -0.56774168495E+02  0.37932430994E+02 -0.18433459154E+03  0.19657420271E+03  0.00000000000E+00 0. -1.
         13    1    4    4    0    0  0.28231721473E+02 -0.62729932695E+01 -0.13506487840E+03  0.13812639834E+03  0.00000000000E+00 0.  1.
         -3    1    1    2    0  502  0.10108417833E+02 -0.24223587720E+02 -0.19144243999E+03  0.19323346020E+03  0.00000000000E+00 0.  1.
<scales pt_clust_5="13000.00000" pt_clust_6="13000.00000" pt_clust_7="13000.00000" pt_clust_8="13000.00000" pt_clust_9="26.24809"></scales>
<clustering>
<clus scale="   26.248">  2  9  1 -1</clus>
<clus scale="   90.507">  7  8 -1 -1</clus>
<clus scale="   92.618">  5  6 -1 -1</clus>
<clus scale="   94.049">  2  7  1 -1</clus>
<clus scale="   26.248">  2  5  1 -1</clus>
</clustering>
</event>
<event>
 9    1  0.1636528E-005  0.9593348E+02  0.7546771E-02  0.1292344E+00
         -1   -1    0    0    0  501 -0.00000000000E+00  0.00000000000E+00  0.75055861790E+03  0.75055861790E+03  0.00000000000E+00 0.  1.
         21   -1    0    0  501  502  0.00000000000E+00 -0.00000000000E+00 -0.14792111318E+02  0.14792111318E+02  0.00000000000E+00 0. -1.
         23    2    1    2    0    0 -0.72394254101E+01  0.12480894472E+02  0.33239748124E+03  0.34534310588E+03  0.92550490223E+02 0.  0.
         23    2    1    2    0    0  0.11427324622E+02 -0.33873452583E+02  0.35052968345E+03  0.36284840629E+03  0.86659750890E+02 0.  0.
        -11    1    4    4    0    0  0.10193898113E+01 -0.54393603718E+02  0.32014748744E+03  0.32473699665E+03  0.00000000000E+00 0.  1.
         11    1    4    4    0    0  0.10407934811E+02  0.20520151135E+02  0.30382196015E+02  0.38111409634E+02  0.00000000000E+00 0. -1.
        -13    1    3    3    0    0 -0.16692114847E+02 -0.35290366179E+02  0.21029603252E+03  0.21388889156E+03  0.00000000000E+00 0. -1.
         13    1    3    3    0    0  0.94526894371E+01  0.47771260652E+02  0.12210144872E+03  0.13145421432E+03  0.00000000000E+00 0.  1.
         -1    1    1    2    0  502 -0.41878992122E+01  0.21392558111E+02  0.52839341892E+02  0.57159217052E+02  0.00000000000E+00 0.  1.
<scales pt_clust_5="13000.00000" pt_clust_6="13000.00000" pt_clust_7="13000.00000" pt_clust_8="13000.00000" pt_clust_9="21.79862"></scales>
<clustering>
<clus scale="   21.799">  2  9  1 -1</clus>
<clus scale="   86.660">  5  6 -1 -1</clus>
<clus scale="   90.264">  2  5  1 -1</clus>
<clus scale="   92.550">  7  8 -1 -1</clus>
<clus scale="   21.799">  2  5  1 -1</clus>
</clustering>
</event>
<event>
 9    1  0.1636528E-005  0.9396291E+02  0.7546771E-02  0.1296453E+00
          2   -1    0    0  502    0 -0.00000000000E+00  0.00000000000E+00  0.16165831333E+03  0.16165831333E+03  0.00000000000E+00 0. -1.
         21   -1    0    0  501  502  0.00000000000E+00 -0.00000000000E+00 -0.81774940046E+02  0.81774940046E+02  0.00000000000E+00 0.  1.
         23    2    1    2    0    0 -0.94204523407E+01 -0.36648569408E+01  0.71494226830E+02  0.11325952707E+03  0.87258924489E+02 0.  0.
         23    2    1    2    0    0  0.31090376987E+02  0.13414077148E+01  0.27451571091E+02  0.10121927789E+03  0.92321950506E+02 0.  0.
        -13    1    4    4    0    0 -0.17598210752E+02 -0.24333322480E+02  0.34485771297E+02  0.45728284754E+02  0.00000000000E+00 0. -1.
         13    1    4    4    0    0  0.48688587739E+02  0.25674730195E+02 -0.70342002061E+01  0.55490993135E+02  0.00000000000E+00 0.  1.
        -13    1    3    3    0    0 -0.80781004714E+01 -0.43543870847E+02  0.53600517720E+02  0.69529417482E+02  0.00000000000E+00 0.  1.
         13    1    3    3    0    0 -0.13423518693E+01  0.39879013906E+02  0.17893709110E+02  0.43730109586E+02  0.00000000000E+00 0. -1.
          2    1    1    2  501    0 -0.21669924647E+02  0.23234492260E+01 -0.19062424635E+02  0.28954448422E+02  0.00000000000E+00 0. -1.
<scales pt_clust_5="13000.00000" pt_clust_6="13000.00000" pt_clust_7="13000.00000" pt_clust_8="13000.00000" pt_clust_9="21.79413"></scales>
<clustering>
<clus scale="   21.794">  2  9  1 -1</clus>
<clus scale="   87.259">  7  8 -1 -1</clus>
<clus scale="   88.993">  1  7  2 -1</clus>
<clus scale="   92.322">  5  6 -1 -1</clus>
<clus scale="   21.794">  2  5  1 -1</clus>
</clustering>
</event>
<event>
 9    1  0.1636528E-005  0.1074419E+03  0.7546771E-02  0.1266998E+00
         21   -1    0    0  501  502  0.00000000000E+00  0.00000000000E+00  0.65481218224E+02  0.65481218224E+02  0.00000000000E+00 0. -1.
          1   -1    0    0  502    0 -0.00000000000E+00 -0.00000000000E+00 -0.32235469519E+03  0.32235469519E+03  0.00000000000E+00 0. -1.
         23    2    1    2    0    0 -0.15968852171E+02 -0.46247011536E+02 -0.20043109854E+03  0.22579920786E+03  0.91754382437E+02 0.  0.
         23    2    1    2    0    0 -0.20056573167E+02  0.55852105607E+02 -0.53814693608E+02  0.12466032491E+03  0.95511525637E+02 0.  0.
        -11    1    4    4    0    0  0.34383371570E+02  0.83772704102E+00 -0.22887911479E+02  0.41313127683E+02  0.00000000000E+00 0.  1.
         11    1    4    4    0    0 -0.54439944736E+02  0.55014378566E+02 -0.30926782129E+02  0.83347197222E+02  0.00000000000E+00 0. -1.
        -13    1    3    3    0    0  0.45127489863E+00 -0.72702292568E+02 -0.13478777159E+03  0.15314558552E+03  0.00000000000E+00 0. -1.
         13    1    3    3    0    0 -0.16420127069E+02  0.26455281032E+02 -0.65643326947E+02  0.72653622347E+02  0.00000000000E+00 0.  1.
          1    1    1    2  501    0  0.36025425337E+02 -0.96050940711E+01 -0.26276848272E+01  0.37376380649E+02  0.00000000000E+00 0. -1.
<scales pt_clust_5="13000.00000" pt_clust_6="13000.00000" pt_clust_7="13000.00000" pt_clust_8="13000.00000" pt_clust_9="37.28390"></scales>
<clustering>
<clus scale="   37.284">  1  9  2 -1</clus>
<clus scale="   91.754">  7  8 -1 -1</clus>
<clus scale="   95.512">  5  6 -1 -1</clus>
<clus scale="  104.116">  2  7  1 -1</clus>
<clus scale="   37.284">  1  5  2 -1</clus>
</clustering>
</event>
<event>
 9    1  0.1636528E-005  0.9537412E+02  0.7546771E-02  0.1293239E+00
          3   -1    0    0  502    0 -0.00000000000E+00  0.00000000000E+00  0.40291081221E+03  0.40291081221E+03  0.00000000000E+00 0. -1.
         21   -1    0    0  501  502  0.00000000000E+00 -0.00000000000E+00 -0.30757550971E+02  0.30757550971E+02  0.00000000000E+00 0. -1.
         23    2    1    2    0    0 -0.17159428653E+02 -0.23552091845E+02  0.23320453046E+03  0.25052833996E+03  0.86781040990E+02 0.  0.
         23    2    1    2    0    0 -0.51558431678E+01  0.22846383900E+02  0.12439740113E+03  0.15649024696E+03  0.92010564663E+02 0.  0.
        -11    1    3    3    0    0  0.33849655060E+02 -0.72610881951E+01  0.60406982003E+02  0.69624177009E+02  0.00000000000E+00 0.  1.
         11    1    3    3    0    0 -0.51009083713E+02 -0.16291003650E+02  0.17279754846E+03  0.18090416296E+03  0.00000000000E+00 0. -1.
        -11    1    4    4    0    0  0.32001498214E+02  0.37095258930E+02  0.95421176875E+02  0.10726301841E+03  0.00000000000E+00 0.  1.
         11    1    4    4    0    0 -0.37157341382E+02 -0.14248875030E+02  0.28976224252E+02  0.49227228544E+02  0.00000000000E+00 0. -1.
          3    1    1    2  501    0  0.22315271821E+02  0.70570794524E+00  0.14551329653E+02  0.26649776262E+02  0.00000000000E+00 0. -1.
<scales pt_clust_5="13000.00000" pt_clust_6="13000.00000" pt_clust_7="13000.00000" pt_clust_8="13000.00000" pt_clust_9="22.32643"></scales>
<clustering>
<clus scale="   22.326">  2  9  1 -1</clus>
<clus scale="   86.781">  5  6 -1 -1</clus>
<clus scale="   90.340">  1  5  2 -1</clus>
<clus scale="   92.011">  7  8 -1 -1</clus>
<clus scale="   22.326">  2  5  1 -1</clus>
</clustering>
</event>
<event>
 9    1  0.1636528E-005  0.1475345E+03  0.7546771E-02  0.1203726E+00
          4   -1    0    0  502    0 -0.00000000000E+00  0.00000000000E+00  0.32974646425E+03  0.32974646425E+03  0.00000000000E+00 0. -1.
         21   -1    0    0  501  502  0.00000000000E+00 -0.00000000000E+00 -0.15283839089E+03  0.15283839089E+03  0.00000000000E+00 0. -1.
         23    2    1    2    0    0 -0.63699668836E+02  0.93488307223E+02  0.18666267108E+03  0.23729257241E+03  0.93097264991E+02 0.  0.
         23    2    1    2    0    0  0.46046873727E+02 -0.10920043926E+03  0.67436338194E+02  0.16456476044E+03  0.92134956210E+02 0.  0.
        -13    1    4    4    0    0 -0.17108102553E+01 -0.10122167513E+03  0.51552561620E+02  0.11360643026E+03  0.00000000000E+00 0. -1.
         13    1    4    4    0    0  0.47757683983E+02 -0.79787641328E+01  0.15883776574E+02  0.50958330180E+02  0.00000000000E+00 0.  1.
        -13    1    3    3    0    0 -0.78896607433E+02  0.68334345675E+02  0.17852570213E+03  0.20679865518E+03  0.00000000000E+00 0. -1.
         13    1    3    3    0    0  0.15196938597E+02  0.25153961548E+02  0.81369689487E+01  0.30493917229E+02  0.00000000000E+00 0.  1.
          4    1    1    2  501    0  0.17652795109E+02  0.15712132039E+02 -0.77190935905E+02  0.80727522285E+02  0.00000000000E+00 0. -1.
<scales pt_clust_5="13000.00000" pt_clust_6="13000.00000" pt_clust_7="13000.00000" pt_clust_8="13000.00000" pt_clust_9="23.63244"></scales>
<clustering>
<clus scale="   23.632">  2  9  1 -1</clus>
<clus scale="   92.135">  5  6 -1 -1</clus>
<clus scale="   93.097">  7  8 -1 -1</clus>
<clus scale="  146.929">  2  5  1 -1</clus>
<clus scale="   23.632">  2  5  1 -1</clus>
</clustering>
</event>
<event>
 9    1  0.1636528E-005  0.1451495E+03  0.7546771E-02  0.1206708E+00
         21   -1    0    0  501  502  0.00000000000E+00  0.00000000000E+00  0.24185067420E+03  0.24185067420E+03  0.00000000000E+00 0.  1.
          1   -1    0    0  502    0 -0.00000000000E+00 -0.00000000000E+00 -0.19259702393E+03  0.19259702393E+03  0.00000000000E+00 0. -1.
         23    2    1    2    0    0  0.86311878907E+02 -0.76024553467E+02 -0.12107236142E+03  0.19088276233E+03  0.92456687608E+02 0.  0.
         23    2    1    2    0    0 -0.85009002432E+02  0.54457316632E+02  0.97700749054E+02  0.16779375419E+03  0.91745178351E+02 0.  0.
        -11    1    3    3    0    0  0.59192995720E+02 -0.16644020565E+02 -0.10356415521E+02  0.62354546790E+02  0.00000000000E+00 0.  1.
         11    1    3    3    0    0  0.27118883187E+02 -0.59380532902E+02 -0.11071594590E+03  0.12852821554E+03  0.00000000000E+00 0. -1.
        -11    1    4    4    0    0  0.14595045106E+01 -0.20920254666E+02  0.91486424730E+01  0.22879791691E+02  0.00000000000E+00 0. -1.
         11    1    4    4    0    0 -0.86468506942E+02  0.75377571298E+02  0.88552106581E+02  0.14491396250E+03  0.00000000000E+00 0.  1.
          1    1    1    2  501    0 -0.13028764752E+01  0.21567236836E+02  0.72625262633E+02  0.75771181622E+02  0.00000000000E+00 0. -1.
<scales pt_clust_5="13000.00000" pt_clust_6="13000.00000" pt_clust_7="13000.00000" pt_clust_8="13000.00000" pt_clust_9="21.60655"></scales>
<clustering>
<clus scale="   21.607">  1  9  2 -1</clus>
<clus scale="   91.745">  7  8 -1 -1</clus>
<clus scale="   92.457">  5  6 -1 -1</clus>
<clus scale="  144.697">  1  7  2 -1</clus>
<clus scale="   21.607">  1  5  2 -1</clus>
</clustering>
</event>
<event>
 9    1  0.1636528E-005  0.1075836E+03  0.7546771E-02  0.1270162E+00
         21   -1    0    0  501  502  0.00000000000E+00  0.00000000000E+00  0.33195485850E+02  0.33195485850E+02  0.00000000000E+00 0. -1.
          1   -1    0    0  502    0 -0.00000000000E+00 -0.00000000000E+00 -0.70044083730E+03  0.70044083730E+03  0.00000000000E+00 0. -1.
         23    2    1    2    0    0  0.24809304005E+02  0.12770292609E+02 -0.47309231930E+03  0.48498408874E+03  0.10302738381E+03 0.  0.
         23    2    1    2    0    0 -0.44055957338E+02  0.15752974761E+02 -0.18655486159E+03  0.21341386552E+03  0.92486096359E+02 0.  0.
        -11    1    4    4    0    0 -0.72820485087E+02  0.14694508724E+02 -0.14408657266E+03  0.16211012324E+03  0.00000000000E+00 0. -1.
         11    1    4    4    0    0  0.28764527749E+02  0.10584660366E+01 -0.42468288935E+02  0.51303742281E+02  0.00000000000E+00 0.  1.
        -13    1    3    3    0    0 -0.94338106772E+01  0.53043460988E+02 -0.23876784282E+03  0.24477068513E+03  0.00000000000E+00 0. -1.
         13    1    3    3    0    0  0.34243114682E+02 -0.40273168379E+02 -0.23432447649E+03  0.24021340361E+03  0.00000000000E+00 0.  1.
          1    1    1    2  501    0  0.19246653333E+02 -0.28523267370E+02 -0.75981705501E+01  0.35238368885E+02  0.00000000000E+00 0. -1.
<scales pt_clust_5="13000.00000" pt_clust_6="13000.00000" pt_clust_7="13000.00000" pt_clust_8="13000.00000" pt_clust_9="34.40945"></scales>
<clustering>
<clus scale="   34.409">  1  9  2 -1</clus>
<clus scale="   92.486">  5  6 -1 -1</clus>
<clus scale="   97.536">  1  5  2 -1</clus>
<clus scale="  103.027">  7  8 -1 -1</clus>
<clus scale="   34.409">  1  5  2 -1</clus>
</clustering>
</event>
<event>
 9    1  0.1636528E-005  0.1020474E+03  0.7546771E-02  0.1276514E+00
          3   -1    0    0  502    0 -0.00000000000E+00  0.00000000000E+00  0.49097131544E+03  0.49097131544E+03  0.00000000000E+00 0. -1.
         21   -1    0    0  501  502  0.00000000000E+00 -0.00000000000E+00 -0.41762782767E+02  0.41762782767E+02  0.00000000000E+00 0.  1.
         23    2    1    2    0    0 -0.61025866498E+01  0.44076145344E+02  0.37318211039E+03  0.38668743284E+03  0.91007335118E+02 0.  0.
         23    2    1    2    0    0  0.26798326009E+02 -0.38265067630E+02  0.62217069186E+02  0.12049709620E+03  0.92012068865E+02 0.  0.
        -11    1    3    3    0    0  0.32867104770E+02  0.52009340419E+02  0.22928658398E+03  0.23739746346E+03  0.00000000000E+00 0. -1.
         11    1    3    3    0    0 -0.38969691420E+02 -0.79331950748E+01  0.14389552642E+03  0.14928996938E+03  0.00000000000E+00 0.  1.
        -13    1    4    4    0    0  0.80136857250E+01 -0.66875178929E+02  0.50987414959E+02  0.84476181258E+02  0.00000000000E+00 0.  1.
         13    1    4    4    0    0  0.18784640284E+02  0.28610111299E+02  0.11229654227E+02  0.36020914942E+02  0.00000000000E+00 0. -1.
          3    1    1    2  501    0 -0.20695739359E+02 -0.58110777142E+01  0.13809353091E+02  0.25549569167E+02  0.00000000000E+00 0. -1.
<scales pt_clust_5="13000.00000" pt_clust_6="13000.00000" pt_clust_7="13000.00000" pt_clust_8="13000.00000" pt_clust_9="21.49610"></scales>
<clustering>
<clus scale="   21.496">  2  9  1 -1</clus>
<clus scale="   91.007">  5  6 -1 -1</clus>
<clus scale="   92.012">  7  8 -1 -1</clus>
<clus scale="  101.142">  1  5  2 -1</clus>
<clus scale="   21.496">  2  5  1 -1</clus>
</clustering>
</event>
<event>
 9    1  0.1636528E-005  0.9651889E+02  0.7546771E-02  0.1290774E+00
          1   -1    0    0  502    0 -0.00000000000E+00  0.00000000000E+00  0.27305836694E+03  0.27305836694E+03  0.00000000000E+00 0. -1.
         21   -1    0    0  501  502  0.00000000000E+00 -0.00000000000E+00 -0.61190430599E+02  0.61190430599E+02  0.00000000000E+00 0.  1.
         23    2    1    2    0    0  0.21075331928E+02  0.76446652209E+00  0.15796605668E+03  0.18413564643E+03  0.92238317397E+02 0.  0.
         23    2    1    2    0    0 -0.51656036853E+02  0.92240089879E+01  0.19897242227E+02  0.10330220663E+03  0.86729563361E+02 0.  0.
        -13    1    4    4    0    0  0.46551942406E+01  0.31323844645E+02 -0.13244427955E+02  0.34325922400E+02  0.00000000000E+00 0.  1.
         13    1    4    4    0    0 -0.56311231094E+02 -0.22099835657E+02  0.33141670182E+02  0.68976284228E+02  0.00000000000E+00 0. -1.
        -13    1    3    3    0    0  0.16643352588E+02 -0.42727350396E+02  0.51011967405E+02  0.68591898033E+02  0.00000000000E+00 0. -1.
         13    1    3    3    0    0  0.44319793405E+01  0.43491816918E+02  0.10695408928E+03  0.11554374839E+03  0.00000000000E+00 0.  1.
          1    1    1    2  501    0  0.30580704925E+02 -0.99884755100E+01  0.34004637433E+02  0.46810944486E+02  0.00000000000E+00 0. -1.
<scales pt_clust_5="13000.00000" pt_clust_6="13000.00000" pt_clust_7="13000.00000" pt_clust_8="13000.00000" pt_clust_9="32.17064"></scales>
<clustering>
<clus scale="   32.171">  2  9  1 -1</clus>
<clus scale="   86.730">  5  6 -1 -1</clus>
<clus scale="   91.269">  2  5  1 -1</clus>
<clus scale="   92.238">  7  8 -1 -1</clus>
<clus scale="   32.171">  2  5  1 -1</clus>
</clustering>
</event>
<event>
 9    1  0.1636528E-005  0.3855138E+03  0.7546771E-02  0.1049203E+00
          1   -1    0    0  502    0 -0.00000000000E+00  0.00000000000E+00  0.10478243184E+04  0.10478243184E+04  0.00000000000E+00 0. -1.
         21   -1    0    0  501  502  0.00000000000E+00 -0.00000000000E+00 -0.21648666670E+03  0.21648666670E+03  0.00000000000E+00 0. -1.
         23    2    1    2    0    0  0.34773677524E+02 -0.33331375980E+03  0.38414160165E+03  0.51951360359E+03  0.10011165306E+03 0.  0.
         23    2    1    2    0    0 -0.84680719761E+02  0.40871450329E+03  0.48588398006E+03  0.64644728787E+03  0.87134863427E+02 0.  0.
        -11    1    3    3    0    0  0.29047245790E+01 -0.31021665857E+03  0.33566415084E+03  0.45707027341E+03  0.00000000000E+00 0. -1.
         11    1    3    3    0    0  0.31868952945E+02 -0.23097101237E+02  0.48477450801E+02  0.62443330176E+02  0.00000000000E+00 0.  1.
        -13    1    4    4    0    0 -0.74457796126E+02  0.17739151834E+03  0.18623442166E+03  0.26775917163E+03  0.00000000000E+00 0.  1.
         13    1    4    4    0    0 -0.10222923635E+02  0.23132298495E+03  0.29964955840E+03  0.37868811624E+03  0.00000000000E+00 0. -1.
          1    1    1    2  501    0  0.49907042237E+02 -0.75400743483E+02 -0.38687930036E+02  0.98350093610E+02  0.00000000000E+00 0. -1.
<scales pt_clust_5="13000.00000" pt_clust_6="13000.00000" pt_clust_7="13000.00000" pt_clust_8="13000.00000" pt_clust_9="90.42115"></scales>
<clustering>
<clus scale="   87.135">  7  8 -1 -1</clus>
<clus scale="   90.421">  2  9  1 -1</clus>
<clus scale="  100.112">  5  6 -1 -1</clus>
<clus scale="  382.349">  2  7  1 -1</clus>
<clus scale="   90.421">  2  5  1 -1</clus>
</clustering>
</event>
<event>
 9    1  0.1636528E-005  0.8610583E+02  0.7546771E-02  0.1315335E+00
         21   -1    0    0  501  502  0.00000000000E+00  0.00000000000E+00  0.78464494928E+02  0.78464494928E+02  0.00000000000E+00 0. -1.
         -3   -1    0    0    0  501 -0.00000000000E+00 -0.00000000000E+00 -0.37325253244E+03  0.37325253244E+03  0.00000000000E+00 0.  1.
         23    2    1    2    0    0  0.16633752540E+02 -0.91316783665E+01 -0.28888350125E+03  0.30153657364E+03  0.84324128653E+02 0.  0.
         23    2    1    2    0    0  0.20439146338E+01  0.22586917018E+02 -0.52388917644E+02  0.98308530590E+02  0.80035130334E+02 0.  0.
        -13    1    3    3    0    0 -0.25130573465E+02 -0.26586873516E+02 -0.82504841694E+02  0.90252182627E+02  0.00000000000E+00 0.  1.
         13    1    3    3    0    0  0.41764326005E+02  0.17455195149E+02 -0.20637865955E+03  0.21128439101E+03  0.00000000000E+00 0. -1.
        -13    1    4    4    0    0 -0.22890151282E+02 -0.84712963322E+01 -0.53135283540E+02  0.58472901793E+02  0.00000000000E+00 0.  1.
         13    1    4    4    0    0  0.24934065916E+02  0.31058213350E+02  0.74636589627E+00  0.39835628797E+02  0.00000000000E+00 0. -1.
         -3    1    1    2    0  502 -0.18677667173E+02 -0.13455238652E+02  0.46484381380E+02  0.51871923142E+02  0.00000000000E+00 0.  1.
<scales pt_clust_5="13000.00000" pt_clust_6="13000.00000" pt_clust_7="13000.00000" pt_clust_8="13000.00000" pt_clust_9="23.01953"></scales>
<clustering>
<clus scale="   23.020">  1  9  2 -1</clus>
<clus scale="   80.035">  7  8 -1 -1</clus>
<clus scale="   81.910">  1  7  2 -1</clus>
<clus scale="   84.324">  5  6 -1 -1</clus>
<clus scale="   23.020">  1  5  2 -1</clus>
</clustering>
</event>
<event>
 9    1  0.1636528E-005  0.1302780E+03  0.7546771E-02  0.1227118E+00
          1   -1    0    0  502    0 -0.00000000000E+00  0.00000000000E+00  0.83328091998E+03  0.83328091998E+03  0.00000000000E+00 0. -1.
         21   -1    0    0  501  502  0.00000000000E+00 -0.00000000000E+00 -0.58972854107E+02  0.58972854107E+02  0.00000000000E+00 0. -1.
         23    2    1    2    0    0 -0.51405703129E+02 -0.38109064410E+02  0.33580944881E+03  0.35394041558E+03  0.91711421134E+02 0.  0.
         23    2    1    2    0    0  0.10196993856E+03  0.10800648903E+03  0.41287122769E+03  0.44831805330E+03  0.91995414120E+02 0.  0.
        -11    1    4    4    0    0  0.90136714152E+02  0.50395299225E+02  0.17421854303E+03  0.20252509513E+03  0.00000000000E+00 0. -1.
         11    1    4    4    0    0  0.11833224405E+02  0.57611189806E+02  0.23865268466E+03  0.24579295817E+03  0.00000000000E+00 0.  1.
        -13    1    3    3    0    0 -0.10801519006E+01 -0.56553181330E+02  0.14185730295E+03  0.15271844501E+03  0.00000000000E+00 0.  1.
         13    1    3    3    0    0 -0.50325551229E+02  0.18444116920E+02  0.19395214586E+03  0.20122197057E+03  0.00000000000E+00 0. -1.
          1    1    1    2  501    0 -0.50564235427E+02 -0.69897424621E+02  0.25627389371E+02  0.89995305205E+02  0.00000000000E+00 0. -1.
<scales pt_clust_5="13000.00000" pt_clust_6="13000.00000" pt_clust_7="13000.00000" pt_clust_8="13000.00000" pt_clust_9="86.26930"></scales>
<clustering>
<clus scale="   86.269">  2  9  1 -1</clus>
<clus scale="   91.711">  7  8 -1 -1</clus>
<clus scale="   91.995">  5  6 -1 -1</clus>
<clus scale="  130.078">  1  7  2 -1</clus>
<clus scale="   86.269">  2  5  1 -1</clus>
</clustering>
</event>
<event>
 9    1  0.2170264E-005  0.9282542E+02  0.7546771E-02  0.1298802E+00
          4   -1    0    0  502    0 -0.00000000000E+00  0.00000000000E+00  0.11794026278E+03  0.11794026278E+03  0.00000000000E+00 0. -1.
         21   -1    0    0  501  502  0.00000000000E+00 -0.00000000000E+00 -0.40567554430E+03  0.40567554430E+03  0.00000000000E+00 0. -1.
         23    2    1    2    0    0 -0.20691808968E+02 -0.17281938193E+02  0.70578926646E+02  0.11818295028E+03  0.90879087271E+02 0.  0.
         23    2    1    2    0    0  0.25646005158E+01 -0.34865178006E+02 -0.83382831282E+02  0.12501320805E+03  0.86333352888E+02 0.  0.
        -11    1    4    4    0    0 -0.23471432801E+01  0.25244401256E+02 -0.50049142683E+02  0.56104416579E+02  0.00000000000E+00 0.  1.
         11    1    4    4    0    0  0.49117437959E+01 -0.60109579262E+02 -0.33333688599E+02  0.68908791470E+02  0.00000000000E+00 0. -1.
        -13    1    3    3    0    0  0.55872587424E+01 -0.42792831754E+02  0.69172562384E+02  0.81530897803E+02  0.00000000000E+00 0. -1.
         13    1    3    3    0    0 -0.26279067710E+02  0.25510893561E+02  0.14063642618E+01  0.36652052472E+02  0.00000000000E+00 0.  1.
          4    1    1    2  501    0  0.18127208452E+02  0.52147116200E+02 -0.27493137688E+03  0.28041964876E+03  0.00000000000E+00 0. -1.
<scales pt_clust_5="13000.00000" pt_clust_6="13000.00000" pt_clust_7="13000.00000" pt_clust_8="13000.00000" pt_clust_9="55.20795"></scales>
<clustering>
<clus scale="   55.208">  2  9  1 -1</clus>
<clus scale="   86.333">  5  6 -1 -1</clus>
<clus scale="   88.380">  2  5  1 -1</clus>
<clus scale="   90.879">  7  8 -1 -1</clus>
<clus scale="   55.208">  2  5  1 -1</clus>
</clustering>
</event>
<event>
 9    1  0.1636528E-005  0.1002702E+03  0.7546771E-02  0.1283404E+00
          1   -1    0    0  502    0 -0.00000000000E+00  0.00000000000E+00  0.11448719334E+03  0.11448719334E+03  0.00000000000E+00 0. -1.
         21   -1    0    0  501  502  0.00000000000E+00 -0.00000000000E+00 -0.11199259814E+03  0.11199259814E+03  0.00000000000E+00 0. -1.
         23    2    1    2    0    0 -0.36217339042E+02  0.33702512981E+02  0.14611940745E+02  0.99581256902E+02  0.85178417955E+02 0.  0.
         23    2    1    2    0    0  0.17620318440E+02 -0.14877741573E+02 -0.23284941776E+02  0.98176828514E+02  0.92545547312E+02 0.  0.
        -13    1    4    4    0    0 -0.21159146833E+02 -0.80297053838E+01  0.26403774278E+02  0.34775637440E+02  0.00000000000E+00 0.  1.
         13    1    4    4    0    0  0.38779465273E+02 -0.68480361893E+01 -0.49688716053E+02  0.63401191074E+02  0.00000000000E+00 0. -1.
        -13    1    3    3    0    0 -0.13816340477E+02 -0.28251009521E+02 -0.24037067566E+01  0.31540269645E+02  0.00000000000E+00 0.  1.
         13    1    3    3    0    0 -0.22400998565E+02  0.61953522501E+02  0.17015647502E+02  0.68040987257E+02  0.00000000000E+00 0. -1.
          1    1    1    2  501    0  0.18597020602E+02 -0.18824771408E+02  0.11167596224E+02  0.28721706065E+02  0.00000000000E+00 0. -1.
<scales pt_clust_5="13000.00000" pt_clust_6="13000.00000" pt_clust_7="13000.00000" pt_clust_8="13000.00000" pt_clust_9="26.46171"></scales>
<clustering>
<clus scale="   26.462">  2  9  1 -1</clus>
<clus scale="   85.178">  7  8 -1 -1</clus>
<clus scale="   92.546">  5  6 -1 -1</clus>
<clus scale="   93.514">  1  7  2 -1</clus>
<clus scale="   26.462">  2  5  1 -1</clus>
</clustering>
</event>
<event>
 9    1  0.1636528E-005  0.9094155E+02  0.7546771E-02  0.1302023E+00
         21   -1    0    0  501  502  0.00000000000E+00  0.00000000000E+00  0.84284724112E+02  0.84284724112E+02  0.00000000000E+00 0.  1.
          1   -1    0    0  502    0 -0.00000000000E+00 -0.00000000000E+00 -0.34530683589E+03  0.34530683589E+03  0.00000000000E+00 0. -1.
         23    2    1    2    0    0  0.25275118839E+02  0.26995050658E+02 -0.17987862063E+03  0.20269704672E+03  0.85803322753E+02 0.  0.
         23    2    1    2    0    0  0.44325189326E+02 -0.13553408744E+02 -0.11169367600E+03  0.14970517187E+03  0.88248195036E+02 0.  0.
        -11    1    4    4    0    0  0.66756995226E+02  0.95768514508E+01 -0.74214195649E+02  0.10027940632E+03  0.00000000000E+00 0.  1.
         11    1    4    4    0    0 -0.22431805899E+02 -0.23130260195E+02 -0.37479480356E+02  0.49425765552E+02  0.00000000000E+00 0. -1.
        -11    1    3    3    0    0 -0.26535354899E+02  0.31631733516E+02 -0.84889374061E+02  0.94397550038E+02  0.00000000000E+00 0. -1.
         11    1    3    3    0    0  0.51810473738E+02 -0.46366828578E+01 -0.94989246568E+02  0.10829949668E+03  0.00000000000E+00 0.  1.
          1    1    1    2  501    0 -0.69600308166E+02 -0.13441641914E+02  0.30550184854E+02  0.77189341419E+02  0.00000000000E+00 0. -1.
<scales pt_clust_5="13000.00000" pt_clust_6="13000.00000" pt_clust_7="13000.00000" pt_clust_8="13000.00000" pt_clust_9="70.88639"></scales>
<clustering>
<clus scale="   70.886">  1  9  2 -1</clus>
<clus scale="   85.803">  7  8 -1 -1</clus>
<clus scale="   88.248">  5  6 -1 -1</clus>
<clus scale="   88.571">  2  7  1 -1</clus>
<clus scale="   70.886">  1  5  2 -1</clus>
</clustering>
</event>
<event>
 9    1  0.1636528E-005  0.1036340E+03  0.7546771E-02  0.1272960E+00
          4   -1    0    0  502    0 -0.00000000000E+00  0.00000000000E+00  0.13589364555E+03  0.13589364555E+03  0.00000000000E+00 0. -1.
         21   -1    0    0  501  502  0.00000000000E+00 -0.00000000000E+00 -0.14687462387E+03  0.14687462387E+03  0.00000000000E+00 0. -1.
         23    2    1    2    0    0 -0.17164064874E+02  0.43864525883E+02  0.49915475847E+02  0.11447448111E+03  0.91619595839E+02 0.  0.
         23    2    1    2    0    0 -0.16499874353E+01 -0.53208857060E+02 -0.19726976666E+01  0.10573746035E+03  0.91337911386E+02 0.  0.
        -11    1    3    3    0    0 -0.42161919946E+02  0.63445297190E+01  0.54455896723E+02  0.69161587886E+02  0.00000000000E+00 0. -1.
         11    1    3    3    0    0  0.24997855072E+02  0.37519996164E+02 -0.45404208761E+01  0.45312893222E+02  0.00000000000E+00 0.  1.
        -13    1    4    4    0    0 -0.14290946951E+02  0.14823010042E+02 -0.25386895598E+02  0.32687111521E+02  0.00000000000E+00 0.  1.
         13    1    4    4    0    0  0.12640959516E+02 -0.68031867102E+02  0.23414197931E+02  0.73050348826E+02  0.00000000000E+00 0. -1.
          4    1    1    2  501    0  0.18814052309E+02  0.93443311770E+01 -0.58923756498E+02  0.62556327972E+02  0.00000000000E+00 0. -1.
<scales pt_clust_5="13000.00000" pt_clust_6="13000.00000" pt_clust_7="13000.00000" pt_clust_8="13000.00000" pt_clust_9="21.00679"></scales>
<clustering>
<clus scale="   21.007">  2  9  1 -1</clus>
<clus scale="   91.338">  7  8 -1 -1</clus>
<clus scale="   91.620">  5  6 -1 -1</clus>
<clus scale="  103.385">  2  7  1 -1</clus>
<clus scale="   21.007">  2  5  1 -1</clus>
</clustering>
</event>
<event>
 9    1  0.1636528E-005  0.1930454E+03  0.7546771E-02  0.1155796E+00
         21   -1    0    0  501  502  0.00000000000E+00  0.00000000000E+00  0.98423939151E+02  0.98423939151E+02  0.00000000000E+00 0. -1.
          2   -1    0    0  502    0 -0.00000000000E+00 -0.00000000000E+00 -0.63703438825E+03  0.63703438825E+03  0.00000000000E+00 0. -1.
         23    2    1    2    0    0  0.38493652599E+01  0.16051539785E+03 -0.24527659340E+03  0.30722252519E+03  0.91897019299E+02 0.  0.
         23    2    1    2    0    0 -0.78586830318E+02 -0.16964996627E+03 -0.28402376293E+03  0.35236876819E+03  0.92397239850E+02 0.  0.
        -11    1    3    3    0    0 -0.25450713750E+02  0.28810062951E+02 -0.10844472330E+03  0.11505657986E+03  0.00000000000E+00 0. -1.
         11    1    3    3    0    0  0.29300079009E+02  0.13170533490E+03 -0.13683187010E+03  0.19216594533E+03  0.00000000000E+00 0.  1.
        -11    1    4    4    0    0 -0.32348960602E+02 -0.28925180940E+02 -0.13682392496E+03  0.14354061372E+03  0.00000000000E+00 0. -1.
         11    1    4    4    0    0 -0.46237869716E+02 -0.14072478533E+03 -0.14719983797E+03  0.20882815447E+03  0.00000000000E+00 0.  1.
          2    1    1    2  501    0  0.74737465058E+02  0.91345684268E+01 -0.93100927702E+01  0.75867034020E+02  0.00000000000E+00 0. -1.
<scales pt_clust_5="13000.00000" pt_clust_6="13000.00000" pt_clust_7="13000.00000" pt_clust_8="13000.00000" pt_clust_9="75.29362"></scales>
<clustering>
<clus scale="   75.294">  1  9  2 -1</clus>
<clus scale="   91.897">  5  6 -1 -1</clus>
<clus scale="   92.397">  7  8 -1 -1</clus>
<clus scale="  192.806">  2  5  1 -1</clus>
<clus scale="   75.294">  1  5  2 -1</clus>
</clustering>
</event>
<event>
 9    1  0.1636528E-005  0.1237229E+03  0.7546771E-02  0.1237582E+00
          1   -1    0    0  502    0 -0.00000000000E+00  0.00000000000E+00  0.54695849217E+02  0.54695849217E+02  0.00000000000E+00 0. -1.
         21   -1    0    0  501  502  0.00000000000E+00 -0.00000000000E+00 -0.35778153688E+03  0.35778153688E+03  0.00000000000E+00 0.  1.
         23    2    1    2    0    0  0.41432548674E+02  0.69554050798E+02 -0.10204140531E+03  0.15807353947E+03  0.89556537506E+02 0.  0.
         23    2    1    2    0    0 -0.25993471223E+02 -0.84084045108E+02 -0.13575762430E+03  0.18576104973E+03  0.91275669552E+02 0.  0.
        -11    1    4    4    0    0  0.20864005293E+02 -0.76479287501E+02 -0.82359419600E+02  0.11431300071E+03  0.00000000000E+00 0.  1.
         11    1    4    4    0    0 -0.46857476516E+02 -0.76047576069E+01 -0.53398204703E+02  0.71448049023E+02  0.00000000000E+00 0. -1.
        -11    1    3    3    0    0  0.37114311490E+02  0.28299133916E+02  0.13287317378E+01  0.46691312102E+02  0.00000000000E+00 0. -1.
         11    1    3    3    0    0  0.43182371842E+01  0.41254916883E+02 -0.10337013705E+03  0.11138222737E+03  0.00000000000E+00 0.  1.
          1    1    1    2  501    0 -0.15439077451E+02  0.14529994309E+02 -0.65286658047E+02  0.68642796899E+02  0.00000000000E+00 0. -1.
<scales pt_clust_5="13000.00000" pt_clust_6="13000.00000" pt_clust_7="13000.00000" pt_clust_8="13000.00000" pt_clust_9="21.20108"></scales>
<clustering>
<clus scale="   21.201">  2  9  1 -1</clus>
<clus scale="   89.557">  7  8 -1 -1</clus>
<clus scale="   91.276">  5  6 -1 -1</clus>
<clus scale="  122.460">  1  7  2 -1</clus>
<clus scale="   21.201">  2  5  1 -1</clus>
</clustering>
</event>
<event>
 9    1  0.1636528E-005  0.2126106E+03  0.7546771E-02  0.1139677E+00
         21   -1    0    0  501  502  0.00000000000E+00  0.00000000000E+00  0.21217510061E+03  0.21217510061E+03  0.00000000000E+00 0.  1.
         -4   -1    0    0    0  501 -0.00000000000E+00 -0.00000000000E+00 -0.33621355426E+03  0.33621355426E+03  0.00000000000E+00 0.  1.
         23    2    1    2    0    0 -0.19905274101E+03 -0.48206591554E+02 -0.15245681036E+03  0.27151207362E+03  0.92357229939E+02 0.  0.
         23    2    1    2    0    0  0.16316011263E+03  0.61076626529E+02 -0.38339107150E+02  0.19999695096E+03  0.90428516499E+02 0.  0.
        -11    1    4    4    0    0 -0.42586409805E+01  0.23043577896E+02  0.23663021861E+01  0.23552959289E+02  0.00000000000E+00 0.  1.
         11    1    4    4    0    0  0.16741875361E+03  0.38033048632E+02 -0.40705409336E+02  0.17644399168E+03  0.00000000000E+00 0. -1.
        -13    1    3    3    0    0 -0.13542395142E+03 -0.63504850154E+02 -0.67048916241E+02  0.16391482477E+03  0.00000000000E+00 0.  1.
         13    1    3    3    0    0 -0.63628789590E+02  0.15298258600E+02 -0.85407894122E+02  0.10759724885E+03  0.00000000000E+00 0. -1.
         -4    1    1    2    0  502  0.35892628377E+02 -0.12870034975E+02  0.66757463858E+02  0.76879630285E+02  0.00000000000E+00 0.  1.
<scales pt_clust_5="13000.00000" pt_clust_6="13000.00000" pt_clust_7="13000.00000" pt_clust_8="13000.00000" pt_clust_9="38.13028"></scales>
<clustering>
<clus scale="   38.130">  1  9  2 -1</clus>
<clus scale="   90.429">  5  6 -1 -1</clus>
<clus scale="   92.357">  7  8 -1 -1</clus>
<clus scale="  211.780">  1  5  2 -1</clus>
<clus scale="   38.130">  1  5  2 -1</clus>
</clustering>
</event>
<event>
 9    1  0.1636528E-005  0.1165658E+03  0.7546771E-02  0.1248966E+00
         21   -1    0    0  501  502  0.00000000000E+00  0.00000000000E+00  0.95911765697E+02  0.95911765697E+02  0.00000000000E+00 0. -1.
         -1   -1    0    0    0  501 -0.00000000000E+00 -0.00000000000E+00 -0.37552778356E+03  0.37552778356E+03  0.00000000000E+00 0.  1.
         23    2    1    2    0    0 -0.26455461437E+02  0.60636445763E+02 -0.21875304706E+03  0.24617407379E+03  0.91499229581E+02 0.  0.
         23    2    1    2    0    0  0.13182856466E+02 -0.85511320727E+02 -0.11101980811E+03  0.16772740307E+03  0.91220119877E+02 0.  0.
        -11    1    3    3    0    0  0.22629918727E+02 -0.90307639983E+01 -0.27192533918E+02  0.36511666914E+02  0.00000000000E+00 0. -1.
         11    1    3    3    0    0 -0.49085380164E+02  0.69667209761E+02 -0.19156051314E+03  0.20966240688E+03  0.00000000000E+00 0.  1.
        -11    1    4    4    0    0 -0.24323977654E+02 -0.83517755211E+02 -0.87662531451E+02  0.12349733092E+03  0.00000000000E+00 0.  1.
         11    1    4    4    0    0  0.37506834120E+02 -0.19935655158E+01 -0.23357276658E+02  0.44230072146E+02  0.00000000000E+00 0. -1.
         -1    1    1    2    0  502  0.13272604971E+02  0.24874874964E+02  0.50156837304E+02  0.57538072400E+02  0.00000000000E+00 0.  1.
<scales pt_clust_5="13000.00000" pt_clust_6="13000.00000" pt_clust_7="13000.00000" pt_clust_8="13000.00000" pt_clust_9="28.19435"></scales>
<clustering>
<clus scale="   28.194">  1  9  2 -1</clus>
<clus scale="   91.220">  7  8 -1 -1</clus>
<clus scale="   91.499">  5  6 -1 -1</clus>
<clus scale="  116.347">  1  7  2 -1</clus>
<clus scale="   28.194">  1  5  2 -1</clus>
</clustering>
</event>
<event>
 9    1  0.1636528E-005  0.1017035E+03  0.7546771E-02  0.1277003E+00
         -1   -1    0    0    0  501 -0.00000000000E+00  0.00000000000E+00  0.14277335233E+03  0.14277335233E+03  0.00000000000E+00 0.  1.
         21   -1    0    0  501  502  0.00000000000E+00 -0.00000000000E+00 -0.97465019388E+02  0.97465019388E+02  0.00000000000E+00 0.  1.
         23    2    1    2    0    0  0.13255500304E+02  0.54416064870E+02  0.38885096792E+02  0.11416261656E+03  0.91565473091E+02 0.  0.
         23    2    1    2    0    0 -0.99349598294E+01 -0.30453577669E+02  0.19686362644E+02  0.98487038143E+02  0.91027578175E+02 0.  0.
        -11    1    4    4    0    0  0.37883588261E+02 -0.13653693659E+02  0.25200319000E+02  0.47504164952E+02  0.00000000000E+00 0.  1.
         11    1    4    4    0    0 -0.47818548090E+02 -0.16799884010E+02 -0.55139563560E+01  0.50982873192E+02  0.00000000000E+00 0. -1.
        -13    1    3    3    0    0 -0.95922404640E+01  0.62443415954E+02  0.56068967755E+02  0.84468458127E+02  0.00000000000E+00 0.  1.
         13    1    3    3    0    0  0.22847740768E+02 -0.80273510845E+01 -0.17183870963E+02  0.29694158430E+02  0.00000000000E+00 0. -1.
         -1    1    1    2    0  502 -0.33205404742E+01 -0.23962487201E+02 -0.13263126499E+02  0.27588717013E+02  0.00000000000E+00 0.  1.
<scales pt_clust_5="13000.00000" pt_clust_6="13000.00000" pt_clust_7="13000.00000" pt_clust_8="13000.00000" pt_clust_9="24.19146"></scales>
<clustering>
<clus scale="   24.191">  2  9  1 -1</clus>
<clus scale="   91.028">  5  6 -1 -1</clus>
<clus scale="   91.565">  7  8 -1 -1</clus>
<clus scale="  101.220">  2  5  1 -1</clus>
<clus scale="   24.191">  2  5  1 -1</clus>
</clustering>
</event>
<event>
 9    1  0.1636528E-005  0.1404192E+03  0.7546771E-02  0.1224575E+00
          1   -1    0    0  502    0 -0.00000000000E+00  0.00000000000E+00  0.16386332122E+03  0.16386332122E+03  0.00000000000E+00 0. -1.
         21   -1    0    0  501  502  0.00000000000E+00 -0.00000000000E+00 -0.32043290870E+03  0.32043290870E+03  0.00000000000E+00 0. -1.
         23    2    1    2    0    0 -0.72372236015E+02  0.20507411832E+02  0.42263555751E+02  0.14904076078E+03  0.12152631709E+03 0.  0.
         23    2    1    2    0    0  0.52952998448E+02 -0.44643094446E+02  0.23032959755E+02  0.11123715378E+03  0.83941415408E+02 0.  0.
        -11    1    4    4    0    0  0.10546191721E+02 -0.51849629075E+02 -0.13717932988E+02  0.54660661179E+02  0.00000000000E+00 0.  1.
         11    1    4    4    0    0  0.42406806727E+02  0.72065346291E+01  0.36750892743E+02  0.56576492606E+02  0.00000000000E+00 0. -1.
        -13    1    3    3    0    0 -0.51839996672E+02  0.40361652727E+02 -0.29338237173E+02  0.71952626263E+02  0.00000000000E+00 0.  1.
         13    1    3    3    0    0 -0.20532239343E+02 -0.19854240895E+02  0.71601792924E+02  0.77088134521E+02  0.00000000000E+00 0. -1.
          1    1    1    2  501    0  0.19419237567E+02  0.24135682614E+02 -0.22186610298E+03  0.22401831536E+03  0.00000000000E+00 0. -1.
<scales pt_clust_5="13000.00000" pt_clust_6="13000.00000" pt_clust_7="13000.00000" pt_clust_8="13000.00000" pt_clust_9="30.97802"></scales>
<clustering>
<clus scale="   30.978">  2  9  1 -1</clus>
<clus scale="   83.941">  5  6 -1 -1</clus>
<clus scale="  109.522">  2  5  1 -1</clus>
<clus scale="  121.526">  7  8 -1 -1</clus>
<clus scale="   30.978">  2  5  1 -1</clus>
</clustering>
</event>
<event>
 9    1  0.1636528E-005  0.1649264E+03  0.7546771E-02  0.1183419E+00
         21   -1    0    0  501  502  0.00000000000E+00  0.00000000000E+00  0.16527935813E+03  0.16527935813E+03  0.00000000000E+00 0. -1.
          2   -1    0    0  502    0 -0.00000000000E+00 -0.00000000000E+00 -0.38483046627E+03  0.38483046627E+03  0.00000000000E+00 0.  1.
         23    2    1    2    0    0 -0.79810296325E+02  0.11364761203E+03 -0.24800780424E+03  0.29843155957E+03  0.90928882451E+02 0.  0.
         23    2    1    2    0    0  0.36545864945E+02 -0.13283739203E+03  0.79008683463E+02  0.18242826767E+03  0.89757048854E+02 0.  0.
        -11    1    3    3    0    0 -0.47329546371E+02  0.79211334988E+02 -0.74538197895E+02  0.11861898876E+03  0.00000000000E+00 0.  1.
         11    1    3    3    0    0 -0.32480749954E+02  0.34436277043E+02 -0.17346960634E+03  0.17981257080E+03  0.00000000000E+00 0. -1.
        -13    1    4    4    0    0 -0.12261319542E+02 -0.33975294470E+02 -0.13444762341E+02  0.38541175717E+02  0.00000000000E+00 0.  1.
         13    1    4    4    0    0  0.48807184487E+02 -0.98862097557E+02  0.92453445804E+02  0.14388709196E+03  0.00000000000E+00 0. -1.
          2    1    1    2  501    0  0.43264431380E+02  0.19189779996E+02 -0.50551987363E+02  0.69249997150E+02  0.00000000000E+00 0.  1.
<scales pt_clust_5="13000.00000" pt_clust_6="13000.00000" pt_clust_7="13000.00000" pt_clust_8="13000.00000" pt_clust_9="47.32928"></scales>
<clustering>
<clus scale="   47.329">  1  9  2 -1</clus>
<clus scale="   89.757">  7  8 -1 -1</clus>
<clus scale="   90.929">  5  6 -1 -1</clus>
<clus scale="  164.283">  1  7  2 -1</clus>
<clus scale="   47.329">  1  5  2 -1</clus>
</clustering>
</event>
<event>
 9    1  0.1636528E-005  0.1558942E+03  0.7546771E-02  0.1193599E+00
          2   -1    0    0  502    0 -0.00000000000E+00  0.00000000000E+00  0.85702999520E+03  0.85702999520E+03  0.00000000000E+00 0. -1.
         21   -1    0    0  501  502  0.00000000000E+00 -0.00000000000E+00 -0.49772755067E+02  0.49772755067E+02  0.00000000000E+00 0. -1.
         23    2    1    2    0    0 -0.15397705716E+03 -0.84032486015E+01  0.57993054696E+03  0.60687763083E+03  0.90561972056E+02 0.  0.
         23    2    1    2    0    0  0.81965586644E+02 -0.86177270813E+01  0.14332400712E+03  0.18797952210E+03  0.89453379475E+02 0.  0.
        -11    1    3    3    0    0 -0.75641931924E+02  0.66128333044E+01  0.13530337585E+03  0.15515294050E+03  0.00000000000E+00 0.  1.
         11    1    3    3    0    0 -0.78335125235E+02 -0.15016081906E+02  0.44462717111E+03  0.45172469033E+03  0.00000000000E+00 0. -1.
        -13    1    4    4    0    0  0.32404059982E+02 -0.14624758253E+02 -0.68934669377E+00  0.35558147535E+02  0.00000000000E+00 0.  1.
         13    1    4    4    0    0  0.49561526661E+02  0.60070311716E+01  0.14401335382E+03  0.15242137457E+03  0.00000000000E+00 0. -1.
          2    1    1    2  501    0  0.72011470515E+02  0.17020975683E+02  0.84002686054E+02  0.11194559734E+03  0.00000000000E+00 0. -1.
<scales pt_clust_5="13000.00000" pt_clust_6="13000.00000" pt_clust_7="13000.00000" pt_clust_8="13000.00000" pt_clust_9="73.99571"></scales>
<clustering>
<clus scale="   73.996">  2  9  1 -1</clus>
<clus scale="   89.453">  7  8 -1 -1</clus>
<clus scale="   90.562">  5  6 -1 -1</clus>
<clus scale="  155.253">  2  7  1 -1</clus>
<clus scale="   73.996">  2  5  1 -1</clus>
</clustering>
</event>
<event>
 9    1  0.1636528E-005  0.1149967E+03  0.7546771E-02  0.1253634E+00
         21   -1    0    0  501  502  0.00000000000E+00  0.00000000000E+00  0.12856986883E+03  0.12856986883E+03  0.00000000000E+00 0. -1.
          1   -1    0    0  502    0 -0.00000000000E+00 -0.00000000000E+00 -0.30019276647E+03  0.30019276647E+03  0.00000000000E+00 0. -1.
         23    2    1    2    0    0 -0.80937541217E+02  0.19445840797E+02 -0.19716172754E+03  0.23240235005E+03  0.90603969015E+02 0.  0.
         23    2    1    2    0    0  0.10888916124E+02 -0.31069573855E+02 -0.30281657077E+02  0.10603948026E+03  0.96143152146E+02 0.  0.
        -11    1    3    3    0    0 -0.35756325327E+01 -0.30585376053E+02 -0.45163972853E+02  0.54662919975E+02  0.00000000000E+00 0. -1.
         11    1    3    3    0    0 -0.77361908684E+02  0.50031216850E+02 -0.15199775469E+03  0.17773943008E+03  0.00000000000E+00 0.  1.
        -11    1    4    4    0    0  0.52215252818E+02 -0.29426394941E+02 -0.13711118375E+02  0.61484470504E+02  0.00000000000E+00 0. -1.
         11    1    4    4    0    0 -0.41326336694E+02 -0.16431789135E+01 -0.16570538702E+02  0.44555009756E+02  0.00000000000E+00 0.  1.
          1    1    1    2  501    0  0.70048625093E+02  0.11623733057E+02  0.55820486971E+02  0.90320804985E+02  0.00000000000E+00 0. -1.
<scales pt_clust_5="13000.00000" pt_clust_6="13000.00000" pt_clust_7="13000.00000" pt_clust_8="13000.00000" pt_clust_9="71.00649"></scales>
<clustering>
<clus scale="   71.006">  1  9  2 -1</clus>
<clus scale="   90.604">  5  6 -1 -1</clus>
<clus scale="   96.143">  7  8 -1 -1</clus>
<clus scale="  110.408">  2  5  1 -1</clus>
<clus scale="   71.006">  1  5  2 -1</clus>
</clustering>
</event>
<event>
 9    1  0.1636528E-005  0.1165437E+03  0.7546771E-02  0.1249887E+00
          2   -1    0    0  502    0 -0.00000000000E+00  0.00000000000E+00  0.44668063701E+03  0.44668063701E+03  0.00000000000E+00 0. -1.
         21   -1    0    0  501  502  0.00000000000E+00 -0.00000000000E+00 -0.24364484399E+03  0.24364484399E+03  0.00000000000E+00 0.  1.
         23    2    1    2    0    0 -0.18394177729E+02 -0.68132437314E+02  0.38534459113E+03  0.40213391422E+03  0.90779162086E+02 0.  0.
         23    2    1    2    0    0  0.37730619863E+02  0.92008942418E+02 -0.34347624618E+02  0.13707408151E+03  0.87865233998E+02 0.  0.
        -13    1    3    3    0    0  0.91642716214E+01  0.19855394101E+02  0.55750039679E+02  0.59885619923E+02  0.00000000000E+00 0.  1.
         13    1    3    3    0    0 -0.27558449350E+02 -0.87987831415E+02  0.32959455145E+03  0.34224829430E+03  0.00000000000E+00 0. -1.
        -13    1    4    4    0    0  0.65545686302E+02  0.50601114461E+02 -0.20505421844E+02  0.85306401299E+02  0.00000000000E+00 0. -1.
         13    1    4    4    0    0 -0.27815066439E+02  0.41407827957E+02 -0.13842202773E+02  0.51767680214E+02  0.00000000000E+00 0.  1.
          2    1    1    2  501    0 -0.19336442134E+02 -0.23876505104E+02 -0.14796117349E+03  0.15111748526E+03  0.00000000000E+00 0. -1.
<scales pt_clust_5="13000.00000" pt_clust_6="13000.00000" pt_clust_7="13000.00000" pt_clust_8="13000.00000" pt_clust_9="30.72435"></scales>
<clustering>
<clus scale="   30.724">  2  9  1 -1</clus>
<clus scale="   87.865">  7  8 -1 -1</clus>
<clus scale="   90.779">  5  6 -1 -1</clus>
<clus scale="  114.289">  2  7  1 -1</clus>
<clus scale="   30.724">  2  5  1 -1</clus>
</clustering>
</event>
<event>
 9    1  0.1636528E-005  0.9025397E+02  0.7546771E-02  0.1302611E+00
          2   -1    0    0  502    0 -0.00000000000E+00  0.00000000000E+00  0.14250213097E+03  0.14250213097E+03  0.00000000000E+00 0. -1.
         21   -1    0    0  501  502  0.00000000000E+00 -0.00000000000E+00 -0.12625345099E+03  0.12625345099E+03  0.00000000000E+00 0. -1.
         23    2    1    2    0    0 -0.26672182792E+01 -0.49917871577E+01  0.64743056964E+02  0.11052002030E+03  0.89392278580E+02 0.  0.
         23    2    1    2    0    0 -0.36784206728E+02  0.13703947126E+02 -0.26063289274E+01  0.97096133950E+02  0.88769309145E+02 0.  0.
        -11    1    4    4    0    0 -0.22814190152E+02 -0.35352860842E+02 -0.14887561745E+02  0.44631284282E+02  0.00000000000E+00 0.  1.
         11    1    4    4    0    0 -0.13970016576E+02  0.49056807968E+02  0.12281232817E+02  0.52464849668E+02  0.00000000000E+00 0. -1.
        -11    1    3    3    0    0  0.59076691721E+01 -0.46563705976E+02  0.30424192992E+02  0.55934879892E+02  0.00000000000E+00 0. -1.
         11    1    3    3    0    0 -0.85748874513E+01  0.41571918819E+02  0.34318863972E+02  0.54585140409E+02  0.00000000000E+00 0.  1.
          2    1    1    2  501    0  0.39451425007E+02 -0.87121599688E+01 -0.45888048055E+02  0.61139427710E+02  0.00000000000E+00 0. -1.
<scales pt_clust_5="13000.00000" pt_clust_6="13000.00000" pt_clust_7="13000.00000" pt_clust_8="13000.00000" pt_clust_9="40.40194"></scales>
<clustering>
<clus scale="   40.402">  2  9  1 -1</clus>
<clus scale="   88.769">  5  6 -1 -1</clus>
<clus scale="   89.392">  7  8 -1 -1</clus>
<clus scale="   89.637">  2  5  1 -1</clus>
<clus scale="   40.402">  2  5  1 -1</clus>
</clustering>
</event>
<event>
 9    1  0.1636528E-005  0.1150029E+03  0.7546771E-02  0.1252428E+00
         21   -1    0    0  501  502  0.00000000000E+00  0.00000000000E+00  0.71886018747E+03  0.71886018747E+03  0.00000000000E+00 0.  1.
         -3   -1    0    0    0  501 -0.00000000000E+00 -0.00000000000E+00 -0.45864747318E+02  0.45864747318E+02  0.00000000000E+00 0.  1.
         23    2    1    2    0    0 -0.75913847616E+02  0.59804134975E+02  0.10989495659E+03  0.17256227419E+03  0.91440637412E+02 0.  0.
         23    2    1    2    0    0  0.18177416683E+02 -0.53515883814E+01  0.21856689394E+03  0.23860648449E+03  0.93821689055E+02 0.  0.
        -11    1    3    3    0    0  0.23127863061E+01  0.41275981624E+02  0.69081084584E+01  0.41913930882E+02  0.00000000000E+00 0. -1.
         11    1    3    3    0    0 -0.78226633923E+02  0.18528153351E+02  0.10298684813E+03  0.13064834331E+03  0.00000000000E+00 0.  1.
        -11    1    4    4    0    0 -0.19514743585E+02 -0.23403779677E+02  0.21842931577E+02  0.37492342955E+02  0.00000000000E+00 0.  1.
         11    1    4    4    0    0  0.37692160268E+02  0.18052191296E+02  0.19672396236E+03  0.20111414153E+03  0.00000000000E+00 0. -1.
         -3    1    1    2    0  502  0.57736430933E+02 -0.54452546594E+02  0.34453358962E+03  0.35355617610E+03  0.00000000000E+00 0.  1.
<scales pt_clust_5="13000.00000" pt_clust_6="13000.00000" pt_clust_7="13000.00000" pt_clust_8="13000.00000" pt_clust_9="79.36356"></scales>
<clustering>
<clus scale="   79.364">  1  9  2 -1</clus>
<clus scale="   91.441">  5  6 -1 -1</clus>
<clus scale="   93.822">  7  8 -1 -1</clus>
<clus scale="  113.069">  2  5  1 -1</clus>
<clus scale="   79.364">  1  5  2 -1</clus>
</clustering>
</event>
<event>
 9    1  0.1636528E-005  0.1063349E+03  0.7546771E-02  0.1267966E+00
         -3   -1    0    0    0  501 -0.00000000000E+00  0.00000000000E+00  0.13491392192E+03  0.13491392192E+03  0.00000000000E+00 0.  1.
         21   -1    0    0  501  502  0.00000000000E+00 -0.00000000000E+00 -0.28219565657E+03  0.28219565657E+03  0.00000000000E+00 0.  1.
         23    2    1    2    0    0 -0.50693485004E+02  0.14747388319E+02  0.86137135066E+02  0.13730900022E+03  0.92988389706E+02 0.  0.
         23    2    1    2    0    0  0.38792936897E+02  0.25111340274E+02 -0.12173713198E+03  0.16062360133E+03  0.94045417954E+02 0.  0.
        -13    1    4    4    0    0  0.56796409947E+02  0.72443533470E+01 -0.28422208346E+02  0.63922881393E+02  0.00000000000E+00 0. -1.
         13    1    4    4    0    0 -0.18003473049E+02  0.17866986927E+02 -0.93314923632E+02  0.96700719936E+02  0.00000000000E+00 0.  1.
        -13    1    3    3    0    0  0.27379688038E+02  0.64269762507E+01  0.27295298260E+02  0.39191665541E+02  0.00000000000E+00 0. -1.
         13    1    3    3    0    0 -0.78073173042E+02  0.83204120688E+01  0.58841836806E+02  0.98117334679E+02  0.00000000000E+00 0.  1.
         -3    1    1    2    0  502  0.11900548107E+02 -0.39858728594E+02 -0.11168173774E+03  0.11917697695E+03  0.00000000000E+00 0.  1.
<scales pt_clust_5="13000.00000" pt_clust_6="13000.00000" pt_clust_7="13000.00000" pt_clust_8="13000.00000" pt_clust_9="41.59737"></scales>
<clustering>
<clus scale="   41.597">  2  9  1 -1</clus>
<clus scale="   92.988">  7  8 -1 -1</clus>
<clus scale="   94.045">  5  6 -1 -1</clus>
<clus scale="  105.401">  1  7  2 -1</clus>
<clus scale="   41.597">  2  5  1 -1</clus>
</clustering>
</event>
<event>
 9    1  0.1636528E-005  0.1088024E+03  0.7546771E-02  0.1263212E+00
          1   -1    0    0  502    0 -0.00000000000E+00  0.00000000000E+00  0.19787233918E+03  0.19787233918E+03  0.00000000000E+00 0. -1.
         21   -1    0    0  501  502  0.00000000000E+00 -0.00000000000E+00 -0.10310867997E+03  0.10310867997E+03  0.00000000000E+00 0. -1.
         23    2    1    2    0    0 -0.22564376313E+02 -0.83332000594E+02  0.83042181853E+02  0.14911306673E+03  0.88799376693E+02 0.  0.
         23    2    1    2    0    0  0.71819072062E+01  0.29438920439E+02  0.13597707152E+02  0.95791177526E+02  0.89848885493E+02 0.  0.
        -11    1    4    4    0    0 -0.25841317941E+02  0.17449769124E+02  0.40805648735E+02  0.51355322257E+02  0.00000000000E+00 0.  1.
         11    1    4    4    0    0  0.33023225148E+02  0.11989151315E+02 -0.27207941582E+02  0.44435855270E+02  0.00000000000E+00 0. -1.
        -13    1    3    3    0    0  0.25363193394E+02  0.19191533504E+01  0.11363697681E+02  0.27858721322E+02  0.00000000000E+00 0. -1.
         13    1    3    3    0    0 -0.47927569707E+02 -0.85251153944E+02  0.71678484172E+02  0.12125434541E+03  0.00000000000E+00 0.  1.
          1    1    1    2  501    0  0.15382469107E+02  0.53893080155E+02 -0.18762297951E+01  0.56076774895E+02  0.00000000000E+00 0. -1.
<scales pt_clust_5="13000.00000" pt_clust_6="13000.00000" pt_clust_7="13000.00000" pt_clust_8="13000.00000" pt_clust_9="56.04538"></scales>
<clustering>
<clus scale="   56.045">  2  9  1 -1</clus>
<clus scale="   88.799">  7  8 -1 -1</clus>
<clus scale="   89.849">  5  6 -1 -1</clus>
<clus scale="  107.937">  1  7  2 -1</clus>
<clus scale="   56.045">  2  5  1 -1</clus>
</clustering>
</event>
<event>
 9    1  0.1636528E-005  0.9763110E+02  0.7546771E-02  0.1287658E+00
          1   -1    0    0  502    0 -0.00000000000E+00  0.00000000000E+00  0.33080393200E+03  0.33080393200E+03  0.00000000000E+00 0. -1.
         21   -1    0    0  501  502  0.00000000000E+00 -0.00000000000E+00 -0.80758051866E+02  0.80758051866E+02  0.00000000000E+00 0.  1.
         23    2    1    2    0    0  0.19279433933E+02 -0.38140987857E+01  0.24381010762E+03  0.26076529432E+03  0.90382112292E+02 0.  0.
         23    2    1    2    0    0 -0.37974210752E+02  0.38771276191E+02  0.15169094080E+02  0.11016045981E+03  0.94657133654E+02 0.  0.
        -11    1    4    4    0    0 -0.38407903808E+02  0.68026579087E+02  0.19667862383E+02  0.80558099208E+02  0.00000000000E+00 0.  1.
         11    1    4    4    0    0  0.43369305591E+00 -0.29255302896E+02 -0.44987683036E+01  0.29602360606E+02  0.00000000000E+00 0. -1.
        -11    1    3    3    0    0 -0.30727820924E+02 -0.21011285941E+02  0.72792082718E+02  0.81757937975E+02  0.00000000000E+00 0.  1.
         11    1    3    3    0    0  0.50007254857E+02  0.17197187155E+02  0.17101802490E+03  0.17900735635E+03  0.00000000000E+00 0. -1.
          1    1    1    2  501    0  0.18694776819E+02 -0.34957177405E+02 -0.89333215677E+01  0.40636229730E+02  0.00000000000E+00 0. -1.
<scales pt_clust_5="13000.00000" pt_clust_6="13000.00000" pt_clust_7="13000.00000" pt_clust_8="13000.00000" pt_clust_9="39.64214"></scales>
<clustering>
<clus scale="   39.642">  2  9  1 -1</clus>
<clus scale="   90.382">  7  8 -1 -1</clus>
<clus scale="   93.492">  1  7  2 -1</clus>
<clus scale="   94.657">  5  6 -1 -1</clus>
<clus scale="   39.642">  2  5  1 -1</clus>
</clustering>
</event>
<event>
 9    1  0.1636528E-005  0.1260065E+03  0.7546771E-02  0.1236155E+00
          1   -1    0    0  502    0 -0.00000000000E+00  0.00000000000E+00  0.49348919415E+03  0.49348919415E+03  0.00000000000E+00 0. -1.
         21   -1    0    0  501  502  0.00000000000E+00 -0.00000000000E+00 -0.61369098535E+02  0.61369098535E+02  0.00000000000E+00 0.  1.
         23    2    1    2    0    0  0.30372185165E+02 -0.63866148904E+02  0.36546868518E+03  0.38586843396E+03  0.10161561826E+03 0.  0.
         23    2    1    2    0    0 -0.25496494251E+02  0.86252281820E+02  0.67478829810E+02  0.14606397964E+03  0.93229643022E+02 0.  0.
        -11    1    4    4    0    0  0.11262552063E+02  0.81782238080E+02  0.18394871766E+02  0.84578666646E+02  0.00000000000E+00 0.  1.
         11    1    4    4    0    0 -0.36759046314E+02  0.44700437405E+01  0.49083958045E+02  0.61485312997E+02  0.00000000000E+00 0. -1.
        -13    1    3    3    0    0  0.22166151926E+02  0.14170028970E+02  0.24371093981E+02  0.35861932938E+02  0.00000000000E+00 0.  1.
         13    1    3    3    0    0  0.82060332390E+01 -0.78036177874E+02  0.34109759119E+03  0.35000650102E+03  0.00000000000E+00 0. -1.
          1    1    1    2  501    0 -0.48756909136E+01 -0.22386132917E+02 -0.82741937289E+00  0.22925879082E+02  0.00000000000E+00 0. -1.
<scales pt_clust_5="13000.00000" pt_clust_6="13000.00000" pt_clust_7="13000.00000" pt_clust_8="13000.00000" pt_clust_9="22.91094"></scales>
<clustering>
<clus scale="   22.911">  2  9  1 -1</clus>
<clus scale="   93.230">  5  6 -1 -1</clus>
<clus scale="  101.616">  7  8 -1 -1</clus>
<clus scale="  119.347">  2  5  1 -1</clus>
<clus scale="   22.911">  2  5  1 -1</clus>
</clustering>
</event>
<event>
 9    1  0.1636528E-005  0.9230325E+02  0.7546771E-02  0.1298450E+00
         21   -1    0    0  501  502  0.00000000000E+00  0.00000000000E+00  0.15616315407E+02  0.15616315407E+02  0.00000000000E+00 0.  1.
          2   -1    0    0  502    0 -0.00000000000E+00 -0.00000000000E+00 -0.76264030666E+03  0.76264030666E+03  0.00000000000E+00 0. -1.
         23    2    1    2    0    0 -0.22823897251E+01  0.86029007978E+01 -0.36532843736E+03  0.37668365913E+03  0.91359141358E+02 0.  0.
         23    2    1    2    0    0  0.24578797278E+02 -0.56786009670E+01 -0.22793447527E+03  0.24617621066E+03  0.89511104851E+02 0.  0.
        -11    1    3    3    0    0 -0.46640320831E+02  0.16546756156E+01 -0.17305587441E+03  0.17923836963E+03  0.00000000000E+00 0. -1.
         11    1    3    3    0    0  0.44357931106E+02  0.69482251822E+01 -0.19227256295E+03  0.19744528950E+03  0.00000000000E+00 0.  1.
        -13    1    4    4    0    0 -0.33311225637E+02  0.62447908361E+01 -0.82476913189E+02  0.89168808309E+02  0.00000000000E+00 0. -1.
         13    1    4    4    0    0  0.57890022915E+02 -0.11923391803E+02 -0.14545756209E+03  0.15700740235E+03  0.00000000000E+00 0.  1.
          2    1    1    2  501    0 -0.22296407553E+02 -0.29242998308E+01 -0.15376107862E+03  0.15539675227E+03  0.00000000000E+00 0. -1.
<scales pt_clust_5="13000.00000" pt_clust_6="13000.00000" pt_clust_7="13000.00000" pt_clust_8="13000.00000" pt_clust_9="22.48737"></scales>
<clustering>
<clus scale="   22.487">  1  9  2 -1</clus>
<clus scale="   89.511">  7  8 -1 -1</clus>
<clus scale="   90.475">  1  7  2 -1</clus>
<clus scale="   91.359">  5  6 -1 -1</clus>
<clus scale="   22.487">  1  5  2 -1</clus>
</clustering>
</event>
<event>
 9    1  0.1636528E-005  0.1071787E+03  0.7546771E-02  0.1266753E+00
          2   -1    0    0  502    0 -0.00000000000E+00  0.00000000000E+00  0.11572728166E+03  0.11572728166E+03  0.00000000000E+00 0. -1.
         21   -1    0    0  501  502  0.00000000000E+00 -0.00000000000E+00 -0.24571721258E+03  0.24571721258E+03  0.00000000000E+00 0. -1.
         23    2    1    2    0    0 -0.25729835328E+02 -0.42564831623E+02  0.45615696892E+02  0.11419894543E+03  0.92123927493E+02 0.  0.
         23    2    1    2    0    0  0.69253400706E+02  0.38423282439E+02 -0.86055044469E+02  0.14759234941E+03  0.90031376654E+02 0.  0.
        -11    1    4    4    0    0  0.27110593781E+02  0.44187003236E+02 -0.27057969891E+00  0.51841573698E+02  0.00000000000E+00 0. -1.
         11    1    4    4    0    0  0.42142806925E+02 -0.57637207971E+01 -0.85784464770E+02  0.95750775709E+02  0.00000000000E+00 0.  1.
        -11    1    3    3    0    0 -0.79146042121E+01  0.29374730394E+02  0.16153706275E+02  0.34444999230E+02  0.00000000000E+00 0.  1.
         11    1    3    3    0    0 -0.17815231116E+02 -0.71939562017E+02  0.29461990617E+02  0.79753946197E+02  0.00000000000E+00 0. -1.
          2    1    1    2  501    0 -0.43523565378E+02  0.41415491837E+01 -0.89550583346E+02  0.99653199399E+02  0.00000000000E+00 0. -1.
<scales pt_clust_5="13000.00000" pt_clust_6="13000.00000" pt_clust_7="13000.00000" pt_clust_8="13000.00000" pt_clust_9="43.72017"></scales>
<clustering>
<clus scale="   43.720">  2  9  1 -1</clus>
<clus scale="   90.031">  5  6 -1 -1</clus>
<clus scale="   92.124">  7  8 -1 -1</clus>
<clus scale="  105.385">  2  5  1 -1</clus>
<clus scale="   43.720">  2  5  1 -1</clus>
</clustering>
</event>
<event>
 9    1  0.1636528E-005  0.1915267E+03  0.7546771E-02  0.1157609E+00
         21   -1    0    0  501  502  0.00000000000E+00  0.00000000000E+00  0.10114182323E+03  0.10114182323E+03  0.00000000000E+00 0.  1.
         -2   -1    0    0    0  501 -0.00000000000E+00 -0.00000000000E+00 -0.96679185117E+03  0.96679185117E+03  0.00000000000E+00 0.  1.
         23    2    1    2    0    0 -0.15304531181E+03 -0.37548675855E+02 -0.66663176413E+03  0.69145786937E+03  0.94251289829E+02 0.  0.
         23    2    1    2    0    0  0.19444365332E+03  0.10655423617E+03 -0.14817797915E+03  0.28129006777E+03  0.89472057981E+02 0.  0.
        -11    1    4    4    0    0  0.18823678272E+03  0.78133646456E+02 -0.10510626068E+03  0.22931480352E+03  0.00000000000E+00 0.  1.
         11    1    4    4    0    0  0.62068705949E+01  0.28420589710E+02 -0.43071718465E+02  0.51975264247E+02  0.00000000000E+00 0. -1.
        -11    1    3    3    0    0 -0.64428089942E+02  0.16695603057E+02 -0.39623483075E+03  0.40178571781E+03  0.00000000000E+00 0.  1.
         11    1    3    3    0    0 -0.88617221871E+02 -0.54244278912E+02 -0.27039693338E+03  0.28967215156E+03  0.00000000000E+00 0. -1.
         -2    1    1    2    0  502 -0.41398341506E+02 -0.69005560312E+02 -0.50840284663E+02  0.95185737261E+02  0.00000000000E+00 0.  1.
<scales pt_clust_5="13000.00000" pt_clust_6="13000.00000" pt_clust_7="13000.00000" pt_clust_8="13000.00000" pt_clust_9="80.47105"></scales>
<clustering>
<clus scale="   80.471">  1  9  2 -1</clus>
<clus scale="   89.472">  5  6 -1 -1</clus>
<clus scale="   94.251">  7  8 -1 -1</clus>
<clus scale="  189.221">  1  5  2 -1</clus>
<clus scale="   80.471">  1  5  2 -1</clus>
</clustering>
</event>
<event>
 9    1  0.1636528E-005  0.9916802E+02  0.7546771E-02  0.1287050E+00
         21   -1    0    0  501  502  0.00000000000E+00  0.00000000000E+00  0.29604374288E+03  0.29604374288E+03  0.00000000000E+00 0. -1.
         -3   -1    0    0    0  501 -0.00000000000E+00 -0.00000000000E+00 -0.66833111898E+02  0.66833111898E+02  0.00000000000E+00 0.  1.
         23    2    1    2    0    0 -0.19233845289E+02  0.19573964404E+02  0.19269920287E+02  0.88829668812E+02  0.82257518479E+02 0.  0.
         23    2    1    2    0    0  0.11502753844E+02 -0.59461494806E+02  0.75276102828E+02  0.13338680964E+03  0.91965029322E+02 0.  0.
        -11    1    3    3    0    0 -0.45155705551E+02 -0.50553840872E+01  0.26137843130E+02  0.52419285531E+02  0.00000000000E+00 0. -1.
         11    1    3    3    0    0  0.25921860262E+02  0.24629348491E+02 -0.68679228431E+01  0.36410383282E+02  0.00000000000E+00 0.  1.
        -13    1    4    4    0    0 -0.26419139774E+02 -0.66459187708E+02  0.50529233017E+02  0.87567105505E+02  0.00000000000E+00 0. -1.
         13    1    4    4    0    0  0.37921893618E+02  0.69976929018E+01  0.24746869811E+02  0.45819704134E+02  0.00000000000E+00 0.  1.
         -3    1    1    2    0  502  0.77310914453E+01  0.39887530402E+02  0.13466460787E+03  0.14066037633E+03  0.00000000000E+00 0.  1.
<scales pt_clust_5="13000.00000" pt_clust_6="13000.00000" pt_clust_7="13000.00000" pt_clust_8="13000.00000" pt_clust_9="40.62985"></scales>
<clustering>
<clus scale="   40.630">  1  9  2 -1</clus>
<clus scale="   82.258">  5  6 -1 -1</clus>
<clus scale="   90.239">  2  5  1 -1</clus>
<clus scale="   91.965">  7  8 -1 -1</clus>
<clus scale="   40.630">  1  5  2 -1</clus>
</clustering>
</event>
<event>
 9    1  0.1636528E-005  0.1123059E+03  0.7546771E-02  0.1256464E+00
          1   -1    0    0  502    0 -0.00000000000E+00  0.00000000000E+00  0.29232315823E+03  0.29232315823E+03  0.00000000000E+00 0. -1.
         21   -1    0    0  501  502  0.00000000000E+00 -0.00000000000E+00 -0.55464894449E+02  0.55464894449E+02  0.00000000000E+00 0. -1.
         23    2    1    2    0    0  0.61894413194E+02 -0.13887525393E+02  0.13757494008E+03  0.17613085019E+03  0.89841140368E+02 0.  0.
         23    2    1    2    0    0 -0.74312234742E+02 -0.55018881653E+01  0.81046002312E+02  0.14228456997E+03  0.90132487786E+02 0.  0.
        -11    1    4    4    0    0  0.17981145747E+02  0.11334527724E+02  0.58338571838E+01  0.22041483860E+02  0.00000000000E+00 0.  1.
         11    1    4    4    0    0 -0.92293380488E+02 -0.16836415890E+02  0.75212145128E+02  0.12024308611E+03  0.00000000000E+00 0. -1.
        -11    1    3    3    0    0  0.50760913366E+02  0.32481361500E+02  0.59786002530E+02  0.84888605061E+02  0.00000000000E+00 0.  1.
         11    1    3    3    0    0  0.11133499828E+02 -0.46368886893E+02  0.77788937551E+02  0.91242245125E+02  0.00000000000E+00 0. -1.
          1    1    1    2  501    0  0.12417821548E+02  0.19389413558E+02  0.18237321388E+02  0.29372632526E+02  0.00000000000E+00 0. -1.
<scales pt_clust_5="13000.00000" pt_clust_6="13000.00000" pt_clust_7="13000.00000" pt_clust_8="13000.00000" pt_clust_9="23.02502"></scales>
<clustering>
<clus scale="   23.025">  2  9  1 -1</clus>
<clus scale="   89.841">  7  8 -1 -1</clus>
<clus scale="   90.132">  5  6 -1 -1</clus>
<clus scale="  112.072">  1  7  2 -1</clus>
<clus scale="   23.025">  2  5  1 -1</clus>
</clustering>
</event>
<event>
 9    1  0.1636528E-005  0.1009921E+03  0.7546771E-02  0.1282064E+00
         21   -1    0    0  501  502  0.00000000000E+00  0.00000000000E+00  0.60656635946E+03  0.60656635946E+03  0.00000000000E+00 0. -1.
          2   -1    0    0  502    0 -0.00000000000E+00 -0.00000000000E+00 -0.28951629533E+03  0.28951629533E+03  0.00000000000E+00 0. -1.
         23    2    1    2    0    0  0.43599390496E+02  0.62223882447E+01 -0.12835626509E+03  0.15954029722E+03  0.83893686789E+02 0.  0.
         23    2    1    2    0    0 -0.14333796352E+02  0.83258821837E+02 -0.11416663362E+03  0.16910490489E+03  0.91787578111E+02 0.  0.
        -11    1    3    3    0    0  0.52616878544E+02  0.35577937058E+02 -0.94146558482E+02  0.11356892175E+03  0.00000000000E+00 0. -1.
         11    1    3    3    0    0 -0.90174880482E+01 -0.29355548814E+02 -0.34209706609E+02  0.45971375476E+02  0.00000000000E+00 0.  1.
        -11    1    4    4    0    0  0.21326538158E+02  0.52770925148E+02 -0.14178616088E+02  0.58656840393E+02  0.00000000000E+00 0.  1.
         11    1    4    4    0    0 -0.35660334510E+02  0.30487896690E+02 -0.99988017533E+02  0.11044806450E+03  0.00000000000E+00 0. -1.
          2    1    1    2  501    0 -0.29265594144E+02 -0.89481210082E+02  0.55957296284E+03  0.56743745268E+03  0.00000000000E+00 0. -1.
<scales pt_clust_5="13000.00000" pt_clust_6="13000.00000" pt_clust_7="13000.00000" pt_clust_8="13000.00000" pt_clust_9="94.14543"></scales>
<clustering>
<clus scale="   83.894">  5  6 -1 -1</clus>
<clus scale="   91.788">  7  8 -1 -1</clus>
<clus scale="   94.145">  1  9  2 -1</clus>
<clus scale="   93.875">  2  5  1 -1</clus>
<clus scale="   94.145">  1  5  2 -1</clus>
</clustering>
</event>
<event>
 9    1  0.1636528E-005  0.1004577E+03  0.7546771E-02  0.1285013E+00
          2   -1    0    0  502    0 -0.00000000000E+00  0.00000000000E+00  0.48512643128E+03  0.48512643128E+03  0.00000000000E+00 0. -1.
         21   -1    0    0  501  502  0.00000000000E+00 -0.00000000000E+00 -0.14168429421E+03  0.14168429421E+03  0.00000000000E+00 0. -1.
         23    2    1    2    0    0 -0.18278212905E+02  0.63053999009E+02  0.32941795170E+03  0.34750421958E+03  0.89067928380E+02 0.  0.
         23    2    1    2    0    0 -0.17497852008E+02 -0.23899105873E+02  0.12865741030E+03  0.15299811846E+03  0.77319809498E+02 0.  0.
        -11    1    4    4    0    0 -0.19054648999E+02  0.14367332497E+02  0.10566923944E+03  0.10833045766E+03  0.00000000000E+00 0. -1.
         11    1    4    4    0    0  0.15567969911E+01 -0.38266438370E+02  0.22988170860E+02  0.44667660806E+02  0.00000000000E+00 0.  1.
        -11    1    3    3    0    0 -0.27178301743E+02  0.81491483839E+02  0.29690164357E+03  0.30907945254E+03  0.00000000000E+00 0. -1.
         11    1    3    3    0    0  0.89000888382E+01 -0.18437484830E+02  0.32516308131E+02  0.38424767048E+02  0.00000000000E+00 0.  1.
          2    1    1    2  501    0  0.35776064913E+02 -0.39154893135E+02 -0.11463322494E+03  0.12630838744E+03  0.00000000000E+00 0. -1.
<scales pt_clust_5="13000.00000" pt_clust_6="13000.00000" pt_clust_7="13000.00000" pt_clust_8="13000.00000" pt_clust_9="53.03803"></scales>
<clustering>
<clus scale="   53.038">  2  9  1 -1</clus>
<clus scale="   77.320">  5  6 -1 -1</clus>
<clus scale="   89.068">  7  8 -1 -1</clus>
<clus scale="   90.205">  2  5  1 -1</clus>
<clus scale="   53.038">  2  5  1 -1</clus>
</clustering>
</event>
<event>
 9    1  0.1636528E-005  0.1003120E+03  0.7546771E-02  0.1283436E+00
         -2   -1    0    0    0  501 -0.00000000000E+00  0.00000000000E+00  0.19012261947E+03  0.19012261947E+03  0.00000000000E+00 0.  1.
         21   -1    0    0  501  502  0.00000000000E+00 -0.00000000000E+00 -0.13667206243E+03  0.13667206243E+03  0.00000000000E+00 0.  1.
         23    2    1    2    0    0  0.29953328451E+02  0.26037352642E+02  0.71941201248E+02  0.11938533559E+03  0.86615104333E+02 0.  0.
         23    2    1    2    0    0 -0.71005644242E+01 -0.32338510153E+02  0.66036328716E+02  0.11962117762E+03  0.94086301715E+02 0.  0.
        -11    1    3    3    0    0  0.32942881077E+02 -0.26129790149E+02  0.40624594094E+02  0.58466716961E+02  0.00000000000E+00 0.  1.
         11    1    3    3    0    0 -0.29895526255E+01  0.52167142791E+02  0.31316607153E+02  0.60918618628E+02  0.00000000000E+00 0. -1.
        -13    1    4    4    0    0  0.25177421358E+01  0.22191501266E+02 -0.10883131042E+02  0.24844401687E+02  0.00000000000E+00 0. -1.
         13    1    4    4    0    0 -0.96183065600E+01 -0.54530011419E+02  0.76919459758E+02  0.94776775931E+02  0.00000000000E+00 0.  1.
         -2    1    1    2    0  502 -0.22852764027E+02  0.63011575111E+01 -0.84526972924E+02  0.87788168687E+02  0.00000000000E+00 0.  1.
<scales pt_clust_5="13000.00000" pt_clust_6="13000.00000" pt_clust_7="13000.00000" pt_clust_8="13000.00000" pt_clust_9="23.70556"></scales>
<clustering>
<clus scale="   23.706">  2  9  1 -1</clus>
<clus scale="   86.615">  5  6 -1 -1</clus>
<clus scale="   93.340">  1  5  2 -1</clus>
<clus scale="   94.086">  7  8 -1 -1</clus>
<clus scale="   23.706">  2  5  1 -1</clus>
</clustering>
</event>
<event>
 9    1  0.1636528E-005  0.9468048E+02  0.7546771E-02  0.1300252E+00
         21   -1    0    0  501  502  0.00000000000E+00  0.00000000000E+00  0.60346587779E+02  0.60346587779E+02  0.00000000000E+00 0. -1.
          2   -1    0    0  502    0 -0.00000000000E+00 -0.00000000000E+00 -0.27790166371E+03  0.27790166371E+03  0.00000000000E+00 0. -1.
         23    2    1    2    0    0  0.33727224485E+02  0.10038994544E+02 -0.15500139427E+03  0.17338716825E+03  0.69277491327E+02 0.  0.
         23    2    1    2    0    0 -0.64780087178E+02 -0.31683252247E+00 -0.74567012714E+02  0.13017505092E+03  0.84786463649E+02 0.  0.
        -13    1    4    4    0    0 -0.39338470693E+02  0.63786207746E+01  0.10434375447E+02  0.41195609844E+02  0.00000000000E+00 0. -1.
         13    1    4    4    0    0 -0.25441616485E+02 -0.66954532971E+01 -0.85001388161E+02  0.88979441072E+02  0.00000000000E+00 0.  1.
        -13    1    3    3    0    0 -0.16896519573E+02 -0.11229425510E+02 -0.24534511587E+02  0.31836058640E+02  0.00000000000E+00 0.  1.
         13    1    3    3    0    0  0.50623744058E+02  0.21268420055E+02 -0.13046688269E+03  0.14155110961E+03  0.00000000000E+00 0. -1.
          2    1    1    2  501    0  0.31052862693E+02 -0.97221620220E+01  0.12013331051E+02  0.34686032329E+02  0.00000000000E+00 0. -1.
<scales pt_clust_5="13000.00000" pt_clust_6="13000.00000" pt_clust_7="13000.00000" pt_clust_8="13000.00000" pt_clust_9="32.53922"></scales>
<clustering>
<clus scale="   32.539">  1  9  2 -1</clus>
<clus scale="   69.277">  7  8 -1 -1</clus>
<clus scale="   81.086">  2  7  1 -1</clus>
<clus scale="   84.786">  5  6 -1 -1</clus>
<clus scale="   32.539">  1  5  2 -1</clus>
</clustering>
</event>
<event>
 9    1  0.1636528E-005  0.2022687E+03  0.7546771E-02  0.1147868E+00
          1   -1    0    0  502    0 -0.00000000000E+00  0.00000000000E+00  0.39976061486E+03  0.39976061486E+03  0.00000000000E+00 0. -1.
         21   -1    0    0  501  502  0.00000000000E+00 -0.00000000000E+00 -0.16727912333E+03  0.16727912333E+03  0.00000000000E+00 0.  1.
         23    2    1    2    0    0  0.10177631338E+03 -0.13161476846E+03  0.19970797545E+03  0.27568545320E+03  0.91860374488E+02 0.  0.
         23    2    1    2    0    0 -0.11970875686E+03  0.17962382150E+03  0.44805194289E+02  0.23871206825E+03  0.91548033154E+02 0.  0.
        -11    1    3    3    0    0  0.63802625327E+02 -0.12564298619E+02  0.65021629041E+02  0.91958951938E+02  0.00000000000E+00 0. -1.
         11    1    3    3    0    0  0.37973688054E+02 -0.11905046984E+03  0.13468634641E+03  0.18372650126E+03  0.00000000000E+00 0.  1.
        -11    1    4    4    0    0 -0.10678646409E+03  0.13928711767E+03  0.70533771195E+02  0.18915407197E+03  0.00000000000E+00 0.  1.
         11    1    4    4    0    0 -0.12922292765E+02  0.40336703827E+02 -0.25728576906E+02  0.49557996282E+02  0.00000000000E+00 0. -1.
          1    1    1    2  501    0  0.17932443477E+02 -0.48009053040E+02 -0.12031678210E+02  0.52642216740E+02  0.00000000000E+00 0. -1.
<scales pt_clust_5="13000.00000" pt_clust_6="13000.00000" pt_clust_7="13000.00000" pt_clust_8="13000.00000" pt_clust_9="51.24882"></scales>
<clustering>
<clus scale="   51.249">  2  9  1 -1</clus>
<clus scale="   91.548">  7  8 -1 -1</clus>
<clus scale="   91.860">  5  6 -1 -1</clus>
<clus scale="  202.127">  2  7  1 -1</clus>
<clus scale="   51.249">  2  5  1 -1</clus>
</clustering>
</event>
<event>
 9    1  0.1636528E-005  0.9267834E+02  0.7546771E-02  0.1296795E+00
         21   -1    0    0  501  502  0.00000000000E+00  0.00000000000E+00  0.35636123547E+03  0.35636123547E+03  0.00000000000E+00 0.  1.
         -2   -1    0    0    0  501 -0.00000000000E+00 -0.00000000000E+00 -0.17985956676E+03  0.17985956676E+03  0.00000000000E+00 0.  1.
         23    2    1    2    0    0  0.72632667045E+01 -0.63378185689E+01 -0.14426071563E+03  0.17098658058E+03  0.91281617406E+02 0.  0.
         23    2    1    2    0    0 -0.49002206876E+02  0.48012262010E+02  0.23033069957E+03  0.25726761582E+03  0.91804146984E+02 0.  0.
        -13    1    4    4    0    0 -0.72328642708E+01  0.64952020117E+02  0.16867494891E+03  0.18089311107E+03  0.00000000000E+00 0.  1.
         13    1    4    4    0    0 -0.41769342605E+02 -0.16939758107E+02  0.61655750661E+02  0.76374504752E+02  0.00000000000E+00 0. -1.
        -13    1    3    3    0    0 -0.35423700384E+02 -0.16960393380E+02 -0.32834824811E+02  0.51191983874E+02  0.00000000000E+00 0. -1.
         13    1    3    3    0    0  0.42686967089E+02  0.10622574811E+02 -0.11142589082E+03  0.11979459671E+03  0.00000000000E+00 0.  1.
         -2    1    1    2    0  502  0.41738940172E+02 -0.41674443441E+02  0.90431684777E+02  0.10796660583E+03  0.00000000000E+00 0.  1.
<scales pt_clust_5="13000.00000" pt_clust_6="13000.00000" pt_clust_7="13000.00000" pt_clust_8="13000.00000" pt_clust_9="58.98219"></scales>
<clustering>
<clus scale="   58.982">  1  9  2 -1</clus>
<clus scale="   91.282">  7  8 -1 -1</clus>
<clus scale="   91.804">  5  6 -1 -1</clus>
<clus scale="   92.161">  2  7  1 -1</clus>
<clus scale="   58.982">  1  5  2 -1</clus>
</clustering>
</event>
<event>
 9    1  0.1636528E-005  0.1013954E+03  0.7546771E-02  0.1295608E+00
         21   -1    0    0  501  502  0.00000000000E+00  0.00000000000E+00  0.26785489718E+02  0.26785489718E+02  0.00000000000E+00 0.  1.
         -1   -1    0    0    0  501 -0.00000000000E+00 -0.00000000000E+00 -0.56906019335E+03  0.56906019335E+03  0.00000000000E+00 0.  1.
         23    2    1    2    0    0 -0.24620748208E+02 -0.18777046753E+02 -0.31760185023E+03  0.33176910552E+03  0.90780203696E+02 0.  0.
         23    2    1    2    0    0  0.56381735322E+02  0.24208923174E+02 -0.21491304571E+03  0.23040879725E+03  0.55996648055E+02 0.  0.
        -13    1    3    3    0    0 -0.53227773632E+02 -0.30829562678E+02 -0.24875731777E+03  0.25624960676E+03  0.00000000000E+00 0.  1.
         13    1    3    3    0    0  0.28607025424E+02  0.12052515926E+02 -0.68844532459E+02  0.75519498762E+02  0.00000000000E+00 0. -1.
        -13    1    4    4    0    0  0.48414757682E+02 -0.64839941436E+01 -0.15646974216E+03  0.16391708622E+03  0.00000000000E+00 0.  1.
         13    1    4    4    0    0  0.79669776400E+01  0.30692917317E+02 -0.58443303546E+02  0.66491711028E+02  0.00000000000E+00 0. -1.
         -1    1    1    2    0  502 -0.31760987115E+02 -0.54318764212E+01 -0.97598076924E+01  0.33667780298E+02  0.00000000000E+00 0.  1.
<scales pt_clust_5="13000.00000" pt_clust_6="13000.00000" pt_clust_7="13000.00000" pt_clust_8="13000.00000" pt_clust_9="32.22213"></scales>
<clustering>
<clus scale="   32.222">  1  9  2 -1</clus>
<clus scale="   55.997">  7  8 -1 -1</clus>
<clus scale="   71.942">  1  7  2 -1</clus>
<clus scale="   90.780">  5  6 -1 -1</clus>
<clus scale="   32.222">  1  5  2 -1</clus>
</clustering>
</event>
<event>
 9    1  0.1636528E-005  0.1097715E+03  0.7546771E-02  0.1261580E+00
         21   -1    0    0  501  502  0.00000000000E+00  0.00000000000E+00  0.25814931353E+03  0.25814931353E+03  0.00000000000E+00 0.  1.
         -1   -1    0    0    0  501 -0.00000000000E+00 -0.00000000000E+00 -0.20854587094E+03  0.20854587094E+03  0.00000000000E+00 0.  1.
         23    2    1    2    0    0  0.23407002871E+02  0.59107334125E+02 -0.14867884628E+03  0.18617228023E+03  0.92266753848E+02 0.  0.
         23    2    1    2    0    0  0.51711577478E+01 -0.49169586301E+02  0.27328378519E+02  0.10691210514E+03  0.90768765906E+02 0.  0.
        -11    1    3    3    0    0  0.37377189770E+02  0.76971258019E+02 -0.94744723642E+02  0.12766437065E+03  0.00000000000E+00 0.  1.
         11    1    3    3    0    0 -0.13970186899E+02 -0.17863923894E+02 -0.53934122637E+02  0.58507909581E+02  0.00000000000E+00 0. -1.
        -11    1    4    4    0    0  0.24643804740E+02 -0.18977004581E+02 -0.27395692784E+02  0.41448375096E+02  0.00000000000E+00 0.  1.
         11    1    4    4    0    0 -0.19472646993E+02 -0.30192581719E+02  0.54724071302E+02  0.65463730047E+02  0.00000000000E+00 0. -1.
         -1    1    1    2    0  502 -0.28578160618E+02 -0.99377478240E+01  0.17095391035E+03  0.17361079909E+03  0.00000000000E+00 0.  1.
<scales pt_clust_5="13000.00000" pt_clust_6="13000.00000" pt_clust_7="13000.00000" pt_clust_8="13000.00000" pt_clust_9="30.25674"></scales>
<clustering>
<clus scale="   30.257">  1  9  2 -1</clus>
<clus scale="   90.769">  7  8 -1 -1</clus>
<clus scale="   92.267">  5  6 -1 -1</clus>
<clus scale="  108.515">  1  7  2 -1</clus>
<clus scale="   30.257">  1  5  2 -1</clus>
</clustering>
</event>
<event>
 9    1  0.1636528E-005  0.1299383E+03  0.7546771E-02  0.1227615E+00
         21   -1    0    0  501  502  0.00000000000E+00  0.00000000000E+00  0.63344167309E+02  0.63344167309E+02  0.00000000000E+00 0.  1.
          1   -1    0    0  502    0 -0.00000000000E+00 -0.00000000000E+00 -0.43903932720E+03  0.43903932720E+03  0.00000000000E+00 0. -1.
         23    2    1    2    0    0 -0.16210901333E+02  0.82956440447E+02 -0.22023003367E+03  0.25305509163E+03  0.91602660105E+02 0.  0.
         23    2    1    2    0    0  0.21002471664E+02 -0.11089780266E+03 -0.73791152213E+02  0.16287427111E+03  0.91342583696E+02 0.  0.
        -11    1    4    4    0    0 -0.20861708310E+02 -0.99550801938E+02 -0.48784658146E+02  0.11280742844E+03  0.00000000000E+00 0.  1.
         11    1    4    4    0    0  0.41864179974E+02 -0.11347000718E+02 -0.25006494068E+02  0.50066842678E+02  0.00000000000E+00 0. -1.
        -13    1    3    3    0    0  0.29525537614E+02  0.94970226839E+01 -0.26189088126E+02  0.40593338717E+02  0.00000000000E+00 0.  1.
         13    1    3    3    0    0 -0.45736438947E+02  0.73459417764E+02 -0.19404094554E+03  0.21246175292E+03  0.00000000000E+00 0. -1.
          1    1    1    2  501    0 -0.47915703311E+01  0.27941362208E+02 -0.81673974014E+02  0.86454131767E+02  0.00000000000E+00 0. -1.
<scales pt_clust_5="13000.00000" pt_clust_6="13000.00000" pt_clust_7="13000.00000" pt_clust_8="13000.00000" pt_clust_9="28.34924"></scales>
<clustering>
<clus scale="   28.349">  1  9  2 -1</clus>
<clus scale="   91.343">  5  6 -1 -1</clus>
<clus scale="   91.603">  7  8 -1 -1</clus>
<clus scale="  129.755">  1  5  2 -1</clus>
<clus scale="   28.349">  1  5  2 -1</clus>
</clustering>
</event>
<event>
 9    1  0.1636528E-005  0.1093721E+03  0.7546771E-02  0.1262637E+00
         21   -1    0    0  501  502  0.00000000000E+00  0.00000000000E+00  0.23261772275E+02  0.23261772275E+02  0.00000000000E+00 0.  1.
          1   -1    0    0  502    0 -0.00000000000E+00 -0.00000000000E+00 -0.78237533128E+03  0.78237533128E+03  0.00000000000E+00 0. -1.
         23    2    1    2    0    0  0.39055548016E+02 -0.18568094144E+02 -0.32546600311E+03  0.34102914526E+03  0.92209808507E+02 0.  0.
         23    2    1    2    0    0 -0.80463653105E+02  0.76900532235E+01 -0.35547841675E+03  0.37548233204E+03  0.89936313617E+02 0.  0.
        -11    1    3    3    0    0  0.40552708714E+00 -0.44637932929E+02 -0.84212442757E+02  0.95312355041E+02  0.00000000000E+00 0.  1.
         11    1    3    3    0    0  0.38650020929E+02  0.26069838785E+02 -0.24125356035E+03  0.24571679022E+03  0.00000000000E+00 0. -1.
        -13    1    4    4    0    0 -0.77203908729E+02 -0.26301239972E+02 -0.19426083542E+03  0.21068808918E+03  0.00000000000E+00 0.  1.
         13    1    4    4    0    0 -0.32597443762E+01  0.33991293195E+02 -0.16121758134E+03  0.16479424286E+03  0.00000000000E+00 0. -1.
          1    1    1    2  501    0  0.41408105089E+02  0.10878040920E+02 -0.78169139139E+02  0.89125626253E+02  0.00000000000E+00 0. -1.
<scales pt_clust_5="13000.00000" pt_clust_6="13000.00000" pt_clust_7="13000.00000" pt_clust_8="13000.00000" pt_clust_9="42.81312"></scales>
<clustering>
<clus scale="   42.813">  1  9  2 -1</clus>
<clus scale="   89.936">  7  8 -1 -1</clus>
<clus scale="   92.210">  5  6 -1 -1</clus>
<clus scale="  107.462">  1  7  2 -1</clus>
<clus scale="   42.813">  1  5  2 -1</clus>
</clustering>
</event>
<event>
 9    1  0.1636528E-005  0.1831965E+03  0.7546771E-02  0.1165067E+00
         21   -1    0    0  501  502  0.00000000000E+00  0.00000000000E+00  0.43577379150E+03  0.43577379150E+03  0.00000000000E+00 0. -1.
         -3   -1    0    0    0  501 -0.00000000000E+00 -0.00000000000E+00 -0.87133102572E+02  0.87133102572E+02  0.00000000000E+00 0.  1.
         23    2    1    2    0    0  0.97853867622E+02 -0.13349150864E+03  0.13996226281E+03  0.23504362432E+03  0.90888437302E+02 0.  0.
         23    2    1    2    0    0 -0.76003161786E+02  0.12735966003E+03  0.18897448204E+03  0.25780834794E+03  0.93577912999E+02 0.  0.
        -11    1    3    3    0    0  0.55032796128E+02 -0.14219295917E+02  0.70396578246E+02  0.90479142650E+02  0.00000000000E+00 0. -1.
         11    1    3    3    0    0  0.42821071494E+02 -0.11927221272E+03  0.69565684564E+02  0.14456448167E+03  0.00000000000E+00 0.  1.
        -11    1    4    4    0    0 -0.49537094685E+02  0.13803514561E+03  0.16231740812E+03  0.21875686538E+03  0.00000000000E+00 0. -1.
         11    1    4    4    0    0 -0.26466067102E+02 -0.10675485577E+02  0.26657073924E+02  0.39051482562E+02  0.00000000000E+00 0.  1.
         -3    1    1    2    0  502 -0.21850705836E+02  0.61318486058E+01  0.19703944081E+02  0.30054921813E+02  0.00000000000E+00 0.  1.
<scales pt_clust_5="13000.00000" pt_clust_6="13000.00000" pt_clust_7="13000.00000" pt_clust_8="13000.00000" pt_clust_9="22.69479"></scales>
<clustering>
<clus scale="   22.695">  1  9  2 -1</clus>
<clus scale="   90.888">  5  6 -1 -1</clus>
<clus scale="   93.578">  7  8 -1 -1</clus>
<clus scale="  181.837">  2  5  1 -1</clus>
<clus scale="   22.695">  1  5  2 -1</clus>
</clustering>
</event>
<event>
 9    1  0.1636528E-005  0.9350939E+02  0.7546771E-02  0.1294676E+00
         21   -1    0    0  501  502  0.00000000000E+00  0.00000000000E+00  0.11797917600E+03  0.11797917600E+03  0.00000000000E+00 0.  1.
          2   -1    0    0  502    0 -0.00000000000E+00 -0.00000000000E+00 -0.37137477395E+03  0.37137477395E+03  0.00000000000E+00 0. -1.
         23    2    1    2    0    0 -0.13940762015E+02  0.44531109238E+01 -0.25479635131E+03  0.27141359563E+03  0.92357913619E+02 0.  0.
         23    2    1    2    0    0  0.21971480084E+02  0.32911857169E+02  0.81466777077E+02  0.12922056270E+03  0.92169310387E+02 0.  0.
        -13    1    4    4    0    0  0.68719217668E+01 -0.30839207535E+02  0.12174135823E+02  0.33859852528E+02  0.00000000000E+00 0. -1.
         13    1    4    4    0    0  0.15099558317E+02  0.63751064704E+02  0.69292641254E+02  0.95360710170E+02  0.00000000000E+00 0.  1.
        -13    1    3    3    0    0 -0.12134599711E+02 -0.43038989799E+02 -0.14587483119E+03  0.15257479978E+03  0.00000000000E+00 0. -1.
         13    1    3    3    0    0 -0.18061623035E+01  0.47492100723E+02 -0.10892152012E+03  0.11883879585E+03  0.00000000000E+00 0.  1.
          2    1    1    2  501    0 -0.80307180689E+01 -0.37364968093E+02 -0.80066023709E+02  0.88719791625E+02  0.00000000000E+00 0. -1.
<scales pt_clust_5="13000.00000" pt_clust_6="13000.00000" pt_clust_7="13000.00000" pt_clust_8="13000.00000" pt_clust_9="38.21825"></scales>
<clustering>
<clus scale="   38.218">  1  9  2 -1</clus>
<clus scale="   92.169">  5  6 -1 -1</clus>
<clus scale="   92.358">  7  8 -1 -1</clus>
<clus scale="   93.323">  1  5  2 -1</clus>
<clus scale="   38.218">  1  5  2 -1</clus>
</clustering>
</event>
<event>
 9    1  0.1636528E-005  0.9993906E+02  0.7546771E-02  0.1281368E+00
         21   -1    0    0  501  502  0.00000000000E+00  0.00000000000E+00  0.67155170719E+03  0.67155170719E+03  0.00000000000E+00 0. -1.
         -1   -1    0    0    0  501 -0.00000000000E+00 -0.00000000000E+00 -0.10810822898E+03  0.10810822898E+03  0.00000000000E+00 0.  1.
         23    2    1    2    0    0 -0.25044624157E+02  0.29262527081E+02 -0.69983908737E+02  0.12155433754E+03  0.91619762076E+02 0.  0.
         23    2    1    2    0    0  0.70961845587E+02 -0.11630123517E+02  0.30362807222E+03  0.32465863003E+03  0.89679298091E+02 0.  0.
        -11    1    4    4    0    0 -0.10880613511E+02  0.23370728557E+02  0.61338765805E+02  0.66535876744E+02  0.00000000000E+00 0.  1.
         11    1    4    4    0    0  0.81842459098E+02 -0.35000852074E+02  0.24228930642E+03  0.25812275328E+03  0.00000000000E+00 0. -1.
        -13    1    3    3    0    0 -0.58844705224E+02  0.21221362714E+02 -0.32677704502E+02  0.70575335209E+02  0.00000000000E+00 0.  1.
         13    1    3    3    0    0  0.33800081066E+02  0.80411643670E+01 -0.37306204235E+02  0.50979002333E+02  0.00000000000E+00 0. -1.
         -1    1    1    2    0  502 -0.45917221430E+02 -0.17632403564E+02  0.32979931472E+03  0.33344696860E+03  0.00000000000E+00 0.  1.
<scales pt_clust_5="13000.00000" pt_clust_6="13000.00000" pt_clust_7="13000.00000" pt_clust_8="13000.00000" pt_clust_9="49.18631"></scales>
<clustering>
<clus scale="   49.186">  1  9  2 -1</clus>
<clus scale="   89.679">  5  6 -1 -1</clus>
<clus scale="   91.620">  7  8 -1 -1</clus>
<clus scale="   98.163">  1  5  2 -1</clus>
<clus scale="   49.186">  1  5  2 -1</clus>
</clustering>
</event>
<event>
 9    1  0.1636528E-005  0.9565999E+02  0.7546771E-02  0.1290656E+00
          2   -1    0    0  502    0 -0.00000000000E+00  0.00000000000E+00  0.43248867763E+03  0.43248867763E+03  0.00000000000E+00 0. -1.
         21   -1    0    0  501  502  0.00000000000E+00 -0.00000000000E+00 -0.13155887741E+03  0.13155887741E+03  0.00000000000E+00 0. -1.
         23    2    1    2    0    0  0.64781850875E+01 -0.81224655053E+01  0.29874596597E+03  0.31316645922E+03  0.93360257445E+02 0.  0.
         23    2    1    2    0    0 -0.43904154911E+02  0.34475643052E+02  0.97611893643E+02  0.14504297554E+03  0.91614617780E+02 0.  0.
        -11    1    3    3    0    0  0.47804629042E+02 -0.18608577425E+02  0.16219309903E+03  0.17011220733E+03  0.00000000000E+00 0. -1.
         11    1    3    3    0    0 -0.41326443955E+02  0.10486111920E+02  0.13655286694E+03  0.14305425188E+03  0.00000000000E+00 0.  1.
        -11    1    4    4    0    0 -0.67345832057E+02  0.93019165524E+01  0.42813344207E+02  0.80342822886E+02  0.00000000000E+00 0.  1.
         11    1    4    4    0    0  0.23441677146E+02  0.25173726499E+02  0.54798549436E+02  0.64700152655E+02  0.00000000000E+00 0. -1.
          2    1    1    2  501    0  0.37425969824E+02 -0.26353177546E+02 -0.95428059393E+02  0.10583812028E+03  0.00000000000E+00 0. -1.
<scales pt_clust_5="13000.00000" pt_clust_6="13000.00000" pt_clust_7="13000.00000" pt_clust_8="13000.00000" pt_clust_9="45.77328"></scales>
<clustering>
<clus scale="   45.773">  2  9  1 -1</clus>
<clus scale="   91.615">  7  8 -1 -1</clus>
<clus scale="   93.360">  5  6 -1 -1</clus>
<clus scale="   93.957">  2  7  1 -1</clus>
<clus scale="   45.773">  2  5  1 -1</clus>
</clustering>
</event>
<event>
 9    1  0.1636528E-005  0.1024470E+03  0.7546771E-02  0.1275523E+00
         21   -1    0    0  501  502  0.00000000000E+00  0.00000000000E+00  0.17459897055E+03  0.17459897055E+03  0.00000000000E+00 0. -1.
          2   -1    0    0  502    0 -0.00000000000E+00 -0.00000000000E+00 -0.29104137062E+03  0.29104137062E+03  0.00000000000E+00 0. -1.
         23    2    1    2    0    0 -0.25803378322E+02  0.54514777724E+02 -0.18294435661E+03  0.21279775555E+03  0.90424398426E+02 0.  0.
         23    2    1    2    0    0  0.32066836521E+01 -0.29263718738E+02 -0.66533799213E+02  0.11555916019E+03  0.89780426666E+02 0.  0.
        -11    1    3    3    0    0 -0.58196487701E+02  0.22603991338E+02 -0.92992476199E+02  0.11200612588E+03  0.00000000000E+00 0. -1.
         11    1    3    3    0    0  0.32393109379E+02  0.31910786386E+02 -0.89951880408E+02  0.10079162967E+03  0.00000000000E+00 0.  1.
        -13    1    4    4    0    0 -0.34991693438E+02 -0.41557757070E+02 -0.36867190549E+02  0.65655582561E+02  0.00000000000E+00 0. -1.
         13    1    4    4    0    0  0.38198377091E+02  0.12294038332E+02 -0.29666608664E+02  0.49903577632E+02  0.00000000000E+00 0.  1.
          2    1    1    2  501    0  0.22596694670E+02 -0.25251058986E+02  0.13303575575E+03  0.13728342543E+03  0.00000000000E+00 0. -1.
<scales pt_clust_5="13000.00000" pt_clust_6="13000.00000" pt_clust_7="13000.00000" pt_clust_8="13000.00000" pt_clust_9="33.88549"></scales>
<clustering>
<clus scale="   33.885">  1  9  2 -1</clus>
<clus scale="   89.780">  7  8 -1 -1</clus>
<clus scale="   90.424">  5  6 -1 -1</clus>
<clus scale="  101.879">  1  7  2 -1</clus>
<clus scale="   33.885">  1  5  2 -1</clus>
</clustering>
</event>
<event>
 9    1  0.1636528E-005  0.2085802E+03  0.7546771E-02  0.1167771E+00
         21   -1    0    0  501  502  0.00000000000E+00  0.00000000000E+00  0.19889501358E+03  0.19889501358E+03  0.00000000000E+00 0. -1.
          1   -1    0    0  502    0 -0.00000000000E+00 -0.00000000000E+00 -0.85153995758E+03  0.85153995758E+03  0.00000000000E+00 0. -1.
         23    2    1    2    0    0 -0.36873707395E+02 -0.61197816036E+02 -0.39325061303E+03  0.40993690999E+03  0.91089969476E+02 0.  0.
         23    2    1    2    0    0 -0.14521786870E+03  0.11496972280E+03 -0.36794561511E+03  0.42179245692E+03  0.90656684724E+02 0.  0.
        -13    1    4    4    0    0 -0.15316569402E+03  0.87882132953E+02 -0.29839621802E+03  0.34673232045E+03  0.00000000000E+00 0. -1.
         13    1    4    4    0    0  0.79478253196E+01  0.27087589845E+02 -0.69549397090E+02  0.75060136468E+02  0.00000000000E+00 0.  1.
        -13    1    3    3    0    0 -0.60325427425E+02 -0.57377265954E+02 -0.35710076403E+03  0.36667732887E+03  0.00000000000E+00 0. -1.
         13    1    3    3    0    0  0.23451720031E+02 -0.38205500820E+01 -0.36149849007E+02  0.43259581119E+02  0.00000000000E+00 0.  1.
          1    1    1    2  501    0  0.18209157610E+03 -0.53771906762E+02  0.10855128414E+03  0.21870560425E+03  0.00000000000E+00 0. -1.
<scales pt_clust_5="13000.00000" pt_clust_6="13000.00000" pt_clust_7="13000.00000" pt_clust_8="13000.00000" pt_clust_9="187.84855"></scales>
<clustering>
<clus scale="   90.657">  5  6 -1 -1</clus>
<clus scale="   91.090">  7  8 -1 -1</clus>
<clus scale="  115.768">  2  7  1 -1</clus>
<clus scale="  187.849">  1  9  2 -1</clus>
<clus scale="  187.849">  1  5  2 -1</clus>
</clustering>
</event>
<event>
 9    1  0.1636528E-005  0.3148603E+03  0.7546771E-02  0.1078057E+00
          3   -1    0    0  502    0 -0.00000000000E+00  0.00000000000E+00  0.27154406881E+03  0.27154406881E+03  0.00000000000E+00 0. -1.
         21   -1    0    0  501  502  0.00000000000E+00 -0.00000000000E+00 -0.55835245314E+03  0.55835245314E+03  0.00000000000E+00 0. -1.
         23    2    1    2    0    0 -0.21380442297E+03 -0.21948943224E+03  0.64481845928E+02  0.32606485385E+03  0.90952945600E+02 0.  0.
         23    2    1    2    0    0  0.18556148562E+03  0.22252719081E+03 -0.23498327331E+03  0.38410614984E+03  0.91482129504E+02 0.  0.
        -11    1    4    4    0    0  0.12810831411E+03  0.20638692826E+03 -0.17416583683E+03  0.29889972068E+03  0.00000000000E+00 0.  1.
         11    1    4    4    0    0  0.57453171510E+02  0.16140262544E+02 -0.60817436475E+02  0.85206429164E+02  0.00000000000E+00 0. -1.
        -13    1    3    3    0    0 -0.86858717813E+02 -0.42200928681E+02 -0.64058597298E+01  0.96780113042E+02  0.00000000000E+00 0.  1.
         13    1    3    3    0    0 -0.12694570515E+03 -0.17728850356E+03  0.70887705658E+02  0.22928474081E+03  0.00000000000E+00 0. -1.
          3    1    1    2  501    0  0.28242937352E+02 -0.30377585647E+01 -0.11630695695E+03  0.11972551826E+03  0.00000000000E+00 0. -1.
<scales pt_clust_5="13000.00000" pt_clust_6="13000.00000" pt_clust_7="13000.00000" pt_clust_8="13000.00000" pt_clust_9="28.40584"></scales>
<clustering>
<clus scale="   28.406">  2  9  1 -1</clus>
<clus scale="   90.953">  7  8 -1 -1</clus>
<clus scale="   91.482">  5  6 -1 -1</clus>
<clus scale="  314.707">  1  7  2 -1</clus>
<clus scale="   28.406">  2  5  1 -1</clus>
</clustering>
</event>
<event>
 9    1  0.1636528E-005  0.9944857E+02  0.7546771E-02  0.1283346E+00
          1   -1    0    0  502    0 -0.00000000000E+00  0.00000000000E+00  0.54409723002E+03  0.54409723002E+03  0.00000000000E+00 0. -1.
         21   -1    0    0  501  502  0.00000000000E+00 -0.00000000000E+00 -0.82343998145E+02  0.82343998145E+02  0.00000000000E+00 0. -1.
         23    2    1    2    0    0  0.44072778790E+02 -0.96410938231E+01  0.42766602654E+03  0.43958278744E+03  0.91101241691E+02 0.  0.
         23    2    1    2    0    0 -0.24234079529E+02 -0.28181018562E+02  0.80045644164E+02  0.12411878602E+03  0.87273750205E+02 0.  0.
        -11    1    3    3    0    0  0.61526595415E+02 -0.35010782787E+02  0.30571381109E+03  0.31380282208E+03  0.00000000000E+00 0. -1.
         11    1    3    3    0    0 -0.17453816625E+02  0.25369688964E+02  0.12195221545E+03  0.12577996536E+03  0.00000000000E+00 0.  1.
        -13    1    4    4    0    0  0.21657990494E+02 -0.36974804070E+02  0.58878822174E+02  0.72821153443E+02  0.00000000000E+00 0. -1.
         13    1    4    4    0    0 -0.45892070023E+02  0.87937855071E+01  0.21166821991E+02  0.51297632574E+02  0.00000000000E+00 0.  1.
          1    1    1    2  501    0 -0.19838699261E+02  0.37822112386E+02 -0.45958438826E+02  0.62739654709E+02  0.00000000000E+00 0. -1.
<scales pt_clust_5="13000.00000" pt_clust_6="13000.00000" pt_clust_7="13000.00000" pt_clust_8="13000.00000" pt_clust_9="42.70932"></scales>
<clustering>
<clus scale="   42.709">  2  9  1 -1</clus>
<clus scale="   87.274">  7  8 -1 -1</clus>
<clus scale="   91.101">  5  6 -1 -1</clus>
<clus scale="   95.955">  2  7  1 -1</clus>
<clus scale="   42.709">  2  5  1 -1</clus>
</clustering>
</event>
<event>
 9    1  0.1636528E-005  0.1587655E+03  0.7546771E-02  0.1211965E+00
         21   -1    0    0  501  502  0.00000000000E+00  0.00000000000E+00  0.18104031661E+03  0.18104031661E+03  0.00000000000E+00 0. -1.
         -1   -1    0    0    0  501 -0.00000000000E+00 -0.00000000000E+00 -0.22843842277E+03  0.22843842277E+03  0.00000000000E+00 0.  1.
         23    2    1    2    0    0  0.23139155942E+02  0.20022311616E+02  0.32215521087E+02  0.10393631703E+03  0.93960655057E+02 0.  0.
         23    2    1    2    0    0 -0.14583280113E+03 -0.25328977871E+02 -0.52818765222E+02  0.17984494462E+03  0.87439231119E+02 0.  0.
        -13    1    4    4    0    0 -0.43514485242E+02 -0.49213129893E+02 -0.30521014743E+02  0.72436005693E+02  0.00000000000E+00 0.  1.
         13    1    4    4    0    0 -0.10231831589E+03  0.23884152022E+02 -0.22297750479E+02  0.10740893893E+03  0.00000000000E+00 0. -1.
        -13    1    3    3    0    0  0.32272137037E+01  0.55669382963E+02  0.76508243061E+01  0.56285257575E+02  0.00000000000E+00 0.  1.
         13    1    3    3    0    0  0.19911942238E+02 -0.35647071347E+02  0.24564696781E+02  0.47651059455E+02  0.00000000000E+00 0. -1.
         -1    1    1    2    0  502  0.12269364519E+03  0.53066662550E+01 -0.26794862018E+02  0.12569747773E+03  0.00000000000E+00 0.  1.
<scales pt_clust_5="13000.00000" pt_clust_6="13000.00000" pt_clust_7="13000.00000" pt_clust_8="13000.00000" pt_clust_9="132.51745"></scales>
<clustering>
<clus scale="   87.439">  5  6 -1 -1</clus>
<clus scale="   93.961">  7  8 -1 -1</clus>
<clus scale="   98.818">  2  7  1 -1</clus>
<clus scale="  132.517">  1  9  2 -1</clus>
<clus scale="  132.517">  1  5  2 -1</clus>
</clustering>
</event>
<event>
 9    1  0.1636528E-005  0.9612569E+02  0.7546771E-02  0.1291500E+00
         21   -1    0    0  501  502  0.00000000000E+00  0.00000000000E+00  0.48406059315E+02  0.48406059315E+02  0.00000000000E+00 0.  1.
          1   -1    0    0  502    0 -0.00000000000E+00 -0.00000000000E+00 -0.50569634470E+03  0.50569634470E+03  0.00000000000E+00 0. -1.
         23    2    1    2    0    0  0.22918788971E+01 -0.29207328452E+02 -0.26137632568E+03  0.27693853074E+03  0.86712429522E+02 0.  0.
         23    2    1    2    0    0 -0.30236325733E+02  0.17563317497E+02 -0.21835212950E+03  0.23948169495E+03  0.91929996406E+02 0.  0.
        -13    1    4    4    0    0  0.21128832719E+02  0.32482303048E+02 -0.52730691453E+02  0.65437400655E+02  0.00000000000E+00 0.  1.
         13    1    4    4    0    0 -0.51365158452E+02 -0.14918985551E+02 -0.16562143805E+03  0.17404429429E+03  0.00000000000E+00 0. -1.
        -13    1    3    3    0    0 -0.29648350792E+02  0.86007790600E+01 -0.42454964782E+02  0.52492115024E+02  0.00000000000E+00 0.  1.
         13    1    3    3    0    0  0.31940229689E+02 -0.37808107512E+02 -0.21892136090E+03  0.22444641571E+03  0.00000000000E+00 0. -1.
          1    1    1    2  501    0  0.27944446836E+02  0.11644010955E+02  0.22438169802E+02  0.37682178336E+02  0.00000000000E+00 0. -1.
<scales pt_clust_5="13000.00000" pt_clust_6="13000.00000" pt_clust_7="13000.00000" pt_clust_8="13000.00000" pt_clust_9="30.27334"></scales>
<clustering>
<clus scale="   30.273">  1  9  2 -1</clus>
<clus scale="   86.712">  7  8 -1 -1</clus>
<clus scale="   91.149">  2  7  1 -1</clus>
<clus scale="   91.930">  5  6 -1 -1</clus>
<clus scale="   30.273">  1  5  2 -1</clus>
</clustering>
</event>
<event>
 9    1  0.1636528E-005  0.1340520E+03  0.7546771E-02  0.1221623E+00
          3   -1    0    0  502    0 -0.00000000000E+00  0.00000000000E+00  0.15707995096E+03  0.15707995096E+03  0.00000000000E+00 0. -1.
         21   -1    0    0  501  502  0.00000000000E+00 -0.00000000000E+00 -0.25332085231E+03  0.25332085231E+03  0.00000000000E+00 0. -1.
         23    2    1    2    0    0 -0.72395886529E+02 -0.27082120504E+02  0.20988033562E+02  0.12035974088E+03  0.89840770448E+02 0.  0.
         23    2    1    2    0    0  0.14354028833E+03  0.19781261155E+02 -0.23242872220E+02  0.17193852883E+03  0.89596394571E+02 0.  0.
        -11    1    3    3    0    0 -0.22222973717E+02 -0.54075918552E+02  0.24247496689E+02  0.63293021920E+02  0.00000000000E+00 0. -1.
         11    1    3    3    0    0 -0.50172912812E+02  0.26993798047E+02 -0.32594631275E+01  0.57066718960E+02  0.00000000000E+00 0.  1.
        -13    1    4    4    0    0  0.13470055629E+03 -0.11256938164E+02 -0.58941914764E+01  0.13529855881E+03  0.00000000000E+00 0. -1.
         13    1    4    4    0    0  0.88397320352E+01  0.31038199320E+02 -0.17348680743E+02  0.36639970019E+02  0.00000000000E+00 0.  1.
          3    1    1    2  501    0 -0.71144401801E+02  0.73008593489E+01 -0.93986062692E+02  0.11810253357E+03  0.00000000000E+00 0. -1.
<scales pt_clust_5="13000.00000" pt_clust_6="13000.00000" pt_clust_7="13000.00000" pt_clust_8="13000.00000" pt_clust_9="71.51803"></scales>
<clustering>
<clus scale="   71.518">  2  9  1 -1</clus>
<clus scale="   89.596">  7  8 -1 -1</clus>
<clus scale="   89.841">  5  6 -1 -1</clus>
<clus scale="  133.888">  2  7  1 -1</clus>
<clus scale="   71.518">  2  5  1 -1</clus>
</clustering>
</event>
<event>
 9    1  0.1636528E-005  0.1072057E+03  0.7546771E-02  0.1269663E+00
          1   -1    0    0  502    0 -0.00000000000E+00  0.00000000000E+00  0.61333833334E+03  0.61333833334E+03  0.00000000000E+00 0. -1.
         21   -1    0    0  501  502  0.00000000000E+00 -0.00000000000E+00 -0.25332127034E+02  0.25332127034E+02  0.00000000000E+00 0.  1.
         23    2    1    2    0    0  0.42222231984E+02 -0.83805592603E+01  0.35677792488E+03  0.37061649944E+03  0.90626438365E+02 0.  0.
         23    2    1    2    0    0 -0.38972590554E+02 -0.18158865051E+02  0.19690458521E+03  0.22454514189E+03  0.98997463988E+02 0.  0.
        -11    1    3    3    0    0  0.58155821993E+02  0.24728284240E+02  0.20945552954E+03  0.21878118413E+03  0.00000000000E+00 0. -1.
         11    1    3    3    0    0 -0.15933590008E+02 -0.33108843501E+02  0.14732239534E+03  0.15183531532E+03  0.00000000000E+00 0.  1.
        -13    1    4    4    0    0  0.23456815659E+02 -0.31437238415E+02  0.10952880887E+03  0.11634037189E+03  0.00000000000E+00 0.  1.
         13    1    4    4    0    0 -0.62429406212E+02  0.13278373364E+02  0.87375776339E+02  0.10820477000E+03  0.00000000000E+00 0. -1.
          1    1    1    2  501    0 -0.32496414307E+01  0.26539424311E+02  0.34323696216E+02  0.43508819038E+02  0.00000000000E+00 0. -1.
<scales pt_clust_5="13000.00000" pt_clust_6="13000.00000" pt_clust_7="13000.00000" pt_clust_8="13000.00000" pt_clust_9="26.73764"></scales>
<clustering>
<clus scale="   26.738">  2  9  1 -1</clus>
<clus scale="   90.626">  5  6 -1 -1</clus>
<clus scale="   98.997">  7  8 -1 -1</clus>
<clus scale="   99.527">  1  5  2 -1</clus>
<clus scale="   26.738">  2  5  1 -1</clus>
</clustering>
</event>
<event>
 9    1  0.1636528E-005  0.9495332E+02  0.7546771E-02  0.1292606E+00
          2   -1    0    0  502    0 -0.00000000000E+00  0.00000000000E+00  0.23495911828E+03  0.23495911828E+03  0.00000000000E+00 0. -1.
         21   -1    0    0  501  502  0.00000000000E+00 -0.00000000000E+00 -0.16105955187E+03  0.16105955187E+03  0.00000000000E+00 0. -1.
         23    2    1    2    0    0 -0.16314710629E+02 -0.90410218513E+01  0.11042024655E+03  0.14604212756E+03  0.93743065422E+02 0.  0.
         23    2    1    2    0    0  0.12142547708E+02 -0.20771744630E+02  0.83578264884E+02  0.12616230841E+03  0.91393078848E+02 0.  0.
        -13    1    4    4    0    0 -0.39854387214E+02 -0.87313226041E+01  0.41506874632E+02  0.58201622111E+02  0.00000000000E+00 0. -1.
         13    1    4    4    0    0  0.51996934922E+02 -0.12040422026E+02  0.42071390253E+02  0.67960686295E+02  0.00000000000E+00 0.  1.
        -13    1    3    3    0    0  0.15942752620E+02 -0.42867307593E+02  0.36193212141E+02  0.58324317625E+02  0.00000000000E+00 0.  1.
         13    1    3    3    0    0 -0.32257463249E+02  0.33826285742E+02  0.74227034410E+02  0.87717809934E+02  0.00000000000E+00 0. -1.
          2    1    1    2  501    0  0.41721629203E+01  0.29812766481E+02 -0.12009894502E+03  0.12381423418E+03  0.00000000000E+00 0. -1.
<scales pt_clust_5="13000.00000" pt_clust_6="13000.00000" pt_clust_7="13000.00000" pt_clust_8="13000.00000" pt_clust_9="30.10329"></scales>
<clustering>
<clus scale="   30.103">  2  9  1 -1</clus>
<clus scale="   91.393">  5  6 -1 -1</clus>
<clus scale="   92.634">  2  5  1 -1</clus>
<clus scale="   93.743">  7  8 -1 -1</clus>
<clus scale="   30.103">  2  5  1 -1</clus>
</clustering>
</event>
<event>
 9    1  0.1636528E-005  0.1266044E+03  0.7546771E-02  0.1234137E+00
         -1   -1    0    0    0  501 -0.00000000000E+00  0.00000000000E+00  0.30896007864E+03  0.30896007864E+03  0.00000000000E+00 0.  1.
         21   -1    0    0  501  502  0.00000000000E+00 -0.00000000000E+00 -0.84691201074E+02  0.84691201074E+02  0.00000000000E+00 0. -1.
         23    2    1    2    0    0 -0.80875507738E+02 -0.25505255549E+01  0.21448572905E+03  0.24744185725E+03  0.93145004270E+02 0.  0.
         23    2    1    2    0    0  0.75793167648E+02 -0.17115218343E+02  0.11390740812E+02  0.12583404476E+03  0.98320510996E+02 0.  0.
        -11    1    3    3    0    0 -0.58109389828E+02  0.38393909220E+02  0.16600914924E+03  0.18002730649E+03  0.00000000000E+00 0.  1.
         11    1    3    3    0    0 -0.22766117910E+02 -0.40944434775E+02  0.48476579810E+02  0.67414550758E+02  0.00000000000E+00 0. -1.
        -13    1    4    4    0    0  0.14606576908E+01  0.34479660435E+02 -0.88002750510E+00  0.34521804023E+02  0.00000000000E+00 0.  1.
         13    1    4    4    0    0  0.74332509957E+02 -0.51594878778E+02  0.12270768317E+02  0.91312240733E+02  0.00000000000E+00 0. -1.
         -1    1    1    2    0  502  0.50823400907E+01  0.19665743898E+02 -0.16075922933E+01  0.20375377710E+02  0.00000000000E+00 0.  1.
<scales pt_clust_5="13000.00000" pt_clust_6="13000.00000" pt_clust_7="13000.00000" pt_clust_8="13000.00000" pt_clust_9="20.31186"></scales>
<clustering>
<clus scale="   20.312">  2  9  1 -1</clus>
<clus scale="   93.145">  5  6 -1 -1</clus>
<clus scale="   98.321">  7  8 -1 -1</clus>
<clus scale="  122.628">  1  5  2 -1</clus>
<clus scale="   20.312">  2  5  1 -1</clus>
</clustering>
</event>
<event>
 9    1  0.1636528E-005  0.9223375E+02  0.7546771E-02  0.1298036E+00
         21   -1    0    0  501  502  0.00000000000E+00  0.00000000000E+00  0.87610523511E+02  0.87610523511E+02  0.00000000000E+00 0. -1.
          1   -1    0    0  502    0 -0.00000000000E+00 -0.00000000000E+00 -0.30925352179E+03  0.30925352179E+03  0.00000000000E+00 0. -1.
         23    2    1    2    0    0 -0.78772663650E+00 -0.14592574939E+02 -0.21108739078E+03  0.23068617177E+03  0.91894828702E+02 0.  0.
         23    2    1    2    0    0  0.36145622613E+01 -0.93966185572E+01 -0.61140630551E+02  0.11012150046E+03  0.91034096137E+02 0.  0.
        -13    1    4    4    0    0  0.43573488954E+02 -0.22907331984E+02 -0.29478421552E+02  0.57379196016E+02  0.00000000000E+00 0.  1.
         13    1    4    4    0    0 -0.39958926693E+02  0.13510713427E+02 -0.31662208998E+02  0.52742304447E+02  0.00000000000E+00 0. -1.
        -13    1    3    3    0    0 -0.29397316652E+02 -0.16259084579E+02 -0.19489664670E+03  0.19777073330E+03  0.00000000000E+00 0. -1.
         13    1    3    3    0    0  0.28609590016E+02  0.16665096397E+01 -0.16190744079E+02  0.32915438461E+02  0.00000000000E+00 0.  1.
          1    1    1    2  501    0 -0.28268356248E+01  0.23989193497E+02  0.50585023052E+02  0.56056373067E+02  0.00000000000E+00 0. -1.
<scales pt_clust_5="13000.00000" pt_clust_6="13000.00000" pt_clust_7="13000.00000" pt_clust_8="13000.00000" pt_clust_9="24.15517"></scales>
<clustering>
<clus scale="   24.155">  1  9  2 -1</clus>
<clus scale="   91.034">  5  6 -1 -1</clus>
<clus scale="   91.376">  1  5  2 -1</clus>
<clus scale="   91.895">  7  8 -1 -1</clus>
<clus scale="   24.155">  1  5  2 -1</clus>
</clustering>
</event>
<event>
 9    1  0.1636528E-005  0.9828251E+02  0.7546771E-02  0.1284302E+00
          1   -1    0    0  502    0 -0.00000000000E+00  0.00000000000E+00  0.35123496726E+03  0.35123496726E+03  0.00000000000E+00 0. -1.
         21   -1    0    0  501  502  0.00000000000E+00 -0.00000000000E+00 -0.49307237800E+02  0.49307237800E+02  0.00000000000E+00 0. -1.
         23    2    1    2    0    0  0.33458496446E+02  0.14767676146E+01  0.18705533957E+03  0.21054275336E+03  0.90647113054E+02 0.  0.
         23    2    1    2    0    0 -0.37249819552E+02 -0.40948753045E+02  0.10544958046E+03  0.14924161684E+03  0.89939405966E+02 0.  0.
        -13    1    4    4    0    0  0.29063222111E+02 -0.89198398110E+01  0.19777255032E+02  0.36268088429E+02  0.00000000000E+00 0.  1.
         13    1    4    4    0    0 -0.66313041663E+02 -0.32028913234E+02  0.85672325425E+02  0.11297352841E+03  0.00000000000E+00 0. -1.
        -13    1    3    3    0    0 -0.21743251499E+02 -0.26776511363E+02  0.72192147512E+02  0.80009103913E+02  0.00000000000E+00 0.  1.
         13    1    3    3    0    0  0.55201747945E+02  0.28253278978E+02  0.11486319205E+03  0.13053364945E+03  0.00000000000E+00 0. -1.
          1    1    1    2  501    0  0.37913231059E+01  0.39471985431E+02  0.94228094342E+01  0.40757834859E+02  0.00000000000E+00 0. -1.
<scales pt_clust_5="13000.00000" pt_clust_6="13000.00000" pt_clust_7="13000.00000" pt_clust_8="13000.00000" pt_clust_9="39.65365"></scales>
<clustering>
<clus scale="   39.654">  2  9  1 -1</clus>
<clus scale="   89.939">  5  6 -1 -1</clus>
<clus scale="   90.647">  7  8 -1 -1</clus>
<clus scale="   97.630">  2  5  1 -1</clus>
<clus scale="   39.654">  2  5  1 -1</clus>
</clustering>
</event>
<event>
 9    1  0.1636528E-005  0.1100957E+03  0.7546771E-02  0.1263249E+00
         21   -1    0    0  501  502  0.00000000000E+00  0.00000000000E+00  0.17940259407E+03  0.17940259407E+03  0.00000000000E+00 0.  1.
         -1   -1    0    0    0  501 -0.00000000000E+00 -0.00000000000E+00 -0.13410046410E+03  0.13410046410E+03  0.00000000000E+00 0.  1.
         23    2    1    2    0    0  0.21717189848E+02  0.54529194271E+02 -0.68066615609E+02  0.13274219729E+03  0.97684990758E+02 0.  0.
         23    2    1    2    0    0 -0.13153635288E+02 -0.29834069772E+02  0.42994466560E+02  0.10568940966E+03  0.90877045066E+02 0.  0.
        -11    1    4    4    0    0 -0.38708197892E+02  0.13679144094E+02  0.27530730626E+01  0.41146360453E+02  0.00000000000E+00 0.  1.
         11    1    4    4    0    0  0.25554562605E+02 -0.43513213866E+02  0.40241393497E+02  0.64543049211E+02  0.00000000000E+00 0. -1.
        -13    1    3    3    0    0  0.46587812318E+02  0.12425600937E+01 -0.55745546730E+02  0.72660403194E+02  0.00000000000E+00 0.  1.
         13    1    3    3    0    0 -0.24870622470E+02  0.53286634177E+02 -0.12321068879E+02  0.60081794100E+02  0.00000000000E+00 0. -1.
         -1    1    1    2    0  502 -0.85635545608E+01 -0.24695124499E+02  0.70374279016E+02  0.75071451216E+02  0.00000000000E+00 0.  1.
<scales pt_clust_5="13000.00000" pt_clust_6="13000.00000" pt_clust_7="13000.00000" pt_clust_8="13000.00000" pt_clust_9="26.13778"></scales>
<clustering>
<clus scale="   26.138">  1  9  2 -1</clus>
<clus scale="   90.877">  5  6 -1 -1</clus>
<clus scale="   97.685">  7  8 -1 -1</clus>
<clus scale="  104.103">  1  5  2 -1</clus>
<clus scale="   26.138">  1  5  2 -1</clus>
</clustering>
</event>
<event>
 9    1  0.1636528E-005  0.2285748E+03  0.7546771E-02  0.1155566E+00
         21   -1    0    0  501  502  0.00000000000E+00  0.00000000000E+00  0.12925756599E+03  0.12925756599E+03  0.00000000000E+00 0.  1.
         -1   -1    0    0    0  501 -0.00000000000E+00 -0.00000000000E+00 -0.85797026775E+03  0.85797026775E+03  0.00000000000E+00 0.  1.
         23    2    1    2    0    0  0.64991025812E+02  0.33220015026E+02 -0.14732302431E+03  0.18799222843E+03  0.91157016319E+02 0.  0.
         23    2    1    2    0    0  0.16100233773E+03 -0.17963499507E+02 -0.53902959729E+03  0.56880093340E+03  0.82080174274E+02 0.  0.
        -11    1    4    4    0    0  0.58602389112E+02  0.21060435446E+02 -0.11430199167E+03  0.13016423184E+03  0.00000000000E+00 0. -1.
         11    1    4    4    0    0  0.10239994861E+03 -0.39023934953E+02 -0.42472760562E+03  0.43863670156E+03  0.00000000000E+00 0.  1.
        -11    1    3    3    0    0  0.38488327100E+02  0.37715923401E+02 -0.15149088136E+03  0.16078970532E+03  0.00000000000E+00 0.  1.
         11    1    3    3    0    0  0.26502698711E+02 -0.44959083748E+01  0.41678570541E+01  0.27202523109E+02  0.00000000000E+00 0. -1.
         -1    1    1    2    0  502 -0.22599336354E+03 -0.15256515519E+02 -0.42360080150E+02  0.23043467191E+03  0.00000000000E+00 0.  1.
<scales pt_clust_5="13000.00000" pt_clust_6="13000.00000" pt_clust_7="13000.00000" pt_clust_8="13000.00000" pt_clust_9="213.32910"></scales>
<clustering>
<clus scale="   82.080">  5  6 -1 -1</clus>
<clus scale="   91.157">  7  8 -1 -1</clus>
<clus scale="  116.778">  2  7  1 -1</clus>
<clus scale="  213.329">  1  9  2 -1</clus>
<clus scale="  213.329">  1  5  2 -1</clus>
</clustering>
</event>
<event>
 9    1  0.1636528E-005  0.1694157E+03  0.7546771E-02  0.1203288E+00
         21   -1    0    0  501  502  0.00000000000E+00  0.00000000000E+00  0.24487430216E+03  0.24487430216E+03  0.00000000000E+00 0. -1.
          1   -1    0    0  502    0 -0.00000000000E+00 -0.00000000000E+00 -0.36472346078E+03  0.36472346078E+03  0.00000000000E+00 0. -1.
         23    2    1    2    0    0  0.35819179468E+02  0.19227039833E+02 -0.22940688068E+03  0.24944553655E+03  0.89122758724E+02 0.  0.
         23    2    1    2    0    0  0.90133043533E+02 -0.90753950023E+02 -0.25784289391E+02  0.16191620186E+03  0.95873780893E+02 0.  0.
        -13    1    3    3    0    0  0.34595050789E+01  0.51812439414E+02 -0.12750937902E+03  0.13767766264E+03  0.00000000000E+00 0.  1.
         13    1    3    3    0    0  0.32359674389E+02 -0.32585399582E+02 -0.10189750166E+03  0.11176787391E+03  0.00000000000E+00 0. -1.
        -13    1    4    4    0    0  0.71307001681E+02 -0.10892608226E+03 -0.83171418585E+01  0.13045594940E+03  0.00000000000E+00 0. -1.
         13    1    4    4    0    0  0.18826041852E+02  0.18172132235E+02 -0.17467147533E+02  0.31460252458E+02  0.00000000000E+00 0.  1.
          1    1    1    2  501    0 -0.12595222300E+03  0.71526910190E+02  0.13534201145E+03  0.19823602454E+03  0.00000000000E+00 0. -1.
<scales pt_clust_5="13000.00000" pt_clust_6="13000.00000" pt_clust_7="13000.00000" pt_clust_8="13000.00000" pt_clust_9="139.67783"></scales>
<clustering>
<clus scale="   89.123">  5  6 -1 -1</clus>
<clus scale="   95.874">  7  8 -1 -1</clus>
<clus scale="   97.957">  2  5  1 -1</clus>
<clus scale="  139.678">  1  9  2 -1</clus>
<clus scale="  139.678">  1  5  2 -1</clus>
</clustering>
</event>
<event>
 9    1  0.1636528E-005  0.1707773E+03  0.7546771E-02  0.1177124E+00
          1   -1    0    0  502    0 -0.00000000000E+00  0.00000000000E+00  0.42002048465E+03  0.42002048465E+03  0.00000000000E+00 0. -1.
         21   -1    0    0  501  502  0.00000000000E+00 -0.00000000000E+00 -0.12040982803E+03  0.12040982803E+03  0.00000000000E+00 0.  1.
         23    2    1    2    0    0 -0.15194571630E+03 -0.54343004911E+02  0.27442031027E+03  0.33134446779E+03  0.91880284937E+02 0.  0.
         23    2    1    2    0    0  0.86244086018E+02  0.57849318608E+02 -0.10168605529E+01  0.13826341799E+03  0.91275148387E+02 0.  0.
        -13    1    3    3    0    0 -0.10335538328E+03 -0.53421920772E+02  0.25253083111E+03  0.27804326558E+03  0.00000000000E+00 0.  1.
         13    1    3    3    0    0 -0.48590333026E+02 -0.92108413898E+00  0.21889479163E+02  0.53301202215E+02  0.00000000000E+00 0. -1.
        -13    1    4    4    0    0  0.66520800051E+02 -0.26313624403E+01  0.22750876848E+02  0.70352990733E+02  0.00000000000E+00 0. -1.
         13    1    4    4    0    0  0.19723285967E+02  0.60480681048E+02 -0.23767737401E+02  0.67910427259E+02  0.00000000000E+00 0.  1.
          1    1    1    2  501    0  0.65701630285E+02 -0.35063136968E+01  0.26207206899E+02  0.70822426895E+02  0.00000000000E+00 0. -1.
<scales pt_clust_5="13000.00000" pt_clust_6="13000.00000" pt_clust_7="13000.00000" pt_clust_8="13000.00000" pt_clust_9="65.79512"></scales>
<clustering>
<clus scale="   65.795">  2  9  1 -1</clus>
<clus scale="   91.275">  7  8 -1 -1</clus>
<clus scale="   91.880">  5  6 -1 -1</clus>
<clus scale="  170.452">  2  7  1 -1</clus>
<clus scale="   65.795">  2  5  1 -1</clus>
</clustering>
</event>
<event>
 9    1  0.1636528E-005  0.1125003E+03  0.7546771E-02  0.1256042E+00
         21   -1    0    0  501  502  0.00000000000E+00  0.00000000000E+00  0.28209480809E+03  0.28209480809E+03  0.00000000000E+00 0.  1.
          1   -1    0    0  502    0 -0.00000000000E+00 -0.00000000000E+00 -0.12525712297E+03  0.12525712297E+03  0.00000000000E+00 0. -1.
         23    2    1    2    0    0  0.95429800223E+01  0.63058742535E+02 -0.61783431064E+02  0.12751394671E+03  0.91515795209E+02 0.  0.
         23    2    1    2    0    0 -0.53303864563E+02 -0.66794999014E+02  0.18966598071E+03  0.22723214343E+03  0.91424224903E+02 0.  0.
        -13    1    3    3    0    0  0.30364574245E+02  0.11157341266E+02  0.12373112315E+02  0.34635062315E+02  0.00000000000E+00 0.  1.
         13    1    3    3    0    0 -0.20821594223E+02  0.51901401269E+02 -0.74156543379E+02  0.92878884391E+02  0.00000000000E+00 0. -1.
        -13    1    4    4    0    0 -0.45682317712E+02 -0.88745668692E+02  0.13551380139E+03  0.16830525312E+03  0.00000000000E+00 0.  1.
         13    1    4    4    0    0 -0.76215468519E+01  0.21950669679E+02  0.54152179324E+02  0.58926890307E+02  0.00000000000E+00 0. -1.
          1    1    1    2  501    0  0.43760884541E+02  0.37362564786E+01  0.28955135476E+02  0.52605840918E+02  0.00000000000E+00 0. -1.
<scales pt_clust_5="13000.00000" pt_clust_6="13000.00000" pt_clust_7="13000.00000" pt_clust_8="13000.00000" pt_clust_9="43.92009"></scales>
<clustering>
<clus scale="   43.920">  1  9  2 -1</clus>
<clus scale="   91.424">  7  8 -1 -1</clus>
<clus scale="   91.516">  5  6 -1 -1</clus>
<clus scale="  112.426">  1  7  2 -1</clus>
<clus scale="   43.920">  1  5  2 -1</clus>
</clustering>
</event>
<event>
 9    1  0.1636528E-005  0.9735998E+02  0.7546771E-02  0.1286235E+00
         21   -1    0    0  501  502  0.00000000000E+00  0.00000000000E+00  0.15460547383E+03  0.15460547383E+03  0.00000000000E+00 0.  1.
          1   -1    0    0  502    0 -0.00000000000E+00 -0.00000000000E+00 -0.87929845860E+02  0.87929845860E+02  0.00000000000E+00 0. -1.
         23    2    1    2    0    0  0.38571858085E+02  0.12308375426E+02  0.26672313019E+01  0.10107304222E+03  0.92570845297E+02 0.  0.
         23    2    1    2    0    0 -0.11242183120E+02 -0.16757330031E+02  0.32823764033E+02  0.99758732737E+02  0.92017446612E+02 0.  0.
        -11    1    3    3    0    0  0.55616212579E+02  0.31667664065E+02  0.23230905366E+02  0.68085820940E+02  0.00000000000E+00 0.  1.
         11    1    3    3    0    0 -0.17044354495E+02 -0.19359288639E+02 -0.20563674064E+02  0.32987221280E+02  0.00000000000E+00 0. -1.
        -11    1    4    4    0    0  0.14627901827E+02  0.32400211639E+02  0.25454453251E+02  0.43722744841E+02  0.00000000000E+00 0.  1.
         11    1    4    4    0    0 -0.25870084947E+02 -0.49157541670E+02  0.73693107823E+01  0.56035987897E+02  0.00000000000E+00 0. -1.
          1    1    1    2  501    0 -0.27329674965E+02  0.44489546045E+01  0.31184632635E+02  0.41703544733E+02  0.00000000000E+00 0. -1.
<scales pt_clust_5="13000.00000" pt_clust_6="13000.00000" pt_clust_7="13000.00000" pt_clust_8="13000.00000" pt_clust_9="27.68943"></scales>
<clustering>
<clus scale="   27.689">  1  9  2 -1</clus>
<clus scale="   92.017">  7  8 -1 -1</clus>
<clus scale="   92.571">  5  6 -1 -1</clus>
<clus scale="   96.834">  1  7  2 -1</clus>
<clus scale="   27.689">  1  5  2 -1</clus>
</clustering>
</event>
<event>
 9    1  0.1636528E-005  0.1077500E+03  0.7546771E-02  0.1265204E+00
          1   -1    0    0  502    0 -0.00000000000E+00  0.00000000000E+00  0.28253504842E+03  0.28253504842E+03  0.00000000000E+00 0. -1.
         21   -1    0    0  501  502  0.00000000000E+00 -0.00000000000E+00 -0.18425380996E+03  0.18425380996E+03  0.00000000000E+00 0. -1.
         23    2    1    2    0    0  0.45647929443E+02 -0.41545627440E+02  0.20744067270E+03  0.23489485483E+03  0.91291771347E+02 0.  0.
         23    2    1    2    0    0 -0.48486115587E+02 -0.68684703971E+01  0.83049250886E+01  0.10481192031E+03  0.92295653027E+02 0.  0.
        -11    1    3    3    0    0 -0.21092679047E+02 -0.14618500997E+02  0.15680463027E+02  0.30074550728E+02  0.00000000000E+00 0.  1.
         11    1    3    3    0    0  0.66740608491E+02 -0.26927126443E+02  0.19176020967E+03  0.20482030410E+03  0.00000000000E+00 0. -1.
        -13    1    4    4    0    0 -0.56937405700E+02  0.30837325870E+02  0.12487072952E+02  0.65944945413E+02  0.00000000000E+00 0.  1.
         13    1    4    4    0    0  0.84512901126E+01 -0.37705796267E+02 -0.41821478639E+01  0.38866974895E+02  0.00000000000E+00 0. -1.
          1    1    1    2  501    0  0.28381861437E+01  0.48414097837E+02 -0.11746435932E+03  0.12708208324E+03  0.00000000000E+00 0. -1.
<scales pt_clust_5="13000.00000" pt_clust_6="13000.00000" pt_clust_7="13000.00000" pt_clust_8="13000.00000" pt_clust_9="48.49722"></scales>
<clustering>
<clus scale="   48.497">  2  9  1 -1</clus>
<clus scale="   91.292">  5  6 -1 -1</clus>
<clus scale="   92.296">  7  8 -1 -1</clus>
<clus scale="  106.891">  1  5  2 -1</clus>
<clus scale="   48.497">  2  5  1 -1</clus>
</clustering>
</event>
<event>
 9    1  0.1636528E-005  0.1167641E+03  0.7546771E-02  0.1249639E+00
          2   -1    0    0  502    0 -0.00000000000E+00  0.00000000000E+00  0.52448417351E+03  0.52448417351E+03  0.00000000000E+00 0. -1.
         21   -1    0    0  501  502  0.00000000000E+00 -0.00000000000E+00 -0.62846216115E+02  0.62846216115E+02  0.00000000000E+00 0. -1.
         23    2    1    2    0    0 -0.37817567749E+02  0.97779412520E+02  0.23430620625E+03  0.27144393498E+03  0.88269075034E+02 0.  0.
         23    2    1    2    0    0  0.62325868336E+02  0.58085148501E+01  0.94813053810E+02  0.14590904250E+03  0.91551519940E+02 0.  0.
        -11    1    3    3    0    0  0.20660556380E+02  0.34583845423E+02  0.13050230220E+03  0.13657873859E+03  0.00000000000E+00 0. -1.
         11    1    3    3    0    0 -0.58478124130E+02  0.63195567097E+02  0.10380390404E+03  0.13486519639E+03  0.00000000000E+00 0.  1.
        -11    1    4    4    0    0 -0.14923901937E+02 -0.17371885518E+02  0.46653910051E+02  0.51972036506E+02  0.00000000000E+00 0.  1.
         11    1    4    4    0    0  0.77249770273E+02  0.23180400368E+02  0.48159143758E+02  0.93937005999E+02  0.00000000000E+00 0. -1.
          2    1    1    2  501    0 -0.24508300586E+02 -0.10358792737E+03  0.13251869734E+03  0.16997741214E+03  0.00000000000E+00 0. -1.
<scales pt_clust_5="13000.00000" pt_clust_6="13000.00000" pt_clust_7="13000.00000" pt_clust_8="13000.00000" pt_clust_9="106.44771"></scales>
<clustering>
<clus scale="   88.269">  5  6 -1 -1</clus>
<clus scale="   91.552">  7  8 -1 -1</clus>
<clus scale="  106.448">  2  9  1 -1</clus>
<clus scale="  114.209">  1  5  2 -1</clus>
<clus scale="  106.448">  2  5  1 -1</clus>
</clustering>
</event>
<event>
 9    1  0.1636528E-005  0.1236580E+03  0.7546771E-02  0.1237243E+00
         21   -1    0    0  501  502  0.00000000000E+00  0.00000000000E+00  0.21280179291E+03  0.21280179291E+03  0.00000000000E+00 0. -1.
          1   -1    0    0  502    0 -0.00000000000E+00 -0.00000000000E+00 -0.15567036263E+03  0.15567036263E+03  0.00000000000E+00 0. -1.
         23    2    1    2    0    0  0.60778463288E+02 -0.59082627197E+02 -0.92005209337E+02  0.15410262467E+03  0.89988232287E+02 0.  0.
         23    2    1    2    0    0 -0.77130548336E+02  0.39915953298E+02  0.10440491643E+03  0.16303066515E+03  0.90200922333E+02 0.  0.
        -11    1    4    4    0    0  0.10653361840E+02  0.19476837210E+02 -0.34570598976E+01  0.22467589308E+02  0.00000000000E+00 0.  1.
         11    1    4    4    0    0 -0.87783910176E+02  0.20439116088E+02  0.10786197633E+03  0.14056307584E+03  0.00000000000E+00 0. -1.
        -13    1    3    3    0    0  0.13728755794E+02  0.14981007738E+02  0.72949231229E+01  0.21589933577E+02  0.00000000000E+00 0.  1.
         13    1    3    3    0    0  0.47049707494E+02 -0.74063634936E+02 -0.99300132460E+02  0.13251269110E+03  0.00000000000E+00 0. -1.
          1    1    1    2  501    0  0.16352085048E+02  0.19166673899E+02  0.44731723182E+02  0.51338865712E+02  0.00000000000E+00 0. -1.
<scales pt_clust_5="13000.00000" pt_clust_6="13000.00000" pt_clust_7="13000.00000" pt_clust_8="13000.00000" pt_clust_9="25.19429"></scales>
<clustering>
<clus scale="   25.194">  1  9  2 -1</clus>
<clus scale="   89.988">  7  8 -1 -1</clus>
<clus scale="   90.201">  5  6 -1 -1</clus>
<clus scale="  123.503">  2  7  1 -1</clus>
<clus scale="   25.194">  1  5  2 -1</clus>
</clustering>
</event>
<event>
 9    1  0.1636528E-005  0.9790073E+02  0.7546771E-02  0.1286883E+00
         21   -1    0    0  501  502  0.00000000000E+00  0.00000000000E+00  0.15503404800E+03  0.15503404800E+03  0.00000000000E+00 0. -1.
          3   -1    0    0  502    0 -0.00000000000E+00 -0.00000000000E+00 -0.25879229223E+03  0.25879229223E+03  0.00000000000E+00 0. -1.
         23    2    1    2    0    0  0.34911064487E+02  0.23164445026E+02 -0.16518499259E+03  0.19353414741E+03  0.91727915601E+02 0.  0.
         23    2    1    2    0    0  0.64191871192E+02 -0.10835148835E+02  0.29496953924E+02  0.11544508900E+03  0.90661466490E+02 0.  0.
        -11    1    4    4    0    0  0.57460046144E+02 -0.47352925378E+02  0.18591278203E+02  0.76743677720E+02  0.00000000000E+00 0. -1.
         11    1    4    4    0    0  0.67318250481E+01  0.36517776543E+02  0.10905675721E+02  0.38701411280E+02  0.00000000000E+00 0.  1.
        -13    1    3    3    0    0  0.64713904163E+02  0.28522635069E+01 -0.10624612309E+03  0.12443578051E+03  0.00000000000E+00 0. -1.
         13    1    3    3    0    0 -0.29802839675E+02  0.20312181519E+02 -0.58938869502E+02  0.69098366905E+02  0.00000000000E+00 0.  1.
          3    1    1    2  501    0 -0.99102935680E+02 -0.12329296191E+02  0.31929794439E+02  0.10484710381E+03  0.00000000000E+00 0. -1.
<scales pt_clust_5="13000.00000" pt_clust_6="13000.00000" pt_clust_7="13000.00000" pt_clust_8="13000.00000" pt_clust_9="99.86693"></scales>
<clustering>
<clus scale="   90.661">  5  6 -1 -1</clus>
<clus scale="   91.728">  7  8 -1 -1</clus>
<clus scale="   99.867">  1  9  2 -1</clus>
<clus scale="   99.867">  1  5  2 -1</clus>
<clus scale="   97.901">  1  5  2 -1</clus>
</clustering>
</event>
<event>
 9    1  0.1636528E-005  0.1132646E+03  0.7546771E-02  0.1255269E+00
         -1   -1    0    0    0  501 -0.00000000000E+00  0.00000000000E+00  0.58455993546E+03  0.58455993546E+03  0.00000000000E+00 0.  1.
         21   -1    0    0  501  502  0.00000000000E+00 -0.00000000000E+00 -0.42865126706E+02  0.42865126706E+02  0.00000000000E+00 0.  1.
         23    2    1    2    0    0 -0.74552878546E+02  0.93514773826E+01  0.39202584429E+03  0.40921214074E+03  0.90137293685E+02 0.  0.
         23    2    1    2    0    0  0.49057976666E+02 -0.35778797263E+02  0.14623711124E+03  0.18133242692E+03  0.88370520776E+02 0.  0.
        -11    1    3    3    0    0  0.33116864701E+01  0.28865503037E+02  0.49421716159E+02  0.57329665628E+02  0.00000000000E+00 0. -1.
         11    1    3    3    0    0 -0.77864565016E+02 -0.19514025654E+02  0.34260412813E+03  0.35188247511E+03  0.00000000000E+00 0.  1.
        -11    1    4    4    0    0  0.28689207694E+02  0.27891984234E+02  0.62042894417E+02  0.73826514006E+02  0.00000000000E+00 0. -1.
         11    1    4    4    0    0  0.20368768972E+02 -0.63670781497E+02  0.84194216822E+02  0.10750591292E+03  0.00000000000E+00 0.  1.
         -1    1    1    2    0  502  0.25494901879E+02  0.26427319881E+02  0.34318532255E+01  0.36880494499E+02  0.00000000000E+00 0.  1.
<scales pt_clust_5="13000.00000" pt_clust_6="13000.00000" pt_clust_7="13000.00000" pt_clust_8="13000.00000" pt_clust_9="36.72047"></scales>
<clustering>
<clus scale="   36.720">  2  9  1 -1</clus>
<clus scale="   88.371">  7  8 -1 -1</clus>
<clus scale="   90.137">  5  6 -1 -1</clus>
<clus scale="  111.864">  2  7  1 -1</clus>
<clus scale="   36.720">  2  5  1 -1</clus>
</clustering>
</event>
<event>
 9    1  0.1636528E-005  0.9491681E+02  0.7546771E-02  0.1293585E+00
         -1   -1    0    0    0  501 -0.00000000000E+00  0.00000000000E+00  0.39435988631E+03  0.39435988631E+03  0.00000000000E+00 0.  1.
         21   -1    0    0  501  502  0.00000000000E+00 -0.00000000000E+00 -0.47455021795E+02  0.47455021795E+02  0.00000000000E+00 0. -1.
         23    2    1    2    0    0  0.26027617945E+02  0.27831013386E+00  0.24666909382E+03  0.26524106087E+03  0.93966292741E+02 0.  0.
         23    2    1    2    0    0  0.13397307901E+02 -0.12661682206E+02  0.99176500170E+02  0.13523627672E+03  0.90072561306E+02 0.  0.
        -13    1    4    4    0    0 -0.37624833680E+02 -0.13861151829E+02  0.52612322218E+02  0.66149951539E+02  0.00000000000E+00 0.  1.
         13    1    4    4    0    0  0.51022141580E+02  0.11994696239E+01  0.46564177952E+02  0.69086325182E+02  0.00000000000E+00 0. -1.
        -13    1    3    3    0    0 -0.50477893283E+01  0.40693503349E+02  0.67678375003E+02  0.79131560297E+02  0.00000000000E+00 0.  1.
         13    1    3    3    0    0  0.31075407274E+02 -0.40415193216E+02  0.17899071882E+03  0.18610950057E+03  0.00000000000E+00 0. -1.
         -1    1    1    2    0  502 -0.39424925846E+02  0.12383372072E+02  0.10592705205E+01  0.41337570512E+02  0.00000000000E+00 0.  1.
<scales pt_clust_5="13000.00000" pt_clust_6="13000.00000" pt_clust_7="13000.00000" pt_clust_8="13000.00000" pt_clust_9="41.32400"></scales>
<clustering>
<clus scale="   41.324">  2  9  1 -1</clus>
<clus scale="   90.073">  5  6 -1 -1</clus>
<clus scale="   91.064">  2  5  1 -1</clus>
<clus scale="   93.966">  7  8 -1 -1</clus>
<clus scale="   41.324">  2  5  1 -1</clus>
</clustering>
</event>
<event>
 9    1  0.1636528E-005  0.1624478E+03  0.7546771E-02  0.1206644E+00
         21   -1    0    0  501  502  0.00000000000E+00  0.00000000000E+00  0.61044237777E+03  0.61044237777E+03  0.00000000000E+00 0. -1.
          1   -1    0    0  502    0 -0.00000000000E+00 -0.00000000000E+00 -0.72072362327E+02  0.72072362327E+02  0.00000000000E+00 0. -1.
         23    2    1    2    0    0 -0.31388703852E+02  0.49428184960E+02  0.13802351467E+03  0.17243660732E+03  0.85179203715E+02 0.  0.
         23    2    1    2    0    0  0.67670537033E+02  0.93692560372E+02  0.10537769006E+03  0.18021980189E+03  0.89538382705E+02 0.  0.
        -13    1    4    4    0    0  0.21516776522E+02 -0.14781908010E+02  0.79608383051E+01  0.27291966269E+02  0.00000000000E+00 0.  1.
         13    1    4    4    0    0  0.46153760512E+02  0.10847446838E+03  0.97416851756E+02  0.15292783562E+03  0.00000000000E+00 0. -1.
        -13    1    3    3    0    0 -0.41598358789E+02  0.31138520530E+02  0.25318888469E+02  0.57802050379E+02  0.00000000000E+00 0. -1.
         13    1    3    3    0    0  0.10209654937E+02  0.18289664430E+02  0.11270462620E+03  0.11463455694E+03  0.00000000000E+00 0.  1.
          1    1    1    2  501    0 -0.36281833181E+02 -0.14312074533E+03  0.29496881071E+03  0.32985833089E+03  0.00000000000E+00 0. -1.
<scales pt_clust_5="13000.00000" pt_clust_6="13000.00000" pt_clust_7="13000.00000" pt_clust_8="13000.00000" pt_clust_9="135.54401"></scales>
<clustering>
<clus scale="   85.179">  7  8 -1 -1</clus>
<clus scale="   89.538">  5  6 -1 -1</clus>
<clus scale="  103.363">  2  7  1 -1</clus>
<clus scale="  135.544">  1  9  2 -1</clus>
<clus scale="  135.544">  1  5  2 -1</clus>
</clustering>
</event>
<event>
 9    1  0.1636528E-005  0.1027629E+03  0.7546771E-02  0.1274750E+00
          1   -1    0    0  502    0 -0.00000000000E+00  0.00000000000E+00  0.46881388089E+03  0.46881388089E+03  0.00000000000E+00 0. -1.
         21   -1    0    0  501  502  0.00000000000E+00 -0.00000000000E+00 -0.53236860350E+02  0.53236860350E+02  0.00000000000E+00 0. -1.
         23    2    1    2    0    0  0.41675938596E+02  0.36876376660E+02  0.30556192324E+03  0.32382545569E+03  0.91641070495E+02 0.  0.
         23    2    1    2    0    0 -0.99586949818E+01 -0.32360869146E+02  0.12851201166E+03  0.16123191869E+03  0.91290706025E+02 0.  0.
        -11    1    4    4    0    0 -0.33252031461E+02 -0.32425372273E+02  0.12984387210E+03  0.13790044773E+03  0.00000000000E+00 0.  1.
         11    1    4    4    0    0  0.23293336479E+02  0.64503126952E-01 -0.13318604358E+01  0.23331470961E+02  0.00000000000E+00 0. -1.
        -11    1    3    3    0    0  0.15728135170E+01 -0.27594511503E+02  0.12370617837E+03  0.12675625971E+03  0.00000000000E+00 0. -1.
         11    1    3    3    0    0  0.40103125079E+02  0.64470888163E+02  0.18185574487E+03  0.19706919598E+03  0.00000000000E+00 0.  1.
          1    1    1    2  501    0 -0.31717243615E+02 -0.45155075140E+01 -0.18496914365E+02  0.36993366860E+02  0.00000000000E+00 0. -1.
<scales pt_clust_5="13000.00000" pt_clust_6="13000.00000" pt_clust_7="13000.00000" pt_clust_8="13000.00000" pt_clust_9="32.03706"></scales>
<clustering>
<clus scale="   32.037">  2  9  1 -1</clus>
<clus scale="   91.291">  5  6 -1 -1</clus>
<clus scale="   91.641">  7  8 -1 -1</clus>
<clus scale="  102.451">  2  5  1 -1</clus>
<clus scale="   32.037">  2  5  1 -1</clus>
</clustering>
</event>
<event>
 9    1  0.1636528E-005  0.1495828E+03  0.7546771E-02  0.1201003E+00
          1   -1    0    0  502    0 -0.00000000000E+00  0.00000000000E+00  0.24805697828E+03  0.24805697828E+03  0.00000000000E+00 0. -1.
         21   -1    0    0  501  502  0.00000000000E+00 -0.00000000000E+00 -0.31639818935E+03  0.31639818935E+03  0.00000000000E+00 0. -1.
         23    2    1    2    0    0 -0.95850526974E+02 -0.63469492746E+02  0.18578226301E+03  0.23714089186E+03  0.92222845940E+02 0.  0.
         23    2    1    2    0    0  0.10883332693E+03  0.88542353822E+02 -0.17165723391E+03  0.24014844402E+03  0.92307246419E+02 0.  0.
        -11    1    3    3    0    0 -0.25022845483E+01 -0.44118824980E+02  0.26550886857E+02  0.51552708352E+02  0.00000000000E+00 0.  1.
         11    1    3    3    0    0 -0.93348242426E+02 -0.19350667766E+02  0.15923137615E+03  0.18558818351E+03  0.00000000000E+00 0. -1.
        -13    1    4    4    0    0  0.16991817632E+02  0.67098789162E+02 -0.46296370561E+02  0.83272584328E+02  0.00000000000E+00 0. -1.
         13    1    4    4    0    0  0.91841509294E+02  0.21443564659E+02 -0.12536086334E+03  0.15687585969E+03  0.00000000000E+00 0.  1.
          1    1    1    2  501    0 -0.12982799952E+02 -0.25072861076E+02 -0.82466240172E+02  0.87165831754E+02  0.00000000000E+00 0. -1.
<scales pt_clust_5="13000.00000" pt_clust_6="13000.00000" pt_clust_7="13000.00000" pt_clust_8="13000.00000" pt_clust_9="28.23476"></scales>
<clustering>
<clus scale="   28.235">  2  9  1 -1</clus>
<clus scale="   92.223">  5  6 -1 -1</clus>
<clus scale="   92.307">  7  8 -1 -1</clus>
<clus scale="  149.531">  1  5  2 -1</clus>
<clus scale="   28.235">  2  5  1 -1</clus>
</clustering>
</event>
<event>
 9    1  0.1636528E-005  0.1353304E+03  0.7546771E-02  0.1221499E+00
          2   -1    0    0  502    0 -0.00000000000E+00  0.00000000000E+00  0.38814620759E+03  0.38814620759E+03  0.00000000000E+00 0. -1.
         21   -1    0    0  501  502  0.00000000000E+00 -0.00000000000E+00 -0.99109896386E+02  0.99109896386E+02  0.00000000000E+00 0. -1.
         23    2    1    2    0    0 -0.27815497186E+02 -0.10004503660E+03  0.17108992515E+03  0.21978466898E+03  0.90834062992E+02 0.  0.
         23    2    1    2    0    0 -0.57053771156E+02  0.78475510695E+02  0.25301355253E+02  0.13999148014E+03  0.97692974939E+02 0.  0.
        -11    1    3    3    0    0  0.33228991710E+02 -0.32460560276E+02  0.49691439277E+02  0.68022738852E+02  0.00000000000E+00 0.  1.
         11    1    3    3    0    0 -0.61044488896E+02 -0.67584476327E+02  0.12139848587E+03  0.15176193013E+03  0.00000000000E+00 0. -1.
        -11    1    4    4    0    0 -0.61982875495E+01  0.83664650249E+02  0.22737248854E+01  0.83924741850E+02  0.00000000000E+00 0. -1.
         11    1    4    4    0    0 -0.50855483607E+02 -0.51891395539E+01  0.23027630368E+02  0.56066738291E+02  0.00000000000E+00 0.  1.
          2    1    1    2  501    0  0.84869268342E+02  0.21569525908E+02  0.92645030802E+02  0.12747995485E+03  0.00000000000E+00 0. -1.
<scales pt_clust_5="13000.00000" pt_clust_6="13000.00000" pt_clust_7="13000.00000" pt_clust_8="13000.00000" pt_clust_9="87.56737"></scales>
<clustering>
<clus scale="   87.567">  2  9  1 -1</clus>
<clus scale="   90.834">  5  6 -1 -1</clus>
<clus scale="   97.693">  7  8 -1 -1</clus>
<clus scale="  130.465">  1  5  2 -1</clus>
<clus scale="   87.567">  2  5  1 -1</clus>
</clustering>
</event>
<event>
 9    1  0.1636528E-005  0.1156112E+03  0.7546771E-02  0.1250762E+00
         21   -1    0    0  501  502  0.00000000000E+00  0.00000000000E+00  0.22504387025E+03  0.22504387025E+03  0.00000000000E+00 0. -1.
          1   -1    0    0  502    0 -0.00000000000E+00 -0.00000000000E+00 -0.28095451645E+03  0.28095451645E+03  0.00000000000E+00 0. -1.
         23    2    1    2    0    0 -0.14739432937E+02  0.72910228451E+02 -0.21714123525E+03  0.24701061867E+03  0.91273092375E+02 0.  0.
         23    2    1    2    0    0  0.25543426540E+02 -0.52744539927E+02  0.12595262225E+02  0.10860212492E+03  0.90561182499E+02 0.  0.
        -11    1    4    4    0    0  0.37041112794E+02  0.12953921635E+02 -0.51693177784E+01  0.39579918760E+02  0.00000000000E+00 0. -1.
         11    1    4    4    0    0 -0.11497686253E+02 -0.65698461563E+02  0.17764580003E+02  0.69022206163E+02  0.00000000000E+00 0.  1.
        -13    1    3    3    0    0 -0.25455673785E+02  0.39821490513E+02 -0.20467859905E+03  0.21006444570E+03  0.00000000000E+00 0. -1.
         13    1    3    3    0    0  0.10716240848E+02  0.33088737937E+02 -0.12462636196E+02  0.36946172970E+02  0.00000000000E+00 0.  1.
          1    1    1    2  501    0 -0.10803993603E+02 -0.20165688523E+02  0.14863532683E+03  0.15038564311E+03  0.00000000000E+00 0. -1.
<scales pt_clust_5="13000.00000" pt_clust_6="13000.00000" pt_clust_7="13000.00000" pt_clust_8="13000.00000" pt_clust_9="22.87753"></scales>
<clustering>
<clus scale="   22.878">  1  9  2 -1</clus>
<clus scale="   90.561">  5  6 -1 -1</clus>
<clus scale="   91.273">  7  8 -1 -1</clus>
<clus scale="  115.050">  1  5  2 -1</clus>
<clus scale="   22.878">  1  5  2 -1</clus>
</clustering>
</event>
<event>
 9    1  0.1636528E-005  0.1351911E+03  0.7546771E-02  0.1220461E+00
          1   -1    0    0  502    0 -0.00000000000E+00  0.00000000000E+00  0.39643297765E+03  0.39643297765E+03  0.00000000000E+00 0. -1.
         21   -1    0    0  501  502  0.00000000000E+00 -0.00000000000E+00 -0.94395631646E+02  0.94395631646E+02  0.00000000000E+00 0.  1.
         23    2    1    2    0    0  0.18506782821E+02 -0.10538008101E+03  0.30486883098E+03  0.33574029934E+03  0.91263804501E+02 0.  0.
         23    2    1    2    0    0 -0.87606938937E+01  0.75396831220E+02  0.16332951910E+02  0.11819309132E+03  0.89114586925E+02 0.  0.
        -13    1    4    4    0    0 -0.38982427578E+02  0.34596193188E+02 -0.19927856376E+02  0.55800051100E+02  0.00000000000E+00 0. -1.
         13    1    4    4    0    0  0.30221733685E+02  0.40800638032E+02  0.36260808286E+02  0.62393040223E+02  0.00000000000E+00 0.  1.
        -13    1    3    3    0    0 -0.20609165924E+02 -0.42854590210E+02  0.21137561089E+03  0.21665849280E+03  0.00000000000E+00 0. -1.
         13    1    3    3    0    0  0.39115948745E+02 -0.62525490798E+02  0.93493220088E+02  0.11908180654E+03  0.00000000000E+00 0.  1.
          1    1    1    2  501    0 -0.97460889277E+01  0.29983249788E+02 -0.19164436885E+02  0.36895218638E+02  0.00000000000E+00 0. -1.
<scales pt_clust_5="13000.00000" pt_clust_6="13000.00000" pt_clust_7="13000.00000" pt_clust_8="13000.00000" pt_clust_9="31.52747"></scales>
<clustering>
<clus scale="   31.527">  2  9  1 -1</clus>
<clus scale="   89.115">  5  6 -1 -1</clus>
<clus scale="   91.264">  7  8 -1 -1</clus>
<clus scale="  133.750">  2  5  1 -1</clus>
<clus scale="   31.527">  2  5  1 -1</clus>
</clustering>
</event>
<event>
 9    1  0.1636528E-005  0.1210172E+03  0.7546771E-02  0.1243938E+00
         -1   -1    0    0    0  501 -0.00000000000E+00  0.00000000000E+00  0.20610063626E+03  0.20610063626E+03  0.00000000000E+00 0.  1.
         21   -1    0    0  501  502  0.00000000000E+00 -0.00000000000E+00 -0.83682331272E+02  0.83682331272E+02  0.00000000000E+00 0.  1.
         23    2    1    2    0    0 -0.10708752484E+02  0.67323441026E+02  0.59025277866E+02  0.12861849603E+03  0.91714835237E+02 0.  0.
         23    2    1    2    0    0 -0.13786972120E+02 -0.71901924971E+02  0.51591685028E+02  0.13359139198E+03  0.99121090757E+02 0.  0.
        -13    1    3    3    0    0 -0.50637885327E+02  0.37086724735E+02  0.42799858244E+02  0.75970049675E+02  0.00000000000E+00 0.  1.
         13    1    3    3    0    0  0.39929132843E+02  0.30236716292E+02  0.16225419622E+02  0.52648446355E+02  0.00000000000E+00 0. -1.
        -13    1    4    4    0    0 -0.39626550475E+02 -0.72395411390E+02  0.64459818957E+02  0.10472071119E+03  0.00000000000E+00 0.  1.
         13    1    4    4    0    0  0.25839578355E+02  0.49348641947E+00 -0.12868133929E+02  0.28870680789E+02  0.00000000000E+00 0. -1.
         -1    1    1    2    0  502  0.24495724604E+02  0.45784839441E+01  0.11801342099E+02  0.27573079524E+02  0.00000000000E+00 0.  1.
<scales pt_clust_5="13000.00000" pt_clust_6="13000.00000" pt_clust_7="13000.00000" pt_clust_8="13000.00000" pt_clust_9="24.91995"></scales>
<clustering>
<clus scale="   24.920">  2  9  1 -1</clus>
<clus scale="   91.715">  5  6 -1 -1</clus>
<clus scale="   99.121">  7  8 -1 -1</clus>
<clus scale="  115.029">  1  5  2 -1</clus>
<clus scale="   24.920">  2  5  1 -1</clus>
</clustering>
</event>
<event>
 9    1  0.1636528E-005  0.1013240E+03  0.7546771E-02  0.1278081E+00
         21   -1    0    0  501  502  0.00000000000E+00  0.00000000000E+00  0.10752352851E+03  0.10752352851E+03  0.00000000000E+00 0.  1.
         -1   -1    0    0    0  501 -0.00000000000E+00 -0.00000000000E+00 -0.28117932119E+03  0.28117932119E+03  0.00000000000E+00 0.  1.
         23    2    1    2    0    0 -0.21716533165E+02  0.48963136334E+02 -0.13577807156E+03  0.17187854451E+03  0.90760965258E+02 0.  0.
         23    2    1    2    0    0  0.42554232331E+02 -0.13149715754E+02 -0.10045132552E+03  0.14177587572E+03  0.89588796314E+02 0.  0.
        -11    1    4    4    0    0  0.35751559598E+02  0.34945304206E+02 -0.63084299886E+02  0.80492093971E+02  0.00000000000E+00 0.  1.
         11    1    4    4    0    0  0.68026727331E+01 -0.48095019960E+02 -0.37367025631E+02  0.61283781751E+02  0.00000000000E+00 0. -1.
        -13    1    3    3    0    0 -0.20447154485E+02  0.18841146049E+02 -0.13881969908E+03  0.14157677692E+03  0.00000000000E+00 0.  1.
         13    1    3    3    0    0 -0.12693786798E+01  0.30121990285E+02  0.30416275232E+01  0.30301767588E+02  0.00000000000E+00 0. -1.
         -1    1    1    2    0  502 -0.20837699166E+02 -0.35813420580E+02  0.62573604388E+02  0.75048429472E+02  0.00000000000E+00 0.  1.
<scales pt_clust_5="13000.00000" pt_clust_6="13000.00000" pt_clust_7="13000.00000" pt_clust_8="13000.00000" pt_clust_9="41.43442"></scales>
<clustering>
<clus scale="   41.434">  1  9  2 -1</clus>
<clus scale="   89.589">  5  6 -1 -1</clus>
<clus scale="   90.761">  7  8 -1 -1</clus>
<clus scale="  100.275">  1  5  2 -1</clus>
<clus scale="   41.434">  1  5  2 -1</clus>
</clustering>
</event>
<event>
 9    1  0.1636528E-005  0.1045974E+03  0.7546771E-02  0.1270973E+00
          2   -1    0    0  502    0 -0.00000000000E+00  0.00000000000E+00  0.28303826605E+03  0.28303826605E+03  0.00000000000E+00 0.  1.
         21   -1    0    0  501  502  0.00000000000E+00 -0.00000000000E+00 -0.21022859868E+03  0.21022859868E+03  0.00000000000E+00 0.  1.
         23    2    1    2    0    0 -0.11910766132E+02  0.52632999767E+02  0.25229453372E+03  0.27354728917E+03  0.90903732895E+02 0.  0.
         23    2    1    2    0    0  0.14676798582E+01 -0.24515504599E+02 -0.11462176028E+03  0.14825717905E+03  0.90768271768E+02 0.  0.
        -11    1    3    3    0    0  0.11237918829E+02 -0.20342706901E+02  0.10503434675E+03  0.10757476721E+03  0.00000000000E+00 0. -1.
         11    1    3    3    0    0 -0.23148684961E+02  0.72975706668E+02  0.14726018697E+03  0.16597252196E+03  0.00000000000E+00 0.  1.
        -11    1    4    4    0    0 -0.15156157680E+02  0.27061204025E+02 -0.74901178269E+02  0.81069133368E+02  0.00000000000E+00 0.  1.
         11    1    4    4    0    0  0.16623837539E+02 -0.51576708624E+02 -0.39720582008E+02  0.67188045678E+02  0.00000000000E+00 0. -1.
          2    1    1    2  501    0  0.10443086274E+02 -0.28117495168E+02 -0.64863106074E+02  0.71462396510E+02  0.00000000000E+00 0.  1.
<scales pt_clust_5="13000.00000" pt_clust_6="13000.00000" pt_clust_7="13000.00000" pt_clust_8="13000.00000" pt_clust_9="29.99419"></scales>
<clustering>
<clus scale="   29.994">  2  9  1 -1</clus>
<clus scale="   90.768">  7  8 -1 -1</clus>
<clus scale="   90.904">  5  6 -1 -1</clus>
<clus scale="  104.480">  2  7  1 -1</clus>
<clus scale="   29.994">  2  5  1 -1</clus>
</clustering>
</event>
<event>
 9    1  0.1636528E-005  0.1711388E+03  0.7546771E-02  0.1197250E+00
          1   -1    0    0  502    0 -0.00000000000E+00  0.00000000000E+00  0.39365392670E+03  0.39365392670E+03  0.00000000000E+00 0. -1.
         21   -1    0    0  501  502  0.00000000000E+00 -0.00000000000E+00 -0.16334542358E+03  0.16334542358E+03  0.00000000000E+00 0. -1.
         23    2    1    2    0    0 -0.21295663297E+02 -0.54461618352E+02  0.18825631957E+03  0.21720375294E+03  0.91200083798E+02 0.  0.
         23    2    1    2    0    0 -0.47609994578E+02  0.16793628745E+03  0.59056758823E+02  0.20595372872E+03  0.91977874433E+02 0.  0.
        -11    1    4    4    0    0 -0.26817536977E+02  0.17231822656E+03  0.43841574795E+02  0.17981889549E+03  0.00000000000E+00 0. -1.
         11    1    4    4    0    0 -0.20792457600E+02 -0.43819391034E+01  0.15215184028E+02  0.26134833238E+02  0.00000000000E+00 0.  1.
        -11    1    3    3    0    0 -0.62365576453E+01  0.22766761008E+02  0.18133903563E+02  0.29766735066E+02  0.00000000000E+00 0.  1.
         11    1    3    3    0    0 -0.15059105651E+02 -0.77228379360E+02  0.17012241601E+03  0.18743701787E+03  0.00000000000E+00 0. -1.
          1    1    1    2  501    0  0.68905657874E+02 -0.11347466910E+03 -0.17004575268E+02  0.13384186862E+03  0.00000000000E+00 0. -1.
<scales pt_clust_5="13000.00000" pt_clust_6="13000.00000" pt_clust_7="13000.00000" pt_clust_8="13000.00000" pt_clust_9="144.32105"></scales>
<clustering>
<clus scale="   91.200">  7  8 -1 -1</clus>
<clus scale="   91.978">  5  6 -1 -1</clus>
<clus scale="  108.338">  1  7  2 -1</clus>
<clus scale="  144.321">  2  9  1 -1</clus>
<clus scale="  144.321">  2  5  1 -1</clus>
</clustering>
</event>
<event>
 9    1  0.1636528E-005  0.1153996E+03  0.7546771E-02  0.1252457E+00
          2   -1    0    0  502    0 -0.00000000000E+00  0.00000000000E+00  0.42073788625E+03  0.42073788625E+03  0.00000000000E+00 0. -1.
         21   -1    0    0  501  502  0.00000000000E+00 -0.00000000000E+00 -0.50755909566E+02  0.50755909566E+02  0.00000000000E+00 0.  1.
         23    2    1    2    0    0  0.83697271335E+02 -0.22821554458E+02  0.17717623848E+03  0.21792489166E+03  0.92594720940E+02 0.  0.
         23    2    1    2    0    0 -0.33278511109E+02  0.46487103515E+02  0.98251001201E+02  0.14382963186E+03  0.88120336293E+02 0.  0.
        -11    1    3    3    0    0  0.54043496163E+02  0.29348216409E+02  0.58198200606E+02  0.84670229937E+02  0.00000000000E+00 0. -1.
         11    1    3    3    0    0  0.29653775172E+02 -0.52169770866E+02  0.11897803788E+03  0.13325466172E+03  0.00000000000E+00 0.  1.
        -13    1    4    4    0    0 -0.57395006963E+02  0.42829184212E+02  0.95375123520E+02  0.11926835302E+03  0.00000000000E+00 0. -1.
         13    1    4    4    0    0  0.24116495854E+02  0.36579193033E+01  0.28758776813E+01  0.24561278842E+02  0.00000000000E+00 0.  1.
          2    1    1    2  501    0 -0.50418760226E+02 -0.23665549057E+02  0.94554736996E+02  0.10973927229E+03  0.00000000000E+00 0. -1.
<scales pt_clust_5="13000.00000" pt_clust_6="13000.00000" pt_clust_7="13000.00000" pt_clust_8="13000.00000" pt_clust_9="55.69661"></scales>
<clustering>
<clus scale="   55.697">  2  9  1 -1</clus>
<clus scale="   88.120">  7  8 -1 -1</clus>
<clus scale="   92.595">  5  6 -1 -1</clus>
<clus scale="  111.841">  2  7  1 -1</clus>
<clus scale="   55.697">  2  5  1 -1</clus>
</clustering>
</event>
<event>
 9    1  0.1636528E-005  0.1265335E+03  0.7546771E-02  0.1245457E+00
          3   -1    0    0  502    0 -0.00000000000E+00  0.00000000000E+00  0.63325998046E+03  0.63325998046E+03  0.00000000000E+00 0. -1.
         21   -1    0    0  501  502  0.00000000000E+00 -0.00000000000E+00 -0.38752183694E+02  0.38752183694E+02  0.00000000000E+00 0. -1.
         23    2    1    2    0    0  0.26817510886E+02 -0.62859501446E+01  0.31043363900E+03  0.32444062999E+03  0.90188614072E+02 0.  0.
         23    2    1    2    0    0 -0.55803838207E+02  0.16129486915E+02  0.28701903200E+03  0.31681808440E+03  0.12091131116E+03 0.  0.
        -11    1    4    4    0    0 -0.86405656576E+02  0.50714151813E+01  0.26154232669E+03  0.27549236903E+03  0.00000000000E+00 0. -1.
         11    1    4    4    0    0  0.30601818369E+02  0.11058071733E+02  0.25476705310E+02  0.41325715377E+02  0.00000000000E+00 0.  1.
        -11    1    3    3    0    0 -0.16121563742E+01  0.39796491125E+02  0.11842321417E+03  0.12494165601E+03  0.00000000000E+00 0. -1.
         11    1    3    3    0    0  0.28429667260E+02 -0.46082441270E+02  0.19201042483E+03  0.19949897398E+03  0.00000000000E+00 0.  1.
          3    1    1    2  501    0  0.28986327321E+02 -0.98435367700E+01 -0.29448742357E+01  0.30753449757E+02  0.00000000000E+00 0. -1.
<scales pt_clust_5="13000.00000" pt_clust_6="13000.00000" pt_clust_7="13000.00000" pt_clust_8="13000.00000" pt_clust_9="30.61213"></scales>
<clustering>
<clus scale="   30.612">  2  9  1 -1</clus>
<clus scale="   90.189">  7  8 -1 -1</clus>
<clus scale="   97.597">  1  7  2 -1</clus>
<clus scale="  120.911">  5  6 -1 -1</clus>
<clus scale="   30.612">  2  5  1 -1</clus>
</clustering>
</event>
<event>
 9    1  0.1636528E-005  0.2560645E+03  0.7546771E-02  0.1109542E+00
         -1   -1    0    0    0  501 -0.00000000000E+00  0.00000000000E+00  0.19205454674E+03  0.19205454674E+03  0.00000000000E+00 0.  1.
         21   -1    0    0  501  502  0.00000000000E+00 -0.00000000000E+00 -0.91054728709E+03  0.91054728709E+03  0.00000000000E+00 0. -1.
         23    2    1    2    0    0  0.22765532979E+03  0.52870659048E+02  0.41236424629E+02  0.25416683922E+03  0.90983974796E+02 0.  0.
         23    2    1    2    0    0 -0.27959993164E+03 -0.28387414758E+02 -0.72107294610E+03  0.77921090798E+03  0.90782588829E+02 0.  0.
        -13    1    3    3    0    0  0.15539596191E+03  0.49791017011E+01 -0.57127346347E+01  0.15558062787E+03  0.00000000000E+00 0.  1.
         13    1    3    3    0    0  0.72259367884E+02  0.47891557347E+02  0.46949159264E+02  0.98586211347E+02  0.00000000000E+00 0. -1.
        -13    1    4    4    0    0 -0.27210689750E+03 -0.77306063204E+01 -0.68304709575E+03  0.73529263627E+03  0.00000000000E+00 0. -1.
         13    1    4    4    0    0 -0.74930341366E+01 -0.20656808437E+02 -0.38025850352E+02  0.43918271714E+02  0.00000000000E+00 0.  1.
         -1    1    1    2    0  502  0.51944601845E+02 -0.24483244290E+02 -0.38656218887E+02  0.69224086635E+02  0.00000000000E+00 0.  1.
<scales pt_clust_5="13000.00000" pt_clust_6="13000.00000" pt_clust_7="13000.00000" pt_clust_8="13000.00000" pt_clust_9="57.42538"></scales>
<clustering>
<clus scale="   57.425">  2  9  1 -1</clus>
<clus scale="   90.783">  7  8 -1 -1</clus>
<clus scale="   90.984">  5  6 -1 -1</clus>
<clus scale="  255.993">  2  7  1 -1</clus>
<clus scale="   57.425">  2  5  1 -1</clus>
</clustering>
</event>
<event>
 9    1  0.1636528E-005  0.9291611E+02  0.7546771E-02  0.1296269E+00
          3   -1    0    0  502    0 -0.00000000000E+00  0.00000000000E+00  0.43329317202E+03  0.43329317202E+03  0.00000000000E+00 0. -1.
         21   -1    0    0  501  502  0.00000000000E+00 -0.00000000000E+00 -0.47070232380E+02  0.47070232380E+02  0.00000000000E+00 0.  1.
         23    2    1    2    0    0  0.21556164457E+02 -0.24074243488E+02  0.33629297242E+03  0.34930673812E+03  0.88758078915E+02 0.  0.
         23    2    1    2    0    0 -0.14081209274E+02 -0.66682551739E+01  0.36508513009E+02  0.96689361875E+02  0.88165838600E+02 0.  0.
        -11    1    4    4    0    0 -0.11502892769E+02 -0.44589243926E+02  0.36371592078E+02  0.58680575374E+02  0.00000000000E+00 0.  1.
         11    1    4    4    0    0 -0.25783165051E+01  0.37920988752E+02  0.13692093025E+00  0.38008786501E+02  0.00000000000E+00 0. -1.
        -13    1    3    3    0    0  0.52093683045E+02 -0.29925895203E+02  0.26141635731E+03  0.26823091337E+03  0.00000000000E+00 0. -1.
         13    1    3    3    0    0 -0.30537518587E+02  0.58516517148E+01  0.74876615109E+02  0.81075824753E+02  0.00000000000E+00 0.  1.
          3    1    1    2  501    0 -0.74749551831E+01  0.30742498662E+02  0.13421454216E+02  0.34367304408E+02  0.00000000000E+00 0. -1.
<scales pt_clust_5="13000.00000" pt_clust_6="13000.00000" pt_clust_7="13000.00000" pt_clust_8="13000.00000" pt_clust_9="31.63821"></scales>
<clustering>
<clus scale="   31.638">  2  9  1 -1</clus>
<clus scale="   88.166">  5  6 -1 -1</clus>
<clus scale="   88.758">  7  8 -1 -1</clus>
<clus scale="   92.351">  2  5  1 -1</clus>
<clus scale="   31.638">  2  5  1 -1</clus>
</clustering>
</event>
<event>
 9    1  0.1636528E-005  0.9233226E+02  0.7546771E-02  0.1299355E+00
         21   -1    0    0  501  502  0.00000000000E+00  0.00000000000E+00  0.23196359750E+03  0.23196359750E+03  0.00000000000E+00 0. -1.
          1   -1    0    0  502    0 -0.00000000000E+00 -0.00000000000E+00 -0.11818298588E+03  0.11818298588E+03  0.00000000000E+00 0. -1.
         23    2    1    2    0    0  0.47856178678E+01  0.80645692980E+01 -0.23605876045E+02  0.93969682881E+02  0.90471677892E+02 0.  0.
         23    2    1    2    0    0  0.97396232594E+01 -0.28854892323E+02 -0.22049413700E+02  0.94736426001E+02  0.86956015863E+02 0.  0.
        -13    1    3    3    0    0  0.76114663626E+01 -0.38972184853E+02 -0.24829281693E+02  0.46832241477E+02  0.00000000000E+00 0. -1.
         13    1    3    3    0    0 -0.28258484948E+01  0.47036754151E+02  0.12234056477E+01  0.47137441404E+02  0.00000000000E+00 0.  1.
        -13    1    4    4    0    0 -0.36027888162E+02  0.24615688687E+01 -0.13853017552E+02  0.38677824938E+02  0.00000000000E+00 0.  1.
         13    1    4    4    0    0  0.45767511421E+02 -0.31316461192E+02 -0.81963961477E+01  0.56058601062E+02  0.00000000000E+00 0. -1.
          1    1    1    2  501    0 -0.14525241127E+02  0.20790323025E+02  0.15943590136E+03  0.16144047449E+03  0.00000000000E+00 0. -1.
<scales pt_clust_5="13000.00000" pt_clust_6="13000.00000" pt_clust_7="13000.00000" pt_clust_8="13000.00000" pt_clust_9="25.36179"></scales>
<clustering>
<clus scale="   25.362">  1  9  2 -1</clus>
<clus scale="   86.956">  7  8 -1 -1</clus>
<clus scale="   88.890">  1  7  2 -1</clus>
<clus scale="   90.472">  5  6 -1 -1</clus>
<clus scale="   25.362">  1  5  2 -1</clus>
</clustering>
</event>
<event>
 9    1  0.1636528E-005  0.1076838E+03  0.7546771E-02  0.1265543E+00
         21   -1    0    0  501  502  0.00000000000E+00  0.00000000000E+00  0.55415191523E+03  0.55415191523E+03  0.00000000000E+00 0. -1.
          1   -1    0    0  502    0 -0.00000000000E+00 -0.00000000000E+00 -0.39196103525E+02  0.39196103525E+02  0.00000000000E+00 0. -1.
         23    2    1    2    0    0 -0.23031898781E+02 -0.76427134303E+02  0.14077307422E+03  0.18658436981E+03  0.92871381019E+02 0.  0.
         23    2    1    2    0    0  0.21614064761E+02  0.11526331702E+02  0.22370134992E+03  0.24287718693E+03  0.91361971593E+02 0.  0.
        -11    1    4    4    0    0 -0.34334641177E+02 -0.78020068281E+01  0.90900898297E+02  0.97481855781E+02  0.00000000000E+00 0.  1.
         11    1    4    4    0    0  0.55948705938E+02  0.19328338530E+02  0.13280045163E+03  0.14539533115E+03  0.00000000000E+00 0. -1.
        -13    1    3    3    0    0 -0.35483902461E+02 -0.94155597770E+02  0.11952830951E+03  0.15624148201E+03  0.00000000000E+00 0. -1.
         13    1    3    3    0    0  0.12452003680E+02  0.17728463467E+02  0.21244764710E+02  0.30342887802E+02  0.00000000000E+00 0.  1.
          1    1    1    2  501    0  0.14178340205E+01  0.64900802601E+02  0.15048138756E+03  0.16388646202E+03  0.00000000000E+00 0. -1.
<scales pt_clust_5="13000.00000" pt_clust_6="13000.00000" pt_clust_7="13000.00000" pt_clust_8="13000.00000" pt_clust_9="64.91629"></scales>
<clustering>
<clus scale="   64.916">  1  9  2 -1</clus>
<clus scale="   91.362">  5  6 -1 -1</clus>
<clus scale="   92.871">  7  8 -1 -1</clus>
<clus scale="  106.385">  1  5  2 -1</clus>
<clus scale="   64.916">  1  5  2 -1</clus>
</clustering>
</event>
<event>
 9    1  0.1636528E-005  0.1316747E+03  0.7546771E-02  0.1225415E+00
          2   -1    0    0  502    0 -0.00000000000E+00  0.00000000000E+00  0.18460361312E+03  0.18460361312E+03  0.00000000000E+00 0. -1.
         21   -1    0    0  501  502  0.00000000000E+00 -0.00000000000E+00 -0.12301691456E+03  0.12301691456E+03  0.00000000000E+00 0.  1.
         23    2    1    2    0    0 -0.50691404364E+02  0.92961520119E+02  0.77147192307E+02  0.15892795418E+03  0.89971899162E+02 0.  0.
         23    2    1    2    0    0  0.40485713572E+02 -0.70999504538E+02 -0.74641086597E+00  0.12030343289E+03  0.88274210209E+02 0.  0.
        -11    1    3    3    0    0 -0.78047124564E+01  0.36645019695E+02 -0.16995500057E+02  0.41141439293E+02  0.00000000000E+00 0.  1.
         11    1    3    3    0    0 -0.42886691907E+02  0.56316500425E+02  0.94142692364E+02  0.11778651488E+03  0.00000000000E+00 0. -1.
        -13    1    4    4    0    0 -0.87154877776E+01 -0.21814950072E+02 -0.35474813137E+02  0.42547786558E+02  0.00000000000E+00 0. -1.
         13    1    4    4    0    0  0.49201201349E+02 -0.49184554466E+02  0.34728402271E+02  0.77755646332E+02  0.00000000000E+00 0.  1.
          2    1    1    2  501    0  0.10205690792E+02 -0.21962015582E+02 -0.14814082877E+02  0.28389140608E+02  0.00000000000E+00 0. -1.
<scales pt_clust_5="13000.00000" pt_clust_6="13000.00000" pt_clust_7="13000.00000" pt_clust_8="13000.00000" pt_clust_9="24.21748"></scales>
<clustering>
<clus scale="   24.217">  2  9  1 -1</clus>
<clus scale="   88.274">  7  8 -1 -1</clus>
<clus scale="   89.972">  5  6 -1 -1</clus>
<clus scale="  130.521">  2  7  1 -1</clus>
<clus scale="   24.217">  2  5  1 -1</clus>
</clustering>
</event>
<event>
 9    1  0.1636528E-005  0.1092403E+03  0.7546771E-02  0.1263406E+00
         21   -1    0    0  501  502  0.00000000000E+00  0.00000000000E+00  0.14481750153E+03  0.14481750153E+03  0.00000000000E+00 0.  1.
          3   -1    0    0  502    0 -0.00000000000E+00 -0.00000000000E+00 -0.12511401604E+03  0.12511401604E+03  0.00000000000E+00 0. -1.
         23    2    1    2    0    0  0.29419273579E+02  0.41687032051E+02 -0.27705102991E+02  0.10985320180E+03  0.93256908136E+02 0.  0.
         23    2    1    2    0    0 -0.19956533193E+02 -0.64006467531E+02  0.60903259796E+01  0.11217320674E+03  0.89725387355E+02 0.  0.
        -11    1    3    3    0    0  0.13334155383E+02  0.70904535309E+02 -0.25140393095E+02  0.76402174002E+02  0.00000000000E+00 0. -1.
         11    1    3    3    0    0  0.16085118196E+02 -0.29217503258E+02 -0.25647098966E+01  0.33451027800E+02  0.00000000000E+00 0.  1.
        -13    1    4    4    0    0 -0.59264580045E+01 -0.84344895800E+02  0.15067183506E+02  0.85884832018E+02  0.00000000000E+00 0.  1.
         13    1    4    4    0    0 -0.14030075189E+02  0.20338428269E+02 -0.89768575264E+01  0.26288374718E+02  0.00000000000E+00 0. -1.
          3    1    1    2  501    0 -0.94627403856E+01  0.22319435480E+02  0.41318262500E+02  0.47905109036E+02  0.00000000000E+00 0. -1.
<scales pt_clust_5="13000.00000" pt_clust_6="13000.00000" pt_clust_7="13000.00000" pt_clust_8="13000.00000" pt_clust_9="24.24254"></scales>
<clustering>
<clus scale="   24.243">  1  9  2 -1</clus>
<clus scale="   89.725">  7  8 -1 -1</clus>
<clus scale="   93.257">  5  6 -1 -1</clus>
<clus scale="  106.241">  1  7  2 -1</clus>
<clus scale="   24.243">  1  5  2 -1</clus>
</clustering>
</event>
<event>
 9    1  0.1636528E-005  0.1036819E+03  0.7546771E-02  0.1273050E+00
         21   -1    0    0  501  502  0.00000000000E+00  0.00000000000E+00  0.27264490173E+03  0.27264490173E+03  0.00000000000E+00 0. -1.
          1   -1    0    0  502    0 -0.00000000000E+00 -0.00000000000E+00 -0.12762311230E+03  0.12762311230E+03  0.00000000000E+00 0. -1.
         23    2    1    2    0    0 -0.36835942864E+02 -0.23646892777E+02 -0.40664706827E+02  0.10867970051E+03  0.90783240182E+02 0.  0.
         23    2    1    2    0    0  0.20846470028E+02  0.69296839496E+02  0.17841337040E+02  0.11691267598E+03  0.90075708272E+02 0.  0.
        -13    1    4    4    0    0 -0.32517047322E+02  0.35683635130E+02 -0.76665415192E+01  0.48882062574E+02  0.00000000000E+00 0. -1.
         13    1    4    4    0    0  0.53363517350E+02  0.33613204366E+02  0.25507878559E+02  0.68030613406E+02  0.00000000000E+00 0.  1.
        -13    1    3    3    0    0  0.18042090786E+02  0.22571710673E+02 -0.14300165729E+02  0.32241183330E+02  0.00000000000E+00 0.  1.
         13    1    3    3    0    0 -0.54878033649E+02 -0.46218603450E+02 -0.26364541098E+02  0.76438517185E+02  0.00000000000E+00 0. -1.
          1    1    1    2  501    0  0.15989472836E+02 -0.45649946720E+02  0.16784515922E+03  0.17467563754E+03  0.00000000000E+00 0. -1.
<scales pt_clust_5="13000.00000" pt_clust_6="13000.00000" pt_clust_7="13000.00000" pt_clust_8="13000.00000" pt_clust_9="48.36921"></scales>
<clustering>
<clus scale="   48.369">  1  9  2 -1</clus>
<clus scale="   90.076">  5  6 -1 -1</clus>
<clus scale="   90.783">  7  8 -1 -1</clus>
<clus scale="  103.063">  1  5  2 -1</clus>
<clus scale="   48.369">  1  5  2 -1</clus>
</clustering>
</event>
<event>
 9    1  0.1719900E-005  0.9215208E+02  0.7546771E-02  0.1299027E+00
         21   -1    0    0  501  502  0.00000000000E+00  0.00000000000E+00  0.92119772957E+02  0.92119772957E+02  0.00000000000E+00 0. -1.
          1   -1    0    0  502    0 -0.00000000000E+00 -0.00000000000E+00 -0.34293581154E+03  0.34293581154E+03  0.00000000000E+00 0. -1.
         23    2    1    2    0    0 -0.60889608916E+01  0.10528997101E+01 -0.20684230741E+03  0.22644133288E+03  0.91944293240E+02 0.  0.
         23    2    1    2    0    0 -0.28975122525E+02  0.47246308140E+01 -0.10299060833E+03  0.13972403756E+03  0.89743308418E+02 0.  0.
        -11    1    3    3    0    0  0.25000243017E+02 -0.20868683948E+02 -0.26085177885E+02  0.41724700429E+02  0.00000000000E+00 0.  1.
         11    1    3    3    0    0 -0.31089203909E+02  0.21921583658E+02 -0.18075712953E+03  0.18471663245E+03  0.00000000000E+00 0. -1.
        -13    1    4    4    0    0 -0.10901836928E+02 -0.36527924905E+02 -0.15169023681E+02  0.41027291230E+02  0.00000000000E+00 0. -1.
         13    1    4    4    0    0 -0.18073285597E+02  0.41252555719E+02 -0.87821584644E+02  0.98696746325E+02  0.00000000000E+00 0.  1.
          1    1    1    2  501    0  0.35064083416E+02 -0.57775305241E+01  0.59016877152E+02  0.68890214062E+02  0.00000000000E+00 0. -1.
<scales pt_clust_5="13000.00000" pt_clust_6="13000.00000" pt_clust_7="13000.00000" pt_clust_8="13000.00000" pt_clust_9="35.53688"></scales>
<clustering>
<clus scale="   35.537">  1  9  2 -1</clus>
<clus scale="   89.743">  7  8 -1 -1</clus>
<clus scale="   89.956">  1  7  2 -1</clus>
<clus scale="   91.944">  5  6 -1 -1</clus>
<clus scale="   35.537">  1  5  2 -1</clus>
</clustering>
</event>
<event>
 9    1  0.1636528E-005  0.9679099E+02  0.7546771E-02  0.1288774E+00
         21   -1    0    0  501  502  0.00000000000E+00  0.00000000000E+00  0.35806964382E+02  0.35806964382E+02  0.00000000000E+00 0. -1.
          2   -1    0    0  502    0 -0.00000000000E+00 -0.00000000000E+00 -0.45047137449E+03  0.45047137449E+03  0.00000000000E+00 0. -1.
         23    2    1    2    0    0  0.21942009415E+01  0.31596346914E+02 -0.28672836873E+03  0.30328102713E+03  0.93611325845E+02 0.  0.
         23    2    1    2    0    0  0.47930616358E+01 -0.12586811401E+02 -0.13354513067E+03  0.16198193257E+03  0.90677689059E+02 0.  0.
        -11    1    3    3    0    0 -0.39766909368E+02 -0.14579652414E+01 -0.74822568335E+02  0.84746383260E+02  0.00000000000E+00 0.  1.
         11    1    3    3    0    0  0.41961110310E+02  0.33054312156E+02 -0.21190580040E+03  0.21853464387E+03  0.00000000000E+00 0. -1.
        -13    1    4    4    0    0  0.46873024735E+01 -0.35164514434E+02 -0.10663833319E+02  0.37043639412E+02  0.00000000000E+00 0.  1.
         13    1    4    4    0    0  0.10575916232E+00  0.22577703032E+02 -0.12288129735E+03  0.12493829316E+03  0.00000000000E+00 0. -1.
          2    1    1    2  501    0 -0.69872625773E+01 -0.19009535513E+02  0.56090892954E+01  0.21015379165E+02  0.00000000000E+00 0. -1.
<scales pt_clust_5="13000.00000" pt_clust_6="13000.00000" pt_clust_7="13000.00000" pt_clust_8="13000.00000" pt_clust_9="20.25301"></scales>
<clustering>
<clus scale="   20.253">  1  9  2 -1</clus>
<clus scale="   90.678">  7  8 -1 -1</clus>
<clus scale="   93.611">  5  6 -1 -1</clus>
<clus scale="   93.957">  1  7  2 -1</clus>
<clus scale="   20.253">  1  5  2 -1</clus>
</clustering>
</event>
<event>
 9    1  0.1636528E-005  0.1247497E+03  0.7546771E-02  0.1235496E+00
          2   -1    0    0  502    0 -0.00000000000E+00  0.00000000000E+00  0.35512750170E+03  0.35512750170E+03  0.00000000000E+00 0. -1.
         21   -1    0    0  501  502  0.00000000000E+00 -0.00000000000E+00 -0.69984960687E+02  0.69984960687E+02  0.00000000000E+00 0. -1.
         23    2    1    2    0    0 -0.30485911768E+02 -0.73434049034E+02  0.22507006333E+03  0.25572762111E+03  0.91750380998E+02 0.  0.
         23    2    1    2    0    0  0.43989444439E+02  0.90431109788E+02  0.46460620801E+02  0.14376203666E+03  0.91630110013E+02 0.  0.
        -11    1    4    4    0    0 -0.25531311582E+02  0.35047541370E+02  0.31576014280E+02  0.53639749300E+02  0.00000000000E+00 0.  1.
         11    1    4    4    0    0  0.69520756021E+02  0.55383568418E+02  0.14884606521E+02  0.90122287364E+02  0.00000000000E+00 0. -1.
        -11    1    3    3    0    0  0.27151816846E+02 -0.24654895986E+00  0.37511243244E+02  0.46307400209E+02  0.00000000000E+00 0.  1.
         11    1    3    3    0    0 -0.57637728614E+02 -0.73187500074E+02  0.18755882009E+03  0.20942022090E+03  0.00000000000E+00 0. -1.
          2    1    1    2  501    0 -0.13503532671E+02 -0.16997060754E+02  0.13611856882E+02  0.25622804621E+02  0.00000000000E+00 0. -1.
<scales pt_clust_5="13000.00000" pt_clust_6="13000.00000" pt_clust_7="13000.00000" pt_clust_8="13000.00000" pt_clust_9="21.70819"></scales>
<clustering>
<clus scale="   21.708">  2  9  1 -1</clus>
<clus scale="   91.630">  5  6 -1 -1</clus>
<clus scale="   91.750">  7  8 -1 -1</clus>
<clus scale="  124.661">  2  5  1 -1</clus>
<clus scale="   21.708">  2  5  1 -1</clus>
</clustering>
</event>
<event>
 9    1  0.1636528E-005  0.1939432E+03  0.7546771E-02  0.1168978E+00
         21   -1    0    0  501  502  0.00000000000E+00  0.00000000000E+00  0.54482074215E+03  0.54482074215E+03  0.00000000000E+00 0. -1.
          2   -1    0    0  502    0 -0.00000000000E+00 -0.00000000000E+00 -0.21528079312E+03  0.21528079312E+03  0.00000000000E+00 0. -1.
         23    2    1    2    0    0 -0.83660846402E+02  0.64844883106E+02 -0.47416768524E+01  0.14015671035E+03  0.91746519674E+02 0.  0.
         23    2    1    2    0    0 -0.41369936067E+02 -0.18380503408E+03 -0.34992288630E+02  0.21233295313E+03  0.91460705009E+02 0.  0.
        -13    1    3    3    0    0  0.29010667232E+01  0.49593765918E+02  0.10952077285E+02  0.50871463542E+02  0.00000000000E+00 0.  1.
         13    1    3    3    0    0 -0.86561913125E+02  0.15251117188E+02 -0.15693754138E+02  0.89285246812E+02  0.00000000000E+00 0. -1.
        -13    1    4    4    0    0 -0.62045390110E+02 -0.17513554606E+03 -0.38193227495E+02  0.18968608951E+03  0.00000000000E+00 0. -1.
         13    1    4    4    0    0  0.20675454043E+02 -0.86694880179E+01  0.32009388648E+01  0.22646863623E+02  0.00000000000E+00 0.  1.
          2    1    1    2  501    0  0.12503078247E+03  0.11896015097E+03  0.36927391451E+03  0.40761187178E+03  0.00000000000E+00 0. -1.
<scales pt_clust_5="13000.00000" pt_clust_6="13000.00000" pt_clust_7="13000.00000" pt_clust_8="13000.00000" pt_clust_9="171.02307"></scales>
<clustering>
<clus scale="   91.461">  7  8 -1 -1</clus>
<clus scale="   91.747">  5  6 -1 -1</clus>
<clus scale="  140.076">  2  5  1 -1</clus>
<clus scale="  171.023">  1  9  2 -1</clus>
<clus scale="  171.023">  1  5  2 -1</clus>
</clustering>
</event>
<event>
 9    1  0.1636528E-005  0.1252278E+03  0.7546771E-02  0.1235626E+00
         -3   -1    0    0    0  501 -0.00000000000E+00  0.00000000000E+00  0.36637933044E+03  0.36637933044E+03  0.00000000000E+00 0.  1.
         21   -1    0    0  501  502  0.00000000000E+00 -0.00000000000E+00 -0.16239439048E+03  0.16239439048E+03  0.00000000000E+00 0.  1.
         23    2    1    2    0    0  0.39461629767E+02  0.81478501945E+02  0.30460308622E+03  0.33165659844E+03  0.94958373271E+02 0.  0.
         23    2    1    2    0    0 -0.37054537962E+02 -0.20998589171E+02 -0.33342625477E+02  0.10662066046E+03  0.91881744832E+02 0.  0.
        -11    1    3    3    0    0  0.45682974104E+01  0.90261321210E+02  0.17250670843E+03  0.19474737456E+03  0.00000000000E+00 0.  1.
         11    1    3    3    0    0  0.34893332357E+02 -0.87828192654E+01  0.13209637779E+03  0.13690922388E+03  0.00000000000E+00 0. -1.
        -13    1    4    4    0    0  0.29828512654E+02 -0.93935422849E+00 -0.18874932129E+02  0.35311267556E+02  0.00000000000E+00 0.  1.
         13    1    4    4    0    0 -0.66883050616E+02 -0.20059234943E+02 -0.14467693348E+02  0.71309392908E+02  0.00000000000E+00 0. -1.
         -3    1    1    2    0  502 -0.24070918051E+01 -0.60479912774E+02 -0.67275520781E+02  0.90496462010E+02  0.00000000000E+00 0.  1.
<scales pt_clust_5="13000.00000" pt_clust_6="13000.00000" pt_clust_7="13000.00000" pt_clust_8="13000.00000" pt_clust_9="60.52779"></scales>
<clustering>
<clus scale="   60.528">  2  9  1 -1</clus>
<clus scale="   91.882">  7  8 -1 -1</clus>
<clus scale="   94.958">  5  6 -1 -1</clus>
<clus scale="  122.911">  2  7  1 -1</clus>
<clus scale="   60.528">  2  5  1 -1</clus>
</clustering>
</event>
<event>
 9    1  0.1636528E-005  0.1024784E+03  0.7546771E-02  0.1276384E+00
          1   -1    0    0  502    0 -0.00000000000E+00  0.00000000000E+00  0.32251599540E+03  0.32251599540E+03  0.00000000000E+00 0. -1.
         21   -1    0    0  501  502  0.00000000000E+00 -0.00000000000E+00 -0.61981383998E+02  0.61981383998E+02  0.00000000000E+00 0. -1.
         23    2    1    2    0    0  0.36293142587E+02  0.37591042980E+01  0.15071773361E+03  0.18173155300E+03  0.94758635832E+02 0.  0.
         23    2    1    2    0    0 -0.34559735877E+02 -0.30472493928E+02  0.13236578988E+03  0.16776492183E+03  0.92203136802E+02 0.  0.
        -13    1    3    3    0    0  0.67990012958E+02  0.59493338553E+01  0.11663637226E+03  0.13513726269E+03  0.00000000000E+00 0. -1.
         13    1    3    3    0    0 -0.31696870370E+02 -0.21902295573E+01  0.34081361358E+02  0.46594290303E+02  0.00000000000E+00 0.  1.
        -13    1    4    4    0    0 -0.18409555075E+02  0.26236070650E+02  0.12916923391E+02  0.34555607809E+02  0.00000000000E+00 0.  1.
         13    1    4    4    0    0 -0.16150180802E+02 -0.56708564577E+02  0.11944886649E+03  0.13320931402E+03  0.00000000000E+00 0. -1.
          1    1    1    2  501    0 -0.17334067103E+01  0.26713389630E+02 -0.22548912092E+02  0.35000904572E+02  0.00000000000E+00 0. -1.
<scales pt_clust_5="13000.00000" pt_clust_6="13000.00000" pt_clust_7="13000.00000" pt_clust_8="13000.00000" pt_clust_9="26.76957"></scales>
<clustering>
<clus scale="   26.770">  2  9  1 -1</clus>
<clus scale="   92.203">  7  8 -1 -1</clus>
<clus scale="   94.759">  5  6 -1 -1</clus>
<clus scale="  100.120">  2  7  1 -1</clus>
<clus scale="   26.770">  2  5  1 -1</clus>
</clustering>
</event>
<event>
 9    1  0.1636528E-005  0.9357551E+02  0.7546771E-02  0.1294738E+00
          2   -1    0    0  502    0 -0.00000000000E+00  0.00000000000E+00  0.16280476271E+03  0.16280476271E+03  0.00000000000E+00 0. -1.
         21   -1    0    0  501  502  0.00000000000E+00 -0.00000000000E+00 -0.19412708489E+03  0.19412708489E+03  0.00000000000E+00 0. -1.
         23    2    1    2    0    0 -0.31282069697E+02 -0.32128828796E+02  0.80543866576E+02  0.12965666397E+03  0.91174045339E+02 0.  0.
         23    2    1    2    0    0 -0.37108571342E+02 -0.16289231311E+02 -0.16995471139E+02  0.10069698098E+03  0.90601604928E+02 0.  0.
        -11    1    3    3    0    0 -0.57961388065E+02 -0.37948229531E+02  0.74412577533E+02  0.10167016438E+03  0.00000000000E+00 0. -1.
         11    1    3    3    0    0  0.26679318368E+02  0.58194007351E+01  0.61312890427E+01  0.27986499581E+02  0.00000000000E+00 0.  1.
        -11    1    4    4    0    0 -0.23795742070E+02  0.35505177690E+02  0.46719291548E+01  0.42996301067E+02  0.00000000000E+00 0.  1.
         11    1    4    4    0    0 -0.13312829272E+02 -0.51794409001E+02 -0.21667400294E+02  0.57700679913E+02  0.00000000000E+00 0. -1.
          2    1    1    2  501    0  0.68390641039E+02  0.48418060107E+02 -0.94870717612E+02  0.12657820265E+03  0.00000000000E+00 0. -1.
<scales pt_clust_5="13000.00000" pt_clust_6="13000.00000" pt_clust_7="13000.00000" pt_clust_8="13000.00000" pt_clust_9="83.79492"></scales>
<clustering>
<clus scale="   83.795">  2  9  1 -1</clus>
<clus scale="   90.602">  7  8 -1 -1</clus>
<clus scale="   91.174">  5  6 -1 -1</clus>
<clus scale="   93.018">  2  7  1 -1</clus>
<clus scale="   83.795">  2  5  1 -1</clus>
</clustering>
</event>
<event>
 9    1  0.1636528E-005  0.1523779E+03  0.7546771E-02  0.1197666E+00
         21   -1    0    0  501  502  0.00000000000E+00  0.00000000000E+00  0.21030873263E+03  0.21030873263E+03  0.00000000000E+00 0.  1.
          1   -1    0    0  502    0 -0.00000000000E+00 -0.00000000000E+00 -0.39414463706E+03  0.39414463706E+03  0.00000000000E+00 0. -1.
         23    2    1    2    0    0  0.10001040316E+03 -0.48891115468E+02 -0.25059746221E+03  0.29039368231E+03  0.95587555395E+02 0.  0.
         23    2    1    2    0    0 -0.13545423178E+03  0.42752453083E+02 -0.60858401544E+02  0.18146707002E+03  0.95136382698E+02 0.  0.
        -11    1    4    4    0    0 -0.91849996143E+02  0.20692524626E+02 -0.85105338287E+02  0.12691540872E+03  0.00000000000E+00 0. -1.
         11    1    4    4    0    0 -0.43604235636E+02  0.22059928457E+02  0.24246936744E+02  0.54551661298E+02  0.00000000000E+00 0.  1.
        -13    1    3    3    0    0  0.34417013360E+02 -0.58236376466E+02 -0.18575035727E+03  0.19768460126E+03  0.00000000000E+00 0.  1.
         13    1    3    3    0    0  0.65593389796E+02  0.93452609985E+01 -0.64847104943E+02  0.92709081041E+02  0.00000000000E+00 0. -1.
          1    1    1    2  501    0  0.35443828622E+02  0.61386623850E+01  0.12761995932E+03  0.13259261737E+03  0.00000000000E+00 0. -1.
<scales pt_clust_5="13000.00000" pt_clust_6="13000.00000" pt_clust_7="13000.00000" pt_clust_8="13000.00000" pt_clust_9="35.97149"></scales>
<clustering>
<clus scale="   35.971">  1  9  2 -1</clus>
<clus scale="   95.136">  5  6 -1 -1</clus>
<clus scale="   95.588">  7  8 -1 -1</clus>
<clus scale="  152.095">  1  5  2 -1</clus>
<clus scale="   35.971">  1  5  2 -1</clus>
</clustering>
</event>
<event>
 9    1  0.1636528E-005  0.1305738E+03  0.7546771E-02  0.1228085E+00
         21   -1    0    0  501  502  0.00000000000E+00  0.00000000000E+00  0.40386709457E+02  0.40386709457E+02  0.00000000000E+00 0. -1.
         -2   -1    0    0    0  501 -0.00000000000E+00 -0.00000000000E+00 -0.57658357600E+03  0.57658357600E+03  0.00000000000E+00 0.  1.
         23    2    1    2    0    0  0.65299302872E+02  0.51369207316E+02 -0.24874552530E+03  0.27793506848E+03  0.92036794368E+02 0.  0.
         23    2    1    2    0    0 -0.58431578771E+02 -0.89605005073E+02 -0.24867389111E+03  0.28414594204E+03  0.86353378199E+02 0.  0.
        -11    1    3    3    0    0  0.60645494596E+02  0.62367436810E+01 -0.66887358026E+02  0.90502440024E+02  0.00000000000E+00 0.  1.
         11    1    3    3    0    0  0.46538082763E+01  0.45132463635E+02 -0.18185816728E+03  0.18743262846E+03  0.00000000000E+00 0. -1.
        -13    1    4    4    0    0 -0.29605029207E+02 -0.46315841668E+02 -0.37207470348E+02  0.66377788404E+02  0.00000000000E+00 0. -1.
         13    1    4    4    0    0 -0.28826549565E+02 -0.43289163405E+02 -0.21146642076E+03  0.21776815364E+03  0.00000000000E+00 0.  1.
         -2    1    1    2    0  502 -0.68677241011E+01  0.38235797757E+02 -0.38777450135E+02  0.54889274940E+02  0.00000000000E+00 0.  1.
<scales pt_clust_5="13000.00000" pt_clust_6="13000.00000" pt_clust_7="13000.00000" pt_clust_8="13000.00000" pt_clust_9="38.84768"></scales>
<clustering>
<clus scale="   38.848">  1  9  2 -1</clus>
<clus scale="   86.353">  7  8 -1 -1</clus>
<clus scale="   92.037">  5  6 -1 -1</clus>
<clus scale="  126.632">  1  7  2 -1</clus>
<clus scale="   38.848">  1  5  2 -1</clus>
</clustering>
</event>
<event>
 9    1  0.1636528E-005  0.1179403E+03  0.7546771E-02  0.1255424E+00
         21   -1    0    0  501  502  0.00000000000E+00  0.00000000000E+00  0.74894356724E+02  0.74894356724E+02  0.00000000000E+00 0. -1.
         -3   -1    0    0    0  501 -0.00000000000E+00 -0.00000000000E+00 -0.27514034393E+03  0.27514034393E+03  0.00000000000E+00 0.  1.
         23    2    1    2    0    0 -0.24494991122E+02 -0.16437634264E+02 -0.15950705633E+03  0.18693977165E+03  0.92918118772E+02 0.  0.
         23    2    1    2    0    0  0.23960094640E+02  0.42383726781E+02 -0.53426824231E+02  0.13420776111E+03  0.11307887142E+03 0.  0.
        -11    1    3    3    0    0  0.46977551033E+01 -0.51334300731E+02 -0.93558745477E+02  0.10682002710E+03  0.00000000000E+00 0.  1.
         11    1    3    3    0    0 -0.29192746225E+02  0.34896666467E+02 -0.65948310852E+02  0.80119744551E+02  0.00000000000E+00 0. -1.
        -13    1    4    4    0    0  0.58590571728E+02  0.55341241445E+02 -0.17131371449E+02  0.82395339600E+02  0.00000000000E+00 0.  1.
         13    1    4    4    0    0 -0.34630477088E+02 -0.12957514664E+02 -0.36295452782E+02  0.51812421505E+02  0.00000000000E+00 0. -1.
         -3    1    1    2    0  502  0.53489648186E+00 -0.25946092517E+02  0.12687893357E+02  0.28887167895E+02  0.00000000000E+00 0.  1.
<scales pt_clust_5="13000.00000" pt_clust_6="13000.00000" pt_clust_7="13000.00000" pt_clust_8="13000.00000" pt_clust_9="25.95161"></scales>
<clustering>
<clus scale="   25.952">  1  9  2 -1</clus>
<clus scale="   92.918">  5  6 -1 -1</clus>
<clus scale="   98.777">  2  5  1 -1</clus>
<clus scale="  113.079">  7  8 -1 -1</clus>
<clus scale="   25.952">  1  5  2 -1</clus>
</clustering>
</event>
<event>
 9    1  0.1636528E-005  0.1065629E+03  0.7546771E-02  0.1267277E+00
          1   -1    0    0  502    0 -0.00000000000E+00  0.00000000000E+00  0.43148944061E+03  0.43148944061E+03  0.00000000000E+00 0. -1.
         21   -1    0    0  501  502  0.00000000000E+00 -0.00000000000E+00 -0.74396924979E+02  0.74396924979E+02  0.00000000000E+00 0.  1.
         23    2    1    2    0    0 -0.44502384012E+02  0.23473228815E+02  0.24621814671E+03  0.26719551362E+03  0.90766800512E+02 0.  0.
         23    2    1    2    0    0  0.67962840350E+02 -0.77816302559E+01  0.15154174190E+03  0.18918878633E+03  0.90266250058E+02 0.  0.
        -11    1    3    3    0    0 -0.49443118286E+02  0.45094113229E+02  0.23048634008E+03  0.24000427904E+03  0.00000000000E+00 0. -1.
         11    1    3    3    0    0  0.49407342745E+01 -0.21620884415E+02  0.15731806626E+02  0.27191234576E+02  0.00000000000E+00 0.  1.
        -13    1    4    4    0    0  0.29682594193E+02 -0.48798693032E+02  0.78843794745E+02  0.97358681223E+02  0.00000000000E+00 0.  1.
         13    1    4    4    0    0  0.38280246157E+02  0.41017062776E+02  0.72697947151E+02  0.91830105110E+02  0.00000000000E+00 0. -1.
          1    1    1    2  501    0 -0.23460456338E+02 -0.15691598559E+02 -0.40667372979E+02  0.49502065633E+02  0.00000000000E+00 0. -1.
<scales pt_clust_5="13000.00000" pt_clust_6="13000.00000" pt_clust_7="13000.00000" pt_clust_8="13000.00000" pt_clust_9="28.22444"></scales>
<clustering>
<clus scale="   28.224">  2  9  1 -1</clus>
<clus scale="   90.266">  7  8 -1 -1</clus>
<clus scale="   90.767">  5  6 -1 -1</clus>
<clus scale="  106.137">  2  7  1 -1</clus>
<clus scale="   28.224">  2  5  1 -1</clus>
</clustering>
</event>
<event>
 9    1  0.1977409E-005  0.1080721E+03  0.7546771E-02  0.1265803E+00
          2   -1    0    0  502    0 -0.00000000000E+00  0.00000000000E+00  0.80393616730E+03  0.80393616730E+03  0.00000000000E+00 0. -1.
         21   -1    0    0  501  502  0.00000000000E+00 -0.00000000000E+00 -0.19074463845E+03  0.19074463845E+03  0.00000000000E+00 0. -1.
         23    2    1    2    0    0  0.43803190338E+02  0.35030934069E+02  0.41124465628E+03  0.42469966686E+03  0.90009743280E+02 0.  0.
         23    2    1    2    0    0  0.11370234213E+02 -0.68966394858E+02  0.37095455786E+03  0.38898577995E+03  0.93898919902E+02 0.  0.
        -11    1    4    4    0    0 -0.27380713089E+02  0.88678132738E+01  0.11973454983E+03  0.12314505262E+03  0.00000000000E+00 0.  1.
         11    1    4    4    0    0  0.38750947301E+02 -0.77834208132E+02  0.25122000803E+03  0.26584072733E+03  0.00000000000E+00 0. -1.
        -13    1    3    3    0    0 -0.19277384935E+02  0.14677690732E+02  0.34436283047E+02  0.42105935036E+02  0.00000000000E+00 0.  1.
         13    1    3    3    0    0  0.63080575273E+02  0.20353243337E+02  0.37680837323E+03  0.38259373182E+03  0.00000000000E+00 0. -1.
          2    1    1    2  501    0 -0.55173424551E+02  0.33935460789E+02 -0.16900768528E+03  0.18099535895E+03  0.00000000000E+00 0. -1.
<scales pt_clust_5="13000.00000" pt_clust_6="13000.00000" pt_clust_7="13000.00000" pt_clust_8="13000.00000" pt_clust_9="64.77440"></scales>
<clustering>
<clus scale="   64.774">  2  9  1 -1</clus>
<clus scale="   90.010">  7  8 -1 -1</clus>
<clus scale="   93.899">  5  6 -1 -1</clus>
<clus scale="  104.711">  1  7  2 -1</clus>
<clus scale="   64.774">  2  5  1 -1</clus>
</clustering>
</event>
<event>
 9    1  0.1636528E-005  0.1522910E+03  0.7546771E-02  0.1201030E+00
         21   -1    0    0  501  502  0.00000000000E+00  0.00000000000E+00  0.33229132964E+02  0.33229132964E+02  0.00000000000E+00 0. -1.
         -3   -1    0    0    0  501 -0.00000000000E+00 -0.00000000000E+00 -0.18300752796E+04  0.18300752796E+04  0.00000000000E+00 0.  1.
         23    2    1    2    0    0  0.71670723660E+02  0.10955695306E+03 -0.65277732167E+03  0.67202031533E+03  0.91398325671E+02 0.  0.
         23    2    1    2    0    0  0.85762985660E+02 -0.12205648103E+03 -0.55322080987E+03  0.57969355776E+03  0.87967506313E+02 0.  0.
        -11    1    4    4    0    0  0.81327228963E+02 -0.39386304302E+02 -0.29395234809E+03  0.30752785579E+03  0.00000000000E+00 0. -1.
         11    1    4    4    0    0  0.44357566973E+01 -0.82670176730E+02 -0.25926846178E+03  0.27216570197E+03  0.00000000000E+00 0.  1.
        -13    1    3    3    0    0 -0.85726754083E+01  0.29773772525E+02 -0.50822821871E+02  0.59522495889E+02  0.00000000000E+00 0.  1.
         13    1    3    3    0    0  0.80243399068E+02  0.79783180534E+02 -0.60195449980E+03  0.61249781944E+03  0.00000000000E+00 0. -1.
         -3    1    1    2    0  502 -0.15743370932E+03  0.12499527973E+02 -0.59084801510E+03  0.61159053948E+03  0.00000000000E+00 0.  1.
<scales pt_clust_5="13000.00000" pt_clust_6="13000.00000" pt_clust_7="13000.00000" pt_clust_8="13000.00000" pt_clust_9="157.92921"></scales>
<clustering>
<clus scale="   87.968">  5  6 -1 -1</clus>
<clus scale="   91.398">  7  8 -1 -1</clus>
<clus scale="  157.929">  1  9  2 -1</clus>
<clus scale="  157.929">  1  5  2 -1</clus>
<clus scale="  152.291">  1  5  2 -1</clus>
</clustering>
</event>
<event>
 9    1  0.1636528E-005  0.1188201E+03  0.7546771E-02  0.1246478E+00
          2   -1    0    0  502    0 -0.00000000000E+00  0.00000000000E+00  0.43759745446E+03  0.43759745446E+03  0.00000000000E+00 0. -1.
         21   -1    0    0  501  502  0.00000000000E+00 -0.00000000000E+00 -0.86248388353E+02  0.86248388353E+02  0.00000000000E+00 0. -1.
         23    2    1    2    0    0 -0.44626065775E+02  0.49190510652E+02  0.23637063265E+03  0.26134938082E+03  0.89561324210E+02 0.  0.
         23    2    1    2    0    0  0.48095799383E+02 -0.69265630198E+02  0.16545240639E+03  0.20806603466E+03  0.93840516590E+02 0.  0.
        -11    1    3    3    0    0 -0.40585693277E+02  0.81002987207E+00  0.33148823654E+02  0.52408960654E+02  0.00000000000E+00 0.  1.
         11    1    3    3    0    0 -0.40403724980E+01  0.48380480780E+02  0.20322180899E+03  0.20894042017E+03  0.00000000000E+00 0. -1.
        -13    1    4    4    0    0  0.21319249756E+02 -0.89383315134E+02  0.13102071444E+03  0.16003223127E+03  0.00000000000E+00 0.  1.
         13    1    4    4    0    0  0.26776549627E+02  0.20117684936E+02  0.34431691954E+02  0.48033803388E+02  0.00000000000E+00 0. -1.
          2    1    1    2  501    0 -0.34697336077E+01  0.20075119546E+02 -0.50473972929E+02  0.54430427330E+02  0.00000000000E+00 0. -1.
<scales pt_clust_5="13000.00000" pt_clust_6="13000.00000" pt_clust_7="13000.00000" pt_clust_8="13000.00000" pt_clust_9="20.37276"></scales>
<clustering>
<clus scale="   20.373">  2  9  1 -1</clus>
<clus scale="   89.561">  5  6 -1 -1</clus>
<clus scale="   93.841">  7  8 -1 -1</clus>
<clus scale="  115.470">  1  5  2 -1</clus>
<clus scale="   20.373">  2  5  1 -1</clus>
</clustering>
</event>
<event>
 9    1  0.1636528E-005  0.1603540E+03  0.7546771E-02  0.1188398E+00
         21   -1    0    0  501  502  0.00000000000E+00  0.00000000000E+00  0.42146180206E+03  0.42146180206E+03  0.00000000000E+00 0. -1.
          4   -1    0    0  502    0 -0.00000000000E+00 -0.00000000000E+00 -0.11968434782E+03  0.11968434782E+03  0.00000000000E+00 0. -1.
         23    2    1    2    0    0  0.10624530256E+03  0.57028569707E+02 -0.82642369912E+00  0.15106185815E+03  0.90987251482E+02 0.  0.
         23    2    1    2    0    0 -0.14648430255E+03 -0.87683447579E+02  0.21584082498E+03  0.28965159777E+03  0.90358997834E+02 0.  0.
        -11    1    4    4    0    0 -0.56391850760E+02 -0.70239532089E+02  0.58185960495E+02  0.10723450330E+03  0.00000000000E+00 0.  1.
         11    1    4    4    0    0 -0.90092451793E+02 -0.17443915490E+02  0.15765486449E+03  0.18241709447E+03  0.00000000000E+00 0. -1.
        -11    1    3    3    0    0  0.10596274316E+03  0.28958096806E+02  0.25287735164E+02  0.11272153236E+03  0.00000000000E+00 0. -1.
         11    1    3    3    0    0  0.28255940729E+00  0.28070472900E+02 -0.26114158863E+02  0.38340325791E+02  0.00000000000E+00 0.  1.
          4    1    1    2  501    0  0.40238999989E+02  0.30654877872E+02  0.86763052958E+02  0.10043269396E+03  0.00000000000E+00 0. -1.
<scales pt_clust_5="13000.00000" pt_clust_6="13000.00000" pt_clust_7="13000.00000" pt_clust_8="13000.00000" pt_clust_9="50.58556"></scales>
<clustering>
<clus scale="   50.586">  1  9  2 -1</clus>
<clus scale="   90.359">  5  6 -1 -1</clus>
<clus scale="   90.987">  7  8 -1 -1</clus>
<clus scale="  159.998">  1  5  2 -1</clus>
<clus scale="   50.586">  1  5  2 -1</clus>
</clustering>
</event>
<event>
 9    1  0.1636528E-005  0.9593094E+02  0.7546771E-02  0.1291163E+00
         21   -1    0    0  501  502  0.00000000000E+00  0.00000000000E+00  0.65601417705E+02  0.65601417705E+02  0.00000000000E+00 0. -1.
          2   -1    0    0  502    0 -0.00000000000E+00 -0.00000000000E+00 -0.38860504324E+03  0.38860504324E+03  0.00000000000E+00 0. -1.
         23    2    1    2    0    0  0.19643506943E+02  0.30740114645E+02 -0.24139884498E+03  0.26039282430E+03  0.90554947825E+02 0.  0.
         23    2    1    2    0    0  0.23391406748E+02  0.23935040569E+02 -0.72710400251E+02  0.12366745789E+03  0.94269792397E+02 0.  0.
        -11    1    4    4    0    0  0.14219983458E+02 -0.29058994986E+02  0.10654760086E+01  0.32369250196E+02  0.00000000000E+00 0.  1.
         11    1    4    4    0    0  0.91714232901E+01  0.52994035555E+02 -0.73775876260E+02  0.91298207690E+02  0.00000000000E+00 0. -1.
        -11    1    3    3    0    0  0.11784587096E+02 -0.29347551460E+02 -0.46074621283E+02  0.55884040620E+02  0.00000000000E+00 0. -1.
         11    1    3    3    0    0  0.78589198471E+01  0.60087666104E+02 -0.19532422369E+03  0.20450878368E+03  0.00000000000E+00 0.  1.
          2    1    1    2  501    0 -0.43034913692E+02 -0.54675155214E+02 -0.88943803079E+01  0.70146178764E+02  0.00000000000E+00 0. -1.
<scales pt_clust_5="13000.00000" pt_clust_6="13000.00000" pt_clust_7="13000.00000" pt_clust_8="13000.00000" pt_clust_9="69.58000"></scales>
<clustering>
<clus scale="   69.580">  1  9  2 -1</clus>
<clus scale="   90.555">  7  8 -1 -1</clus>
<clus scale="   92.283">  2  7  1 -1</clus>
<clus scale="   94.270">  5  6 -1 -1</clus>
<clus scale="   69.580">  1  5  2 -1</clus>
</clustering>
</event>
<event>
 9    1  0.1636528E-005  0.1105636E+03  0.7546771E-02  0.1261469E+00
         -1   -1    0    0    0  501 -0.00000000000E+00  0.00000000000E+00  0.27454309210E+03  0.27454309210E+03  0.00000000000E+00 0.  1.
         21   -1    0    0  501  502  0.00000000000E+00 -0.00000000000E+00 -0.80657955084E+02  0.80657955084E+02  0.00000000000E+00 0.  1.
         23    2    1    2    0    0 -0.38601609226E+02 -0.49494589101E+02  0.54318269777E+02  0.11955736734E+03  0.86044703900E+02 0.  0.
         23    2    1    2    0    0  0.78213757826E+02 -0.20446194914E+01  0.64401675684E+02  0.13626954659E+03  0.91105659065E+02 0.  0.
        -11    1    4    4    0    0  0.46440092032E+02 -0.40320201533E+02  0.60661173802E+02  0.86383903632E+02  0.00000000000E+00 0.  1.
         11    1    4    4    0    0  0.31773665794E+02  0.38275582042E+02  0.37405018818E+01  0.49885642954E+02  0.00000000000E+00 0. -1.
        -11    1    3    3    0    0 -0.41585883216E+02  0.13130738516E+02  0.18700713590E+02  0.47450170344E+02  0.00000000000E+00 0. -1.
         11    1    3    3    0    0  0.29842739899E+01 -0.62625327617E+02  0.35617556187E+02  0.72107196999E+02  0.00000000000E+00 0.  1.
         -1    1    1    2    0  502 -0.39612148600E+02  0.51539208593E+02  0.75165191559E+02  0.99374133260E+02  0.00000000000E+00 0.  1.
<scales pt_clust_5="13000.00000" pt_clust_6="13000.00000" pt_clust_7="13000.00000" pt_clust_8="13000.00000" pt_clust_9="65.00320"></scales>
<clustering>
<clus scale="   65.003">  2  9  1 -1</clus>
<clus scale="   86.045">  7  8 -1 -1</clus>
<clus scale="   91.106">  5  6 -1 -1</clus>
<clus scale="  106.432">  1  7  2 -1</clus>
<clus scale="   65.003">  2  5  1 -1</clus>
</clustering>
</event>
<event>
 9    1  0.1636528E-005  0.9338613E+02  0.7546771E-02  0.1294994E+00
         21   -1    0    0  501  502  0.00000000000E+00  0.00000000000E+00  0.10326912669E+03  0.10326912669E+03  0.00000000000E+00 0. -1.
         -1   -1    0    0    0  501 -0.00000000000E+00 -0.00000000000E+00 -0.10458118147E+03  0.10458118147E+03  0.00000000000E+00 0.  1.
         23    2    1    2    0    0  0.28959023777E+02 -0.17662708558E+01 -0.44838747768E+01  0.95664254373E+02  0.91048336948E+02 0.  0.
         23    2    1    2    0    0 -0.97426514095E+01 -0.43379320830E+01  0.40031036231E+01  0.92006328991E+02  0.91298427284E+02 0.  0.
        -11    1    3    3    0    0  0.56152266127E+01 -0.44071663347E+02 -0.13663390538E+02  0.46481507302E+02  0.00000000000E+00 0.  1.
         11    1    3    3    0    0  0.23343797165E+02  0.42305392491E+02  0.91795157611E+01  0.49182747071E+02  0.00000000000E+00 0. -1.
        -13    1    4    4    0    0  0.19180620740E+02 -0.28104106094E+02 -0.26970909775E+02  0.43418509479E+02  0.00000000000E+00 0.  1.
         13    1    4    4    0    0 -0.28923272150E+02  0.23766174011E+02  0.30974013398E+02  0.48587819512E+02  0.00000000000E+00 0. -1.
         -1    1    1    2    0  502 -0.19216372368E+02  0.61042029388E+01 -0.83128362887E+00  0.20179724799E+02  0.00000000000E+00 0.  1.
<scales pt_clust_5="13000.00000" pt_clust_6="13000.00000" pt_clust_7="13000.00000" pt_clust_8="13000.00000" pt_clust_9="20.16261"></scales>
<clustering>
<clus scale="   20.163">  1  9  2 -1</clus>
<clus scale="   91.048">  5  6 -1 -1</clus>
<clus scale="   91.298">  7  8 -1 -1</clus>
<clus scale="   93.142">  2  5  1 -1</clus>
<clus scale="   20.163">  1  5  2 -1</clus>
</clustering>
</event>
<event>
 9    1  0.1636528E-005  0.1255724E+03  0.7546771E-02  0.1234271E+00
         21   -1    0    0  501  502  0.00000000000E+00  0.00000000000E+00  0.22398800036E+03  0.22398800036E+03  0.00000000000E+00 0.  1.
         -1   -1    0    0    0  501 -0.00000000000E+00 -0.00000000000E+00 -0.14165939947E+03  0.14165939947E+03  0.00000000000E+00 0.  1.
         23    2    1    2    0    0  0.46633835520E+02  0.68606217755E+02 -0.21489462761E+02  0.12577514309E+03  0.92065530360E+02 0.  0.
         23    2    1    2    0    0 -0.89265738457E+02 -0.38562858022E+02  0.11929970151E+02  0.13421477078E+03  0.91737748096E+02 0.  0.
        -11    1    3    3    0    0  0.67042568193E+02  0.73998633866E+02 -0.68512613316E+01  0.10008717973E+03  0.00000000000E+00 0.  1.
         11    1    3    3    0    0 -0.20408732673E+02 -0.53924161114E+01 -0.14638201430E+02  0.25687963366E+02  0.00000000000E+00 0. -1.
        -13    1    4    4    0    0 -0.55759011453E+02 -0.58723489846E+01  0.49031846124E+02  0.74482707893E+02  0.00000000000E+00 0.  1.
         13    1    4    4    0    0 -0.33506727004E+02 -0.32690509037E+02 -0.37101875973E+02  0.59732062884E+02  0.00000000000E+00 0. -1.
         -1    1    1    2    0  502  0.42631902937E+02 -0.30043359733E+02  0.91888093504E+02  0.10565748596E+03  0.00000000000E+00 0.  1.
<scales pt_clust_5="13000.00000" pt_clust_6="13000.00000" pt_clust_7="13000.00000" pt_clust_8="13000.00000" pt_clust_9="52.15441"></scales>
<clustering>
<clus scale="   52.154">  1  9  2 -1</clus>
<clus scale="   91.738">  7  8 -1 -1</clus>
<clus scale="   92.066">  5  6 -1 -1</clus>
<clus scale="  125.332">  1  7  2 -1</clus>
<clus scale="   52.154">  1  5  2 -1</clus>
</clustering>
</event>
<event>
 9    1  0.1636528E-005  0.1297119E+03  0.7546771E-02  0.1229138E+00
          1   -1    0    0  502    0 -0.00000000000E+00  0.00000000000E+00  0.31273933336E+03  0.31273933336E+03  0.00000000000E+00 0. -1.
         21   -1    0    0  501  502  0.00000000000E+00 -0.00000000000E+00 -0.14514470324E+03  0.14514470324E+03  0.00000000000E+00 0.  1.
         23    2    1    2    0    0  0.88940623738E+02  0.23665167205E+02  0.23323974936E+03  0.26614159030E+03  0.89219340480E+02 0.  0.
         23    2    1    2    0    0 -0.10809610467E+03  0.22601821385E+01 -0.24182820756E+02  0.13922408396E+03  0.84312872488E+02 0.  0.
        -13    1    3    3    0    0  0.87339403293E+02 -0.25582727832E+01  0.22001100176E+03  0.23672675603E+03  0.00000000000E+00 0. -1.
         13    1    3    3    0    0  0.16012204454E+01  0.26223439988E+02  0.13228747600E+02  0.29414834264E+02  0.00000000000E+00 0.  1.
        -13    1    4    4    0    0 -0.96221833305E+02 -0.30134890461E+02 -0.27635814724E+02  0.10454898891E+03  0.00000000000E+00 0. -1.
         13    1    4    4    0    0 -0.11874271365E+02  0.32395072599E+02  0.34529939687E+01  0.34675095047E+02  0.00000000000E+00 0.  1.
          1    1    1    2  501    0  0.19155480931E+02 -0.25925349344E+02 -0.41462298478E+02  0.52518362345E+02  0.00000000000E+00 0. -1.
<scales pt_clust_5="13000.00000" pt_clust_6="13000.00000" pt_clust_7="13000.00000" pt_clust_8="13000.00000" pt_clust_9="32.23439"></scales>
<clustering>
<clus scale="   32.234">  2  9  1 -1</clus>
<clus scale="   84.313">  7  8 -1 -1</clus>
<clus scale="   89.219">  5  6 -1 -1</clus>
<clus scale="  126.387">  2  7  1 -1</clus>
<clus scale="   32.234">  2  5  1 -1</clus>
</clustering>
</event>
<event>
 9    1  0.1636528E-005  0.1795016E+03  0.7546771E-02  0.1169152E+00
          2   -1    0    0  502    0 -0.00000000000E+00  0.00000000000E+00  0.11388966256E+04  0.11388966256E+04  0.00000000000E+00 0. -1.
         21   -1    0    0  501  502  0.00000000000E+00 -0.00000000000E+00 -0.37463283738E+02  0.37463283738E+02  0.00000000000E+00 0.  1.
         23    2    1    2    0    0  0.13740892398E+03  0.60619104981E+02  0.54512101189E+03  0.57357567683E+03  0.96313296899E+02 0.  0.
         23    2    1    2    0    0 -0.15215838567E+03 -0.28698238154E+02  0.52849641462E+03  0.55794882790E+03  0.89569364637E+02 0.  0.
        -11    1    4    4    0    0 -0.25412924514E+02  0.22819883553E+02  0.52114521043E+02  0.62309606974E+02  0.00000000000E+00 0.  1.
         11    1    4    4    0    0 -0.12674546115E+03 -0.51518121707E+02  0.47638189358E+03  0.49563922092E+03  0.00000000000E+00 0. -1.
        -11    1    3    3    0    0  0.25766933649E+02  0.60334234360E+02  0.23433427817E+03  0.24334483481E+03  0.00000000000E+00 0. -1.
         11    1    3    3    0    0  0.11164199033E+03  0.28487062127E+00  0.31078673373E+03  0.33023084201E+03  0.00000000000E+00 0.  1.
          2    1    1    2  501    0  0.14749461685E+02 -0.31920866827E+02  0.27815915301E+02  0.44835404571E+02  0.00000000000E+00 0. -1.
<scales pt_clust_5="13000.00000" pt_clust_6="13000.00000" pt_clust_7="13000.00000" pt_clust_8="13000.00000" pt_clust_9="35.16374"></scales>
<clustering>
<clus scale="   35.164">  2  9  1 -1</clus>
<clus scale="   89.569">  5  6 -1 -1</clus>
<clus scale="   96.313">  7  8 -1 -1</clus>
<clus scale="  175.975">  2  5  1 -1</clus>
<clus scale="   35.164">  2  5  1 -1</clus>
</clustering>
</event>
<event>
 9    1  0.1636528E-005  0.4264026E+03  0.7546771E-02  0.1035084E+00
          1   -1    0    0  502    0 -0.00000000000E+00  0.00000000000E+00  0.61351671387E+03  0.61351671387E+03  0.00000000000E+00 0. -1.
         21   -1    0    0  501  502  0.00000000000E+00 -0.00000000000E+00 -0.55946475990E+03  0.55946475990E+03  0.00000000000E+00 0. -1.
         23    2    1    2    0    0  0.37790619641E+03  0.22190632031E+03  0.39963928701E+03  0.59986799674E+03  0.89858474891E+02 0.  0.
         23    2    1    2    0    0 -0.30082033445E+03 -0.16292830365E+03 -0.23355883101E+03  0.42488722487E+03  0.94556441154E+02 0.  0.
        -13    1    4    4    0    0 -0.26181925609E+03 -0.11012961501E+03 -0.21628442573E+03  0.35701093509E+03  0.00000000000E+00 0. -1.
         13    1    4    4    0    0 -0.39001078360E+02 -0.52798688645E+02 -0.17274405275E+02  0.67876289775E+02  0.00000000000E+00 0.  1.
        -13    1    3    3    0    0  0.28901505414E+03  0.13708244830E+03  0.32548146335E+03  0.45635455748E+03  0.00000000000E+00 0. -1.
         13    1    3    3    0    0  0.88891142271E+02  0.84823872007E+02  0.74157823658E+02  0.14351343925E+03  0.00000000000E+00 0.  1.
          1    1    1    2  501    0 -0.77085861957E+02 -0.58978016659E+02 -0.11202850204E+03  0.14822625217E+03  0.00000000000E+00 0. -1.
<scales pt_clust_5="13000.00000" pt_clust_6="13000.00000" pt_clust_7="13000.00000" pt_clust_8="13000.00000" pt_clust_9="97.05996"></scales>
<clustering>
<clus scale="   89.858">  7  8 -1 -1</clus>
<clus scale="   94.556">  5  6 -1 -1</clus>
<clus scale="   97.060">  2  9  1 -1</clus>
<clus scale="  425.386">  1  7  2 -1</clus>
<clus scale="   97.060">  2  5  1 -1</clus>
</clustering>
</event>
<event>
 9    1  0.1636528E-005  0.1250586E+03  0.7546771E-02  0.1235392E+00
          1   -1    0    0  502    0 -0.00000000000E+00  0.00000000000E+00  0.42640580773E+03  0.42640580773E+03  0.00000000000E+00 0. -1.
         21   -1    0    0  501  502  0.00000000000E+00 -0.00000000000E+00 -0.71782315649E+02  0.71782315649E+02  0.00000000000E+00 0.  1.
         23    2    1    2    0    0 -0.52123247426E+02 -0.60791282030E+02  0.27829887144E+03  0.30411680648E+03  0.92867417566E+02 0.  0.
         23    2    1    2    0    0  0.37365745310E+02  0.89981055824E+02  0.87254023379E+02  0.15958539793E+03  0.91440938902E+02 0.  0.
        -11    1    3    3    0    0  0.22927604063E+02 -0.37433486595E+02  0.93200273836E+02  0.10302054159E+03  0.00000000000E+00 0.  1.
         11    1    3    3    0    0 -0.75050851489E+02 -0.23357795435E+02  0.18509859760E+03  0.20109626488E+03  0.00000000000E+00 0. -1.
        -13    1    4    4    0    0  0.32795937878E+02  0.24861559653E+02  0.84801044547E+02  0.94259683035E+02  0.00000000000E+00 0. -1.
         13    1    4    4    0    0  0.45698074320E+01  0.65119496171E+02  0.24529788321E+01  0.65325714896E+02  0.00000000000E+00 0.  1.
          1    1    1    2  501    0  0.14757502116E+02 -0.29189773794E+02 -0.10929402739E+02  0.34485918968E+02  0.00000000000E+00 0. -1.
<scales pt_clust_5="13000.00000" pt_clust_6="13000.00000" pt_clust_7="13000.00000" pt_clust_8="13000.00000" pt_clust_9="32.70821"></scales>
<clustering>
<clus scale="   32.708">  2  9  1 -1</clus>
<clus scale="   91.441">  7  8 -1 -1</clus>
<clus scale="   92.867">  5  6 -1 -1</clus>
<clus scale="  124.003">  2  7  1 -1</clus>
<clus scale="   32.708">  2  5  1 -1</clus>
</clustering>
</event>
<event>
 9    1  0.1636528E-005  0.1301837E+03  0.7546771E-02  0.1228372E+00
          1   -1    0    0  502    0 -0.00000000000E+00  0.00000000000E+00  0.17915583776E+03  0.17915583776E+03  0.00000000000E+00 0. -1.
         21   -1    0    0  501  502  0.00000000000E+00 -0.00000000000E+00 -0.26988714028E+03  0.26988714028E+03  0.00000000000E+00 0. -1.
         23    2    1    2    0    0  0.68902903777E+02 -0.71472976429E+02  0.11688267390E+03  0.17763871156E+03  0.89654647826E+02 0.  0.
         23    2    1    2    0    0 -0.30009847236E+02  0.49545832349E+02 -0.80577158670E+02  0.13674981034E+03  0.94087468315E+02 0.  0.
        -11    1    3    3    0    0  0.74324459167E+02 -0.31580831105E+02  0.38373682710E+02  0.89409248115E+02  0.00000000000E+00 0.  1.
         11    1    3    3    0    0 -0.54215553898E+01 -0.39892145324E+02  0.78508991192E+02  0.88229463442E+02  0.00000000000E+00 0. -1.
        -11    1    4    4    0    0  0.85631239001E-01 -0.26375534577E+02 -0.81891743690E+01  0.27617724993E+02  0.00000000000E+00 0. -1.
         11    1    4    4    0    0 -0.30095478475E+02  0.75921366927E+02 -0.72387984301E+02  0.10913208535E+03  0.00000000000E+00 0.  1.
          1    1    1    2  501    0 -0.38893056542E+02  0.21927144079E+02 -0.12703681776E+03  0.13465445615E+03  0.00000000000E+00 0. -1.
<scales pt_clust_5="13000.00000" pt_clust_6="13000.00000" pt_clust_7="13000.00000" pt_clust_8="13000.00000" pt_clust_9="44.64829"></scales>
<clustering>
<clus scale="   44.648">  2  9  1 -1</clus>
<clus scale="   89.655">  5  6 -1 -1</clus>
<clus scale="   94.087">  7  8 -1 -1</clus>
<clus scale="  127.017">  1  5  2 -1</clus>
<clus scale="   44.648">  2  5  1 -1</clus>
</clustering>
</event>
<event>
 9    1  0.1636528E-005  0.1082766E+03  0.7546771E-02  0.1264097E+00
         21   -1    0    0  501  502  0.00000000000E+00  0.00000000000E+00  0.45151489774E+02  0.45151489774E+02  0.00000000000E+00 0. -1.
         -3   -1    0    0    0  501 -0.00000000000E+00 -0.00000000000E+00 -0.62387760111E+03  0.62387760111E+03  0.00000000000E+00 0.  1.
         23    2    1    2    0    0 -0.14432869023E+02  0.77126215982E+02 -0.39102177855E+03  0.40903606290E+03  0.90860929738E+02 0.  0.
         23    2    1    2    0    0  0.49417333401E+00 -0.19849459247E+01 -0.51465594748E+02  0.10378326054E+03  0.90100352427E+02 0.  0.
        -13    1    3    3    0    0 -0.48704044595E+02  0.58997287759E+02 -0.30874323680E+03  0.31808041467E+03  0.00000000000E+00 0. -1.
         13    1    3    3    0    0  0.34271175572E+02  0.18128928224E+02 -0.82278541743E+02  0.90955648231E+02  0.00000000000E+00 0.  1.
        -13    1    4    4    0    0  0.29203578203E+00 -0.39368114512E+02 -0.53406743664E+02  0.66349182316E+02  0.00000000000E+00 0.  1.
         13    1    4    4    0    0  0.20213755198E+00  0.37383168587E+02  0.19411489158E+01  0.37434078222E+02  0.00000000000E+00 0. -1.
         -3    1    1    2    0  502  0.13938695689E+02 -0.75141270058E+02 -0.13623873804E+03  0.15620976745E+03  0.00000000000E+00 0.  1.
<scales pt_clust_5="13000.00000" pt_clust_6="13000.00000" pt_clust_7="13000.00000" pt_clust_8="13000.00000" pt_clust_9="76.42319"></scales>
<clustering>
<clus scale="   76.423">  1  9  2 -1</clus>
<clus scale="   90.100">  7  8 -1 -1</clus>
<clus scale="   90.861">  5  6 -1 -1</clus>
<clus scale="  107.639">  1  7  2 -1</clus>
<clus scale="   76.423">  1  5  2 -1</clus>
</clustering>
</event>
<event>
 9    1  0.1636528E-005  0.9715895E+02  0.7546771E-02  0.1290479E+00
         21   -1    0    0  501  502  0.00000000000E+00  0.00000000000E+00  0.45681686817E+02  0.45681686817E+02  0.00000000000E+00 0.  1.
          3   -1    0    0  502    0 -0.00000000000E+00 -0.00000000000E+00 -0.49541525572E+03  0.49541525572E+03  0.00000000000E+00 0. -1.
         23    2    1    2    0    0 -0.16211086662E+02 -0.26749948217E+02 -0.23626407978E+03  0.25695806239E+03  0.96064412634E+02 0.  0.
         23    2    1    2    0    0 -0.53133915373E+02 -0.15684154041E+02 -0.13812893477E+03  0.17329853789E+03  0.88789498036E+02 0.  0.
        -11    1    4    4    0    0 -0.60197514522E+02 -0.42785459241E+02 -0.11639413411E+03  0.13784749084E+03  0.00000000000E+00 0.  1.
         11    1    4    4    0    0  0.70635991493E+01  0.27101305200E+02 -0.21734800663E+02  0.35451047042E+02  0.00000000000E+00 0. -1.
        -13    1    3    3    0    0  0.24287285622E+02 -0.46384839609E+02 -0.16060588259E+03  0.16892505767E+03  0.00000000000E+00 0.  1.
         13    1    3    3    0    0 -0.40498372285E+02  0.19634891392E+02 -0.75658197190E+02  0.88033004718E+02  0.00000000000E+00 0. -1.
          3    1    1    2  501    0  0.69345002035E+02  0.42434102258E+02 -0.75340554350E+02  0.11084034226E+03  0.00000000000E+00 0. -1.
<scales pt_clust_5="13000.00000" pt_clust_6="13000.00000" pt_clust_7="13000.00000" pt_clust_8="13000.00000" pt_clust_9="81.29811"></scales>
<clustering>
<clus scale="   81.298">  1  9  2 -1</clus>
<clus scale="   88.789">  5  6 -1 -1</clus>
<clus scale="   89.973">  1  5  2 -1</clus>
<clus scale="   96.064">  7  8 -1 -1</clus>
<clus scale="   81.298">  1  5  2 -1</clus>
</clustering>
</event>
<event>
 9    1  0.1636528E-005  0.1050853E+03  0.7546771E-02  0.1270109E+00
          2   -1    0    0  502    0 -0.00000000000E+00  0.00000000000E+00  0.62102886644E+03  0.62102886644E+03  0.00000000000E+00 0. -1.
         21   -1    0    0  501  502  0.00000000000E+00 -0.00000000000E+00 -0.42890151411E+02  0.42890151411E+02  0.00000000000E+00 0.  1.
         23    2    1    2    0    0 -0.17413833302E+02  0.55644862371E+02  0.42353302424E+03  0.43717209534E+03  0.91321552883E+02 0.  0.
         23    2    1    2    0    0  0.20054421820E+02 -0.32920118617E+02  0.17153636494E+03  0.19828581900E+03  0.91687662601E+02 0.  0.
        -11    1    3    3    0    0 -0.12496727401E+02 -0.24609496162E+02  0.93728699142E+02  0.97708057703E+02  0.00000000000E+00 0.  1.
         11    1    3    3    0    0 -0.49171059015E+01  0.80254358533E+02  0.32980432510E+03  0.33946403763E+03  0.00000000000E+00 0. -1.
        -13    1    4    4    0    0  0.18917956119E+02 -0.59122498288E+02  0.15577341421E+03  0.16768636033E+03  0.00000000000E+00 0.  1.
         13    1    4    4    0    0  0.11364657005E+01  0.26202379671E+02  0.15762950736E+02  0.30599458666E+02  0.00000000000E+00 0. -1.
          2    1    1    2  501    0 -0.26405885176E+01 -0.22724743754E+02 -0.16930674150E+02  0.28461103520E+02  0.00000000000E+00 0. -1.
<scales pt_clust_5="13000.00000" pt_clust_6="13000.00000" pt_clust_7="13000.00000" pt_clust_8="13000.00000" pt_clust_9="22.87765"></scales>
<clustering>
<clus scale="   22.878">  2  9  1 -1</clus>
<clus scale="   91.322">  5  6 -1 -1</clus>
<clus scale="   91.688">  7  8 -1 -1</clus>
<clus scale="  104.766">  1  5  2 -1</clus>
<clus scale="   22.878">  2  5  1 -1</clus>
</clustering>
</event>
<event>
 9    1  0.1636528E-005  0.1936638E+03  0.7546771E-02  0.1155390E+00
          4   -1    0    0  502    0 -0.00000000000E+00  0.00000000000E+00  0.89426042528E+02  0.89426042528E+02  0.00000000000E+00 0. -1.
         21   -1    0    0  501  502  0.00000000000E+00 -0.00000000000E+00 -0.82039549136E+03  0.82039549136E+03  0.00000000000E+00 0.  1.
         23    2    1    2    0    0  0.13120806715E+03 -0.99551695869E+02 -0.68204572735E+02  0.19988265687E+03  0.90416346650E+02 0.  0.
         23    2    1    2    0    0 -0.15614102314E+03  0.12131113719E+03 -0.51874860341E+03  0.56216942016E+03  0.88532097629E+02 0.  0.
        -11    1    4    4    0    0 -0.20401934055E+02  0.33128240461E+02 -0.20988183102E+03  0.21345749512E+03  0.00000000000E+00 0. -1.
         11    1    4    4    0    0 -0.13573908908E+03  0.88182896727E+02 -0.30886677238E+03  0.34871192504E+03  0.00000000000E+00 0.  1.
        -13    1    3    3    0    0  0.10334473974E+03 -0.10985803341E+03 -0.34064464048E+02  0.15462635754E+03  0.00000000000E+00 0. -1.
         13    1    3    3    0    0  0.27863327409E+02  0.10306337541E+02 -0.34140108687E+02  0.45256299329E+02  0.00000000000E+00 0.  1.
          4    1    1    2  501    0  0.24932955988E+02 -0.21759441319E+02 -0.14401627269E+03  0.14776945686E+03  0.00000000000E+00 0. -1.
<scales pt_clust_5="13000.00000" pt_clust_6="13000.00000" pt_clust_7="13000.00000" pt_clust_8="13000.00000" pt_clust_9="33.09268"></scales>
<clustering>
<clus scale="   33.093">  2  9  1 -1</clus>
<clus scale="   88.532">  5  6 -1 -1</clus>
<clus scale="   90.416">  7  8 -1 -1</clus>
<clus scale="  192.791">  2  5  1 -1</clus>
<clus scale="   33.093">  2  5  1 -1</clus>
</clustering>
</event>
<event>
 9    1  0.1636528E-005  0.1036033E+03  0.7546771E-02  0.1284004E+00
         21   -1    0    0  501  502  0.00000000000E+00  0.00000000000E+00  0.42136200962E+03  0.42136200962E+03  0.00000000000E+00 0.  1.
          1   -1    0    0  502    0 -0.00000000000E+00 -0.00000000000E+00 -0.50135167365E+02  0.50135167365E+02  0.00000000000E+00 0. -1.
         23    2    1    2    0    0  0.28319049721E+02  0.47823231754E+02  0.34014304241E+02  0.93830562519E+02  0.67514231812E+02 0.  0.
         23    2    1    2    0    0  0.51200947151E+01 -0.43626004000E+02  0.11552956891E+03  0.15343652752E+03  0.90918881919E+02 0.  0.
        -11    1    4    4    0    0 -0.25209928844E+02  0.15019975392E+02  0.61426493208E+02  0.68076091552E+02  0.00000000000E+00 0.  1.
         11    1    4    4    0    0  0.30330023559E+02 -0.58645979393E+02  0.54103075703E+02  0.85360435967E+02  0.00000000000E+00 0. -1.
        -13    1    3    3    0    0  0.13389958674E+02 -0.14952888656E+02 -0.15862323808E+01  0.20134448232E+02  0.00000000000E+00 0. -1.
         13    1    3    3    0    0  0.14929091047E+02  0.62776120410E+02  0.35600536622E+02  0.73696114287E+02  0.00000000000E+00 0.  1.
          1    1    1    2  501    0 -0.33439144436E+02 -0.41972277532E+01  0.22168296911E+03  0.22423008695E+03  0.00000000000E+00 0. -1.
<scales pt_clust_5="13000.00000" pt_clust_6="13000.00000" pt_clust_7="13000.00000" pt_clust_8="13000.00000" pt_clust_9="33.70153"></scales>
<clustering>
<clus scale="   33.702">  1  9  2 -1</clus>
<clus scale="   67.514">  7  8 -1 -1</clus>
<clus scale="   83.819">  2  7  1 -1</clus>
<clus scale="   90.919">  5  6 -1 -1</clus>
<clus scale="   33.702">  1  5  2 -1</clus>
</clustering>
</event>
<event>
 9    1  0.1636528E-005  0.9598888E+02  0.7546771E-02  0.1289081E+00
          1   -1    0    0  502    0 -0.00000000000E+00  0.00000000000E+00  0.39541385790E+03  0.39541385790E+03  0.00000000000E+00 0. -1.
         21   -1    0    0  501  502  0.00000000000E+00 -0.00000000000E+00 -0.69660137018E+02  0.69660137018E+02  0.00000000000E+00 0.  1.
         23    2    1    2    0    0 -0.14635520615E+02 -0.30221123485E+02  0.31000618960E+03  0.32488595438E+03  0.91211463057E+02 0.  0.
         23    2    1    2    0    0  0.80063117865E+01  0.10001754447E+02  0.46041477112E+02  0.10316787783E+03  0.91431161427E+02 0.  0.
        -11    1    3    3    0    0 -0.81202018543E+01  0.32809894442E+02  0.11166144782E+03  0.11666492953E+03  0.00000000000E+00 0.  1.
         11    1    3    3    0    0 -0.65153187607E+01 -0.63031017927E+02  0.19834474178E+03  0.20822102485E+03  0.00000000000E+00 0. -1.
        -11    1    4    4    0    0 -0.40460647771E+02  0.82577717083E+01  0.33233561455E+02  0.53006833698E+02  0.00000000000E+00 0. -1.
         11    1    4    4    0    0  0.48466959558E+02  0.17439827382E+01  0.12807915657E+02  0.50161044128E+02  0.00000000000E+00 0.  1.
          1    1    1    2  501    0  0.66292088285E+01  0.20219369038E+02 -0.30293945826E+02  0.37020162719E+02  0.00000000000E+00 0. -1.
<scales pt_clust_5="13000.00000" pt_clust_6="13000.00000" pt_clust_7="13000.00000" pt_clust_8="13000.00000" pt_clust_9="21.27838"></scales>
<clustering>
<clus scale="   21.278">  2  9  1 -1</clus>
<clus scale="   91.211">  5  6 -1 -1</clus>
<clus scale="   91.431">  7  8 -1 -1</clus>
<clus scale="   95.780">  1  5  2 -1</clus>
<clus scale="   21.278">  2  5  1 -1</clus>
</clustering>
</event>
<event>
 9    1  0.1636528E-005  0.1186866E+03  0.7546771E-02  0.1247116E+00
          3   -1    0    0  502    0 -0.00000000000E+00  0.00000000000E+00  0.84694632307E+03  0.84694632307E+03  0.00000000000E+00 0. -1.
         21   -1    0    0  501  502  0.00000000000E+00 -0.00000000000E+00 -0.65868861821E+02  0.65868861821E+02  0.00000000000E+00 0. -1.
         23    2    1    2    0    0 -0.39768808890E+02  0.42802492723E+02  0.37928247589E+03  0.39429829722E+03  0.90566766149E+02 0.  0.
         23    2    1    2    0    0  0.67147276802E+02 -0.73934132147E+02  0.44184687700E+03  0.46087216976E+03  0.84849758210E+02 0.  0.
        -11    1    4    4    0    0  0.17421394302E+02 -0.11462496380E+02  0.12822176535E+02  0.24480645698E+02  0.00000000000E+00 0.  1.
         11    1    4    4    0    0  0.49725882500E+02 -0.62471635766E+02  0.42902470046E+03  0.43639152406E+03  0.00000000000E+00 0. -1.
        -11    1    3    3    0    0 -0.19423838275E+02  0.70496647645E+02  0.27113721191E+03  0.28082459028E+03  0.00000000000E+00 0.  1.
         11    1    3    3    0    0 -0.20344970615E+02 -0.27694154922E+02  0.10814526398E+03  0.11347370694E+03  0.00000000000E+00 0. -1.
          3    1    1    2  501    0 -0.27378467912E+02  0.31131639423E+02 -0.40051891642E+02  0.57644717907E+02  0.00000000000E+00 0. -1.
<scales pt_clust_5="13000.00000" pt_clust_6="13000.00000" pt_clust_7="13000.00000" pt_clust_8="13000.00000" pt_clust_9="41.45792"></scales>
<clustering>
<clus scale="   41.458">  2  9  1 -1</clus>
<clus scale="   84.850">  5  6 -1 -1</clus>
<clus scale="   90.567">  7  8 -1 -1</clus>
<clus scale="  114.384">  2  5  1 -1</clus>
<clus scale="   41.458">  2  5  1 -1</clus>
</clustering>
</event>
<event>
 9    1  0.1636528E-005  0.1317035E+03  0.7546771E-02  0.1224959E+00
         21   -1    0    0  501  502  0.00000000000E+00  0.00000000000E+00  0.10863292697E+03  0.10863292697E+03  0.00000000000E+00 0. -1.
         -1   -1    0    0    0  501 -0.00000000000E+00 -0.00000000000E+00 -0.23176681580E+03  0.23176681580E+03  0.00000000000E+00 0.  1.
         23    2    1    2    0    0  0.83909849292E+02  0.86995499489E+01 -0.95668971439E+02  0.15749435927E+03  0.92387099366E+02 0.  0.
         23    2    1    2    0    0 -0.10802999745E+03 -0.28838710530E+02 -0.37650287144E+02  0.14987344300E+03  0.92424851752E+02 0.  0.
        -11    1    4    4    0    0 -0.72004392253E+02  0.95023657939E+01  0.16387833037E+02  0.74454607184E+02  0.00000000000E+00 0. -1.
         11    1    4    4    0    0 -0.36025605196E+02 -0.38341076324E+02 -0.54038120181E+02  0.75418835817E+02  0.00000000000E+00 0.  1.
        -11    1    3    3    0    0 -0.68481914980E+01 -0.26232794685E+02 -0.14062380367E+02  0.30541902125E+02  0.00000000000E+00 0. -1.
         11    1    3    3    0    0  0.90758040790E+02  0.34932344634E+02 -0.81606591072E+02  0.12695245715E+03  0.00000000000E+00 0.  1.
         -1    1    1    2    0  502  0.24120148157E+02  0.20139160581E+02  0.10185369755E+02  0.33031940498E+02  0.00000000000E+00 0.  1.
<scales pt_clust_5="13000.00000" pt_clust_6="13000.00000" pt_clust_7="13000.00000" pt_clust_8="13000.00000" pt_clust_9="31.42240"></scales>
<clustering>
<clus scale="   31.422">  1  9  2 -1</clus>
<clus scale="   92.387">  7  8 -1 -1</clus>
<clus scale="   92.425">  5  6 -1 -1</clus>
<clus scale="  131.677">  2  7  1 -1</clus>
<clus scale="   31.422">  1  5  2 -1</clus>
</clustering>
</event>
<event>
 9    1  0.1636528E-005  0.4023166E+03  0.7546771E-02  0.1086753E+00
          1   -1    0    0  502    0 -0.00000000000E+00  0.00000000000E+00  0.10673848916E+04  0.10673848916E+04  0.00000000000E+00 0. -1.
         21   -1    0    0  501  502  0.00000000000E+00 -0.00000000000E+00 -0.36620219659E+03  0.36620219659E+03  0.00000000000E+00 0. -1.
         23    2    1    2    0    0 -0.74147721928E+02  0.18300889178E+02  0.14205488782E+03  0.18561845002E+03  0.91879326411E+02 0.  0.
         23    2    1    2    0    0 -0.31438984167E+03 -0.11553301148E+03  0.73281369149E+03  0.81141129900E+03  0.95830790522E+02 0.  0.
        -13    1    3    3    0    0 -0.77507886509E+02  0.45946561585E+02  0.12017760187E+03  0.15020391134E+03  0.00000000000E+00 0. -1.
         13    1    3    3    0    0  0.33601645805E+01 -0.27645672407E+02  0.21877285953E+02  0.35414538674E+02  0.00000000000E+00 0.  1.
        -13    1    4    4    0    0 -0.24115548046E+02 -0.86767203373E+01  0.14776970740E+02  0.29583846904E+02  0.00000000000E+00 0.  1.
         13    1    4    4    0    0 -0.29027429362E+03 -0.10685629115E+03  0.71803672075E+03  0.78182745209E+03  0.00000000000E+00 0. -1.
          1    1    1    2  501    0  0.38853756360E+03  0.97232122306E+02 -0.17368588434E+03  0.43655733914E+03  0.00000000000E+00 0. -1.
<scales pt_clust_5="13000.00000" pt_clust_6="13000.00000" pt_clust_7="13000.00000" pt_clust_8="13000.00000" pt_clust_9="390.73664"></scales>
<clustering>
<clus scale="   91.879">  5  6 -1 -1</clus>
<clus scale="   95.831">  7  8 -1 -1</clus>
<clus scale="  119.476">  1  5  2 -1</clus>
<clus scale="  390.737">  2  9  1 -1</clus>
<clus scale="  390.737">  2  5  1 -1</clus>
</clustering>
</event>
<event>
 9    1  0.1636528E-005  0.1020956E+03  0.7546771E-02  0.1277565E+00
         -1   -1    0    0    0  501 -0.00000000000E+00  0.00000000000E+00  0.30279170681E+03  0.30279170681E+03  0.00000000000E+00 0.  1.
         21   -1    0    0  501  502  0.00000000000E+00 -0.00000000000E+00 -0.96525780597E+02  0.96525780597E+02  0.00000000000E+00 0.  1.
         23    2    1    2    0    0  0.23922322263E+02 -0.38754928826E+02  0.23207950254E+03  0.25370294188E+03  0.91815386565E+02 0.  0.
         23    2    1    2    0    0 -0.37596278184E+02  0.24121346729E+02  0.15021328832E+02  0.10013259004E+03  0.88349169586E+02 0.  0.
        -13    1    4    4    0    0 -0.44703738131E+02 -0.22078101561E+02 -0.32060944501E+01  0.49961443264E+02  0.00000000000E+00 0.  1.
         13    1    4    4    0    0  0.71074599468E+01  0.46199448289E+02  0.18227423282E+02  0.50171146774E+02  0.00000000000E+00 0. -1.
        -13    1    3    3    0    0  0.53066575806E+02 -0.48105136369E+02  0.17060393338E+03  0.18502936983E+03  0.00000000000E+00 0.  1.
         13    1    3    3    0    0 -0.29144253543E+02  0.93502075434E+01  0.61475569155E+02  0.68673572054E+02  0.00000000000E+00 0. -1.
         -1    1    1    2    0  502  0.13673955921E+02  0.14633582097E+02 -0.40834905159E+02  0.45481955486E+02  0.00000000000E+00 0.  1.
<scales pt_clust_5="13000.00000" pt_clust_6="13000.00000" pt_clust_7="13000.00000" pt_clust_8="13000.00000" pt_clust_9="20.02795"></scales>
<clustering>
<clus scale="   20.028">  2  9  1 -1</clus>
<clus scale="   88.349">  5  6 -1 -1</clus>
<clus scale="   91.815">  7  8 -1 -1</clus>
<clus scale="   98.990">  2  5  1 -1</clus>
<clus scale="   20.028">  2  5  1 -1</clus>
</clustering>
</event>
<event>
 9    1  0.1636528E-005  0.1059526E+03  0.7546771E-02  0.1268947E+00
          4   -1    0    0  502    0 -0.00000000000E+00  0.00000000000E+00  0.64393547887E+02  0.64393547887E+02  0.00000000000E+00 0. -1.
         21   -1    0    0  501  502  0.00000000000E+00 -0.00000000000E+00 -0.21963441413E+03  0.21963441413E+03  0.00000000000E+00 0.  1.
         23    2    1    2    0    0  0.31933609263E+02  0.33713746955E+02 -0.39659521141E+02  0.11219336569E+03  0.94117488031E+02 0.  0.
         23    2    1    2    0    0 -0.14743322561E+02 -0.44374661665E+02 -0.91698183776E+02  0.14053656996E+03  0.95684347892E+02 0.  0.
        -11    1    4    4    0    0 -0.10160550535E+02 -0.74003386468E+02 -0.53031430141E+02  0.91608245146E+02  0.00000000000E+00 0. -1.
         11    1    4    4    0    0 -0.45827720267E+01  0.29628724803E+02 -0.38666753635E+02  0.48928324818E+02  0.00000000000E+00 0.  1.
        -13    1    3    3    0    0 -0.33171023357E+02  0.18443284423E+02 -0.17001346755E+02  0.41587465928E+02  0.00000000000E+00 0.  1.
         13    1    3    3    0    0  0.65104632620E+02  0.15270462532E+02 -0.22658174386E+02  0.70605899761E+02  0.00000000000E+00 0. -1.
          4    1    1    2  501    0 -0.17190286702E+02  0.10660914711E+02 -0.23883161329E+02  0.31298026366E+02  0.00000000000E+00 0. -1.
<scales pt_clust_5="13000.00000" pt_clust_6="13000.00000" pt_clust_7="13000.00000" pt_clust_8="13000.00000" pt_clust_9="20.22773"></scales>
<clustering>
<clus scale="   20.228">  2  9  1 -1</clus>
<clus scale="   94.117">  7  8 -1 -1</clus>
<clus scale="   95.684">  5  6 -1 -1</clus>
<clus scale="  104.540">  1  7  2 -1</clus>
<clus scale="   20.228">  2  5  1 -1</clus>
</clustering>
</event>
<event>
 9    1  0.1636528E-005  0.9829680E+02  0.7546771E-02  0.1284093E+00
          4   -1    0    0  502    0 -0.00000000000E+00  0.00000000000E+00  0.17724792266E+03  0.17724792266E+03  0.00000000000E+00 0. -1.
         21   -1    0    0  501  502  0.00000000000E+00 -0.00000000000E+00 -0.98909439589E+02  0.98909439589E+02  0.00000000000E+00 0. -1.
         23    2    1    2    0    0  0.92218740366E+00  0.30496659164E+02  0.40255660007E+02  0.10417302858E+03  0.91107656488E+02 0.  0.
         23    2    1    2    0    0 -0.56810160099E+02 -0.18476376682E+02  0.35110518753E+02  0.11474110458E+03  0.91454916589E+02 0.  0.
        -11    1    3    3    0    0  0.40410216703E+01 -0.32461415195E+02  0.96833579471E+01  0.34115110343E+02  0.00000000000E+00 0.  1.
         11    1    3    3    0    0 -0.31188342666E+01  0.62958074359E+02  0.30572302060E+02  0.70057918235E+02  0.00000000000E+00 0. -1.
        -11    1    4    4    0    0 -0.10498068556E+02  0.34879315246E+02  0.13809426711E+01  0.36451105307E+02  0.00000000000E+00 0.  1.
         11    1    4    4    0    0 -0.46312091543E+02 -0.53355691928E+02  0.33729576082E+02  0.78289999277E+02  0.00000000000E+00 0. -1.
          4    1    1    2  501    0  0.55887972696E+02 -0.12020282481E+02  0.29723043077E+01  0.57243229083E+02  0.00000000000E+00 0. -1.
<scales pt_clust_5="13000.00000" pt_clust_6="13000.00000" pt_clust_7="13000.00000" pt_clust_8="13000.00000" pt_clust_9="57.16601"></scales>
<clustering>
<clus scale="   57.166">  2  9  1 -1</clus>
<clus scale="   91.108">  5  6 -1 -1</clus>
<clus scale="   91.455">  7  8 -1 -1</clus>
<clus scale="   97.974">  1  5  2 -1</clus>
<clus scale="   57.166">  2  5  1 -1</clus>
</clustering>
</event>
<event>
 9    1  0.1636528E-005  0.1676993E+03  0.7546771E-02  0.1180384E+00
         21   -1    0    0  501  502  0.00000000000E+00  0.00000000000E+00  0.42814422078E+03  0.42814422078E+03  0.00000000000E+00 0.  1.
          2   -1    0    0  502    0 -0.00000000000E+00 -0.00000000000E+00 -0.47346973292E+03  0.47346973292E+03  0.00000000000E+00 0. -1.
         23    2    1    2    0    0 -0.12158168536E+03  0.63947108369E+02 -0.40580844798E+03  0.43817616077E+03  0.91904910262E+02 0.  0.
         23    2    1    2    0    0  0.18193631412E+03 -0.45929611244E+02  0.19176726689E+03  0.28334812536E+03  0.91110503843E+02 0.  0.
        -11    1    4    4    0    0  0.37748005431E+02  0.17012699394E+01 -0.11898066081E+01  0.37805050896E+02  0.00000000000E+00 0. -1.
         11    1    4    4    0    0  0.14418830869E+03 -0.47630881183E+02  0.19295707350E+03  0.24554307447E+03  0.00000000000E+00 0.  1.
        -13    1    3    3    0    0 -0.48246361226E+02  0.72041279367E+02 -0.16607483893E+03  0.18734596187E+03  0.00000000000E+00 0.  1.
         13    1    3    3    0    0 -0.73335324133E+02 -0.80941709983E+01 -0.23973360905E+03  0.25083019889E+03  0.00000000000E+00 0. -1.
          2    1    1    2  501    0 -0.60354628762E+02 -0.18017497125E+02  0.16871566894E+03  0.18008966756E+03  0.00000000000E+00 0. -1.
<scales pt_clust_5="13000.00000" pt_clust_6="13000.00000" pt_clust_7="13000.00000" pt_clust_8="13000.00000" pt_clust_9="62.98660"></scales>
<clustering>
<clus scale="   62.987">  1  9  2 -1</clus>
<clus scale="   91.111">  5  6 -1 -1</clus>
<clus scale="   91.905">  7  8 -1 -1</clus>
<clus scale="  167.265">  1  5  2 -1</clus>
<clus scale="   62.987">  1  5  2 -1</clus>
</clustering>
</event>
<event>
 9    1  0.1636528E-005  0.1094971E+03  0.7546771E-02  0.1269804E+00
         21   -1    0    0  501  502  0.00000000000E+00  0.00000000000E+00  0.98103785280E+02  0.98103785280E+02  0.00000000000E+00 0.  1.
         -1   -1    0    0    0  501 -0.00000000000E+00 -0.00000000000E+00 -0.86967818919E+03  0.86967818919E+03  0.00000000000E+00 0.  1.
         23    2    1    2    0    0  0.56009618344E+01  0.14953023297E+02 -0.56354193171E+03  0.57421417843E+03  0.10902958425E+03 0.  0.
         23    2    1    2    0    0  0.31320488996E+02  0.57301145105E+02 -0.26912006908E+03  0.29200228577E+03  0.92603072572E+02 0.  0.
        -13    1    4    4    0    0 -0.11198599554E+00 -0.22086060985E+02 -0.24885772008E+02  0.33273236680E+02  0.00000000000E+00 0.  1.
         13    1    4    4    0    0  0.31432474991E+02  0.79387206091E+02 -0.24423429708E+03  0.25872904909E+03  0.00000000000E+00 0. -1.
        -13    1    3    3    0    0  0.75383214042E+01  0.61741893608E+02 -0.36186290854E+03  0.36716978674E+03  0.00000000000E+00 0. -1.
         13    1    3    3    0    0 -0.19373595698E+01 -0.46788870311E+02 -0.20167902317E+03  0.20704439169E+03  0.00000000000E+00 0.  1.
         -1    1    1    2    0  502 -0.36921450830E+02 -0.72254168402E+02  0.61087596881E+02  0.10156551027E+03  0.00000000000E+00 0.  1.
<scales pt_clust_5="13000.00000" pt_clust_6="13000.00000" pt_clust_7="13000.00000" pt_clust_8="13000.00000" pt_clust_9="81.14098"></scales>
<clustering>
<clus scale="   81.141">  1  9  2 -1</clus>
<clus scale="   92.603">  5  6 -1 -1</clus>
<clus scale="   93.153">  1  5  2 -1</clus>
<clus scale="  109.030">  7  8 -1 -1</clus>
<clus scale="   81.141">  1  5  2 -1</clus>
</clustering>
</event>
<event>
 9    1  0.1636528E-005  0.1118949E+03  0.7546771E-02  0.1257346E+00
          1   -1    0    0  502    0 -0.00000000000E+00  0.00000000000E+00  0.52521503939E+03  0.52521503939E+03  0.00000000000E+00 0. -1.
         21   -1    0    0  501  502  0.00000000000E+00 -0.00000000000E+00 -0.81287520509E+02  0.81287520509E+02  0.00000000000E+00 0. -1.
         23    2    1    2    0    0 -0.44473846248E+00 -0.85238359275E+02  0.27348156275E+03  0.30055814854E+03  0.90979447163E+02 0.  0.
         23    2    1    2    0    0 -0.48721804998E+02  0.33386913908E+02  0.20065822748E+03  0.22836411281E+03  0.91640293853E+02 0.  0.
        -11    1    4    4    0    0  0.93741025633E+01  0.35650318281E+02  0.13820845133E+03  0.14303983715E+03  0.00000000000E+00 0.  1.
         11    1    4    4    0    0 -0.58095907561E+02 -0.22634043722E+01  0.62449776158E+02  0.85324275660E+02  0.00000000000E+00 0. -1.
        -11    1    3    3    0    0 -0.30762543980E+02 -0.11164792131E+02  0.14910506168E+03  0.15265420438E+03  0.00000000000E+00 0. -1.
         11    1    3    3    0    0  0.30317805517E+02 -0.74073567144E+02  0.12437650107E+03  0.14790394416E+03  0.00000000000E+00 0.  1.
          1    1    1    2  501    0  0.49166543461E+02  0.51851445367E+02 -0.30212271357E+02  0.77580298549E+02  0.00000000000E+00 0. -1.
<scales pt_clust_5="13000.00000" pt_clust_6="13000.00000" pt_clust_7="13000.00000" pt_clust_8="13000.00000" pt_clust_9="71.45573"></scales>
<clustering>
<clus scale="   71.456">  2  9  1 -1</clus>
<clus scale="   90.979">  7  8 -1 -1</clus>
<clus scale="   91.640">  5  6 -1 -1</clus>
<clus scale="  111.354">  1  7  2 -1</clus>
<clus scale="   71.456">  2  5  1 -1</clus>
</clustering>
</event>
<event>
 9    1  0.1636528E-005  0.1792747E+03  0.7546771E-02  0.1168512E+00
          2   -1    0    0  502    0 -0.00000000000E+00  0.00000000000E+00  0.14524057385E+04  0.14524057385E+04  0.00000000000E+00 0. -1.
         21   -1    0    0  501  502  0.00000000000E+00 -0.00000000000E+00 -0.28402392296E+02  0.28402392296E+02  0.00000000000E+00 0.  1.
         23    2    1    2    0    0 -0.12931229412E+03  0.60102564908E+02  0.64150668283E+03  0.66335388839E+03  0.90407795019E+02 0.  0.
         23    2    1    2    0    0  0.13931491447E+03 -0.10018342803E+03  0.67406427102E+03  0.70141928340E+03  0.90448908274E+02 0.  0.
        -11    1    4    4    0    0  0.11151815206E+03 -0.11357569181E+03  0.50264911658E+03  0.52724934368E+03  0.00000000000E+00 0.  1.
         11    1    4    4    0    0  0.27796762415E+02  0.13392263784E+02  0.17141515445E+03  0.17416993973E+03  0.00000000000E+00 0. -1.
        -13    1    3    3    0    0 -0.76986409384E+02 -0.13848484387E+02  0.30334997665E+03  0.31327287799E+03  0.00000000000E+00 0.  1.
         13    1    3    3    0    0 -0.52325884731E+02  0.73951049295E+02  0.33815670618E+03  0.35008101040E+03  0.00000000000E+00 0. -1.
          2    1    1    2  501    0 -0.10002620360E+02  0.40080863122E+02  0.10843239239E+03  0.11603495906E+03  0.00000000000E+00 0. -1.
<scales pt_clust_5="13000.00000" pt_clust_6="13000.00000" pt_clust_7="13000.00000" pt_clust_8="13000.00000" pt_clust_9="41.31014"></scales>
<clustering>
<clus scale="   41.310">  2  9  1 -1</clus>
<clus scale="   90.408">  7  8 -1 -1</clus>
<clus scale="   90.449">  5  6 -1 -1</clus>
<clus scale="  179.254">  1  7  2 -1</clus>
<clus scale="   41.310">  2  5  1 -1</clus>
</clustering>
</event>
<event>
 9    1  0.1636528E-005  0.1274438E+03  0.7546771E-02  0.1250145E+00
         21   -1    0    0  501  502  0.00000000000E+00  0.00000000000E+00  0.28338246525E+03  0.28338246525E+03  0.00000000000E+00 0.  1.
          1   -1    0    0  502    0 -0.00000000000E+00 -0.00000000000E+00 -0.11117066919E+03  0.11117066919E+03  0.00000000000E+00 0. -1.
         23    2    1    2    0    0  0.21411878310E+01  0.11404250540E+02 -0.97447485643E+01  0.87495546594E+02  0.86173481614E+02 0.  0.
         23    2    1    2    0    0  0.56106959767E+02 -0.76520638180E+02  0.35448912847E+02  0.13647776252E+03  0.91466689233E+02 0.  0.
        -11    1    4    4    0    0 -0.15460913258E+01 -0.56810273669E+02 -0.13393677204E+02  0.58388253800E+02  0.00000000000E+00 0. -1.
         11    1    4    4    0    0  0.57653051093E+02 -0.19710364510E+02  0.48842590051E+02  0.78089508722E+02  0.00000000000E+00 0.  1.
        -13    1    3    3    0    0  0.17814251443E+02 -0.16741197767E+02  0.28462358891E+02  0.37519609950E+02  0.00000000000E+00 0.  1.
         13    1    3    3    0    0 -0.15673063612E+02  0.28145448307E+02 -0.38207107455E+02  0.49975936645E+02  0.00000000000E+00 0. -1.
          1    1    1    2  501    0 -0.58248147599E+02  0.65116387639E+02  0.14650763177E+03  0.17057982532E+03  0.00000000000E+00 0. -1.
<scales pt_clust_5="13000.00000" pt_clust_6="13000.00000" pt_clust_7="13000.00000" pt_clust_8="13000.00000" pt_clust_9="88.74550"></scales>
<clustering>
<clus scale="   86.173">  7  8 -1 -1</clus>
<clus scale="   86.951">  2  7  1 -1</clus>
<clus scale="   88.746">  1  9  2 -1</clus>
<clus scale="   91.467">  5  6 -1 -1</clus>
<clus scale="   88.746">  1  5  2 -1</clus>
</clustering>
</event>
<event>
 9    1  0.1636528E-005  0.1153114E+03  0.7546771E-02  0.1252298E+00
          4   -1    0    0  502    0 -0.00000000000E+00  0.00000000000E+00  0.91613899919E+02  0.91613899919E+02  0.00000000000E+00 0. -1.
         21   -1    0    0  501  502  0.00000000000E+00 -0.00000000000E+00 -0.17749602700E+03  0.17749602700E+03  0.00000000000E+00 0.  1.
         23    2    1    2    0    0 -0.63243540002E+02  0.31001604510E+01 -0.22817553317E+02  0.11384935676E+03  0.91824174100E+02 0.  0.
         23    2    1    2    0    0  0.63913637542E+02 -0.25999737276E+02 -0.44567262546E+02  0.12581587332E+03  0.95301908093E+02 0.  0.
        -11    1    3    3    0    0 -0.87045508130E+02  0.51661724816E+00 -0.13173625717E+02  0.88038240518E+02  0.00000000000E+00 0. -1.
         11    1    3    3    0    0  0.23801968128E+02  0.25835432028E+01 -0.96439275996E+01  0.25811116245E+02  0.00000000000E+00 0.  1.
        -13    1    4    4    0    0  0.63637814143E+02 -0.55380694564E+02 -0.46576977164E+02  0.96364970404E+02  0.00000000000E+00 0.  1.
         13    1    4    4    0    0  0.27582339884E+00  0.29380957288E+02  0.20097146181E+01  0.29450902916E+02  0.00000000000E+00 0. -1.
          4    1    1    2  501    0 -0.67009753979E+00  0.22899576825E+02 -0.18497311218E+02  0.29444696836E+02  0.00000000000E+00 0. -1.
<scales pt_clust_5="13000.00000" pt_clust_6="13000.00000" pt_clust_7="13000.00000" pt_clust_8="13000.00000" pt_clust_9="22.90938"></scales>
<clustering>
<clus scale="   22.909">  2  9  1 -1</clus>
<clus scale="   91.824">  5  6 -1 -1</clus>
<clus scale="   95.302">  7  8 -1 -1</clus>
<clus scale="  112.454">  1  5  2 -1</clus>
<clus scale="   22.909">  2  5  1 -1</clus>
</clustering>
</event>
<event>
 9    1  0.1636528E-005  0.1226833E+03  0.7546771E-02  0.1239715E+00
         21   -1    0    0  501  502  0.00000000000E+00  0.00000000000E+00  0.14547449943E+03  0.14547449943E+03  0.00000000000E+00 0.  1.
         -1   -1    0    0    0  501 -0.00000000000E+00 -0.00000000000E+00 -0.38611091651E+03  0.38611091651E+03  0.00000000000E+00 0.  1.
         23    2    1    2    0    0 -0.18517736347E+02 -0.80314045704E+02 -0.24148653239E+03  0.27106191776E+03  0.91463465046E+02 0.  0.
         23    2    1    2    0    0 -0.15224827044E+02  0.83697067703E+02 -0.97435743054E+02  0.15655179348E+03  0.88191527468E+02 0.  0.
        -11    1    4    4    0    0  0.20588851966E+02  0.23405566533E+02 -0.77671888200E+02  0.83693748790E+02  0.00000000000E+00 0.  1.
         11    1    4    4    0    0 -0.35813679010E+02  0.60291501170E+02 -0.19763854855E+02  0.72858044692E+02  0.00000000000E+00 0. -1.
        -11    1    3    3    0    0  0.21313224142E+02 -0.37101830441E+02 -0.18378948965E+03  0.18870446696E+03  0.00000000000E+00 0. -1.
         11    1    3    3    0    0 -0.39830960489E+02 -0.43212215264E+02 -0.57697042741E+02  0.82357450802E+02  0.00000000000E+00 0.  1.
         -1    1    1    2    0  502  0.33742563391E+02 -0.33830219988E+01  0.98285858368E+02  0.10397170469E+03  0.00000000000E+00 0.  1.
<scales pt_clust_5="13000.00000" pt_clust_6="13000.00000" pt_clust_7="13000.00000" pt_clust_8="13000.00000" pt_clust_9="33.91173"></scales>
<clustering>
<clus scale="   33.912">  1  9  2 -1</clus>
<clus scale="   88.192">  5  6 -1 -1</clus>
<clus scale="   91.463">  7  8 -1 -1</clus>
<clus scale="  120.264">  1  5  2 -1</clus>
<clus scale="   33.912">  1  5  2 -1</clus>
</clustering>
</event>
<event>
 9    1  0.1636528E-005  0.9557324E+02  0.7546771E-02  0.1292244E+00
         21   -1    0    0  501  502  0.00000000000E+00  0.00000000000E+00  0.21430168513E+03  0.21430168513E+03  0.00000000000E+00 0. -1.
         -4   -1    0    0    0  501 -0.00000000000E+00 -0.00000000000E+00 -0.11506873448E+03  0.11506873448E+03  0.00000000000E+00 0.  1.
         23    2    1    2    0    0 -0.23303119983E+01  0.11648640049E+02 -0.67312213492E+02  0.11379272634E+03  0.90976531663E+02 0.  0.
         23    2    1    2    0    0  0.89625238233E+01  0.12556790389E+02  0.16418275956E+03  0.19036916194E+03  0.95112772348E+02 0.  0.
        -11    1    3    3    0    0  0.42512199994E+02  0.86289823653E+01 -0.48503331787E+02  0.65071650352E+02  0.00000000000E+00 0.  1.
         11    1    3    3    0    0 -0.44842511993E+02  0.30196576833E+01 -0.18808881705E+02  0.48721075987E+02  0.00000000000E+00 0. -1.
        -11    1    4    4    0    0  0.60031768753E+01 -0.41387195434E+02  0.62043229909E+02  0.74821791318E+02  0.00000000000E+00 0. -1.
         11    1    4    4    0    0  0.29593469480E+01  0.53943985824E+02  0.10213952965E+03  0.11554737062E+03  0.00000000000E+00 0.  1.
         -4    1    1    2    0  502 -0.66322118250E+01 -0.24205430438E+02  0.23624045900E+01  0.25208531330E+02  0.00000000000E+00 0.  1.
<scales pt_clust_5="13000.00000" pt_clust_6="13000.00000" pt_clust_7="13000.00000" pt_clust_8="13000.00000" pt_clust_9="25.09760"></scales>
<clustering>
<clus scale="   25.098">  1  9  2 -1</clus>
<clus scale="   90.977">  5  6 -1 -1</clus>
<clus scale="   91.458">  2  5  1 -1</clus>
<clus scale="   95.113">  7  8 -1 -1</clus>
<clus scale="   25.098">  1  5  2 -1</clus>
</clustering>
</event>
<event>
 9    1  0.1636528E-005  0.1047677E+03  0.7546771E-02  0.1270927E+00
         -1   -1    0    0    0  501 -0.00000000000E+00  0.00000000000E+00  0.28040921206E+03  0.28040921206E+03  0.00000000000E+00 0.  1.
         21   -1    0    0  501  502  0.00000000000E+00 -0.00000000000E+00 -0.60647478044E+02  0.60647478044E+02  0.00000000000E+00 0. -1.
         23    2    1    2    0    0  0.38050687402E+02  0.42570856343E+02  0.12723817651E+03  0.16600031540E+03  0.90035651444E+02 0.  0.
         23    2    1    2    0    0 -0.14859156273E+02 -0.46997405216E+02  0.10585127431E+03  0.14794420979E+03  0.90848479972E+02 0.  0.
        -13    1    3    3    0    0 -0.60799992174E+01 -0.25090476940E+02  0.32072067989E+02  0.41171786076E+02  0.00000000000E+00 0.  1.
         13    1    3    3    0    0  0.44130686619E+02  0.67661333283E+02  0.95166108519E+02  0.12482852933E+03  0.00000000000E+00 0. -1.
        -13    1    4    4    0    0 -0.35424513481E+02 -0.48845770442E+02  0.11128716562E+03  0.12659241161E+03  0.00000000000E+00 0.  1.
         13    1    4    4    0    0  0.20565357208E+02  0.18483652262E+01 -0.54358913059E+01  0.21351798177E+02  0.00000000000E+00 0. -1.
         -1    1    1    2    0  502 -0.23191531129E+02  0.44265488737E+01 -0.13327716807E+02  0.27112164914E+02  0.00000000000E+00 0.  1.
<scales pt_clust_5="13000.00000" pt_clust_6="13000.00000" pt_clust_7="13000.00000" pt_clust_8="13000.00000" pt_clust_9="23.61020"></scales>
<clustering>
<clus scale="   23.610">  2  9  1 -1</clus>
<clus scale="   90.036">  5  6 -1 -1</clus>
<clus scale="   90.848">  7  8 -1 -1</clus>
<clus scale="  104.064">  1  5  2 -1</clus>
<clus scale="   23.610">  2  5  1 -1</clus>
</clustering>
</event>
<event>
 9    1  0.1636528E-005  0.1015159E+03  0.7546771E-02  0.1278770E+00
         21   -1    0    0  501  502  0.00000000000E+00  0.00000000000E+00  0.13233055221E+03  0.13233055221E+03  0.00000000000E+00 0. -1.
          1   -1    0    0  502    0 -0.00000000000E+00 -0.00000000000E+00 -0.35894770501E+03  0.35894770501E+03  0.00000000000E+00 0. -1.
         23    2    1    2    0    0  0.12256371849E+02  0.67238679335E+02 -0.23037918414E+03  0.25647915852E+03  0.89642242387E+02 0.  0.
         23    2    1    2    0    0 -0.11902043938E+02  0.96650909470E+01 -0.78126656075E+02  0.12246000239E+03  0.93046252819E+02 0.  0.
        -11    1    3    3    0    0 -0.37684349736E+02  0.26735069302E+02 -0.12205633232E+03  0.13050908936E+03  0.00000000000E+00 0. -1.
         11    1    3    3    0    0  0.49940721585E+02  0.40503610033E+02 -0.10832285182E+03  0.12597006916E+03  0.00000000000E+00 0.  1.
        -13    1    4    4    0    0 -0.50198818264E+01 -0.27836465092E+02 -0.79423730187E+02  0.84310123469E+02  0.00000000000E+00 0.  1.
         13    1    4    4    0    0 -0.68821621112E+01  0.37501556039E+02  0.12970741124E+01  0.38149878925E+02  0.00000000000E+00 0. -1.
          1    1    1    2  501    0 -0.35432791183E+00 -0.76903770282E+02  0.81888687415E+02  0.11233909630E+03  0.00000000000E+00 0. -1.
<scales pt_clust_5="13000.00000" pt_clust_6="13000.00000" pt_clust_7="13000.00000" pt_clust_8="13000.00000" pt_clust_9="76.90459"></scales>
<clustering>
<clus scale="   76.905">  1  9  2 -1</clus>
<clus scale="   89.642">  5  6 -1 -1</clus>
<clus scale="   93.046">  7  8 -1 -1</clus>
<clus scale="   98.405">  2  5  1 -1</clus>
<clus scale="   76.905">  1  5  2 -1</clus>
</clustering>
</event>
<event>
 9    1  0.3108862E-005  0.1022300E+03  0.7546771E-02  0.1276907E+00
         21   -1    0    0  501  502  0.00000000000E+00  0.00000000000E+00  0.44882918838E+03  0.44882918838E+03  0.00000000000E+00 0.  1.
         -2   -1    0    0    0  501 -0.00000000000E+00 -0.00000000000E+00 -0.18765288643E+03  0.18765288643E+03  0.00000000000E+00 0.  1.
         23    2    1    2    0    0  0.55463202384E+02  0.32740201001E+02 -0.98073725221E+02  0.14742864729E+03  0.89267367401E+02 0.  0.
         23    2    1    2    0    0 -0.61566100175E+01 -0.20434334266E+02 -0.28036455385E+02  0.98446983676E+02  0.91925512784E+02 0.  0.
        -11    1    3    3    0    0  0.64538870726E+01  0.24231518922E+02  0.11125684715E+02  0.27433556605E+02  0.00000000000E+00 0. -1.
         11    1    3    3    0    0  0.49009315312E+02  0.85086820793E+01 -0.10919940994E+03  0.11999509069E+03  0.00000000000E+00 0.  1.
        -11    1    4    4    0    0  0.38076128943E+02 -0.51197406318E+01 -0.33945051253E+02  0.51266654308E+02  0.00000000000E+00 0.  1.
         11    1    4    4    0    0 -0.44232738960E+02 -0.15314593635E+02  0.59085958680E+01  0.47180329368E+02  0.00000000000E+00 0. -1.
         -2    1    1    2    0  502 -0.49306592367E+02 -0.12305866735E+02  0.38728648255E+03  0.39060644385E+03  0.00000000000E+00 0.  1.
<scales pt_clust_5="13000.00000" pt_clust_6="13000.00000" pt_clust_7="13000.00000" pt_clust_8="13000.00000" pt_clust_9="50.81904"></scales>
<clustering>
<clus scale="   50.819">  1  9  2 -1</clus>
<clus scale="   89.267">  5  6 -1 -1</clus>
<clus scale="   91.926">  7  8 -1 -1</clus>
<clus scale="   99.847">  2  5  1 -1</clus>
<clus scale="   50.819">  1  5  2 -1</clus>
</clustering>
</event>
<event>
 9    1  0.1636528E-005  0.1024372E+03  0.7546771E-02  0.1275438E+00
         21   -1    0    0  501  502  0.00000000000E+00  0.00000000000E+00  0.44280482846E+03  0.44280482846E+03  0.00000000000E+00 0.  1.
          3   -1    0    0  502    0 -0.00000000000E+00 -0.00000000000E+00 -0.77142762480E+02  0.77142762480E+02  0.00000000000E+00 0. -1.
         23    2    1    2    0    0  0.17501766461E+02  0.45988813539E+02  0.16673263528E+02  0.10607227339E+03  0.92477276480E+02 0.  0.
         23    2    1    2    0    0 -0.41755042212E+02 -0.15453738194E+02  0.53951795217E+02  0.11627248180E+03  0.92877296698E+02 0.  0.
        -11    1    4    4    0    0 -0.20674873311E+02  0.52821078005E+01  0.76287236839E+02  0.79215488093E+02  0.00000000000E+00 0.  1.
         11    1    4    4    0    0 -0.21080168901E+02 -0.20735845994E+02 -0.22335441622E+02  0.37056993705E+02  0.00000000000E+00 0. -1.
        -13    1    3    3    0    0  0.43836974270E+02 -0.80790152245E+01  0.56860093515E+01  0.44936416218E+02  0.00000000000E+00 0.  1.
         13    1    3    3    0    0 -0.26335207810E+02  0.54067828764E+02  0.10987254176E+02  0.61135857170E+02  0.00000000000E+00 0. -1.
          3    1    1    2  501    0  0.24253275751E+02 -0.30535075345E+02  0.29503700724E+03  0.29760283576E+03  0.00000000000E+00 0. -1.
<scales pt_clust_5="13000.00000" pt_clust_6="13000.00000" pt_clust_7="13000.00000" pt_clust_8="13000.00000" pt_clust_9="38.99503"></scales>
<clustering>
<clus scale="   38.995">  1  9  2 -1</clus>
<clus scale="   92.477">  7  8 -1 -1</clus>
<clus scale="   92.877">  5  6 -1 -1</clus>
<clus scale="  102.075">  2  7  1 -1</clus>
<clus scale="   38.995">  1  5  2 -1</clus>
</clustering>
</event>
<event>
 9    1  0.1636528E-005  0.1152823E+03  0.7546771E-02  0.1251882E+00
         21   -1    0    0  501  502  0.00000000000E+00  0.00000000000E+00  0.19038316501E+03  0.19038316501E+03  0.00000000000E+00 0. -1.
          1   -1    0    0  502    0 -0.00000000000E+00 -0.00000000000E+00 -0.17619763652E+03  0.17619763652E+03  0.00000000000E+00 0. -1.
         23    2    1    2    0    0 -0.10590934095E+02 -0.10181396088E+03 -0.71459082372E+02  0.15472096368E+03  0.91399812005E+02 0.  0.
         23    2    1    2    0    0  0.26535988201E+02  0.28738776224E+02 -0.10974906713E+01  0.97324168556E+02  0.89110680453E+02 0.  0.
        -11    1    4    4    0    0 -0.28376149687E+02  0.31418935440E+02 -0.26208017943E-01  0.42336226356E+02  0.00000000000E+00 0. -1.
         11    1    4    4    0    0  0.54912137888E+02 -0.26801592167E+01 -0.10712826534E+01  0.54987942200E+02  0.00000000000E+00 0.  1.
        -11    1    3    3    0    0 -0.31968406605E+02 -0.10190738650E+03 -0.34883909054E+02  0.11235649316E+03  0.00000000000E+00 0. -1.
         11    1    3    3    0    0  0.21377472510E+02  0.93425624896E-01 -0.36575173318E+02  0.42364470520E+02  0.00000000000E+00 0.  1.
          1    1    1    2  501    0 -0.15945054106E+02  0.73075184654E+02  0.86742101532E+02  0.11453566929E+03  0.00000000000E+00 0. -1.
<scales pt_clust_5="13000.00000" pt_clust_6="13000.00000" pt_clust_7="13000.00000" pt_clust_8="13000.00000" pt_clust_9="74.79457"></scales>
<clustering>
<clus scale="   74.795">  1  9  2 -1</clus>
<clus scale="   89.111">  5  6 -1 -1</clus>
<clus scale="   91.400">  7  8 -1 -1</clus>
<clus scale="  113.476">  1  5  2 -1</clus>
<clus scale="   74.795">  1  5  2 -1</clus>
</clustering>
</event>
<event>
 9    1  0.1636528E-005  0.2031481E+03  0.7546771E-02  0.1147193E+00
          3   -1    0    0  502    0 -0.00000000000E+00  0.00000000000E+00  0.11044473395E+04  0.11044473395E+04  0.00000000000E+00 0. -1.
         21   -1    0    0  501  502  0.00000000000E+00 -0.00000000000E+00 -0.99988026221E+02  0.99988026221E+02  0.00000000000E+00 0. -1.
         23    2    1    2    0    0 -0.39562476831E+02 -0.18527958074E+03  0.83040678058E+03  0.85635567572E+03  0.88746321003E+02 0.  0.
         23    2    1    2    0    0  0.28622823904E+02  0.16118803481E+03  0.22398957032E+03  0.29156609586E+03  0.89658307072E+02 0.  0.
        -11    1    4    4    0    0  0.61085738806E+01  0.14781099602E+03  0.21994325989E+03  0.26506686475E+03  0.00000000000E+00 0.  1.
         11    1    4    4    0    0  0.22514250024E+02  0.13377038792E+02  0.40463104282E+01  0.26499231103E+02  0.00000000000E+00 0. -1.
        -13    1    3    3    0    0  0.28463115493E+02 -0.62191098536E+02  0.28870270153E+03  0.29669366618E+03  0.00000000000E+00 0.  1.
         13    1    3    3    0    0 -0.68025592324E+02 -0.12308848221E+03  0.54170407905E+03  0.55966200954E+03  0.00000000000E+00 0. -1.
          3    1    1    2  501    0  0.10939652927E+02  0.24091545933E+02 -0.49937037645E+02  0.56513594120E+02  0.00000000000E+00 0. -1.
<scales pt_clust_5="13000.00000" pt_clust_6="13000.00000" pt_clust_7="13000.00000" pt_clust_8="13000.00000" pt_clust_9="26.45900"></scales>
<clustering>
<clus scale="   26.459">  2  9  1 -1</clus>
<clus scale="   88.746">  7  8 -1 -1</clus>
<clus scale="   89.658">  5  6 -1 -1</clus>
<clus scale="  202.747">  1  7  2 -1</clus>
<clus scale="   26.459">  2  5  1 -1</clus>
</clustering>
</event>
<event>
 9    1  0.1636528E-005  0.1397135E+03  0.7546771E-02  0.1214294E+00
          1   -1    0    0  502    0 -0.00000000000E+00  0.00000000000E+00  0.72577489129E+03  0.72577489129E+03  0.00000000000E+00 0. -1.
         21   -1    0    0  501  502  0.00000000000E+00 -0.00000000000E+00 -0.28707749033E+03  0.28707749033E+03  0.00000000000E+00 0.  1.
         23    2    1    2    0    0  0.80509783245E+02  0.67824163561E+02  0.68827054157E+03  0.70199294672E+03  0.89419329492E+02 0.  0.
         23    2    1    2    0    0 -0.49463573890E+02 -0.96455595903E+02 -0.20465576019E+03  0.24920558589E+03  0.92027804155E+02 0.  0.
        -11    1    3    3    0    0 -0.92030583406E+01  0.43371799707E+02  0.18833947624E+03  0.19348790041E+03  0.00000000000E+00 0.  1.
         11    1    3    3    0    0  0.89712841586E+02  0.24452363854E+02  0.49993106533E+03  0.50850504631E+03  0.00000000000E+00 0. -1.
        -13    1    4    4    0    0  0.75843251795E+01 -0.57540779664E+02 -0.39530803894E+02  0.70222131620E+02  0.00000000000E+00 0. -1.
         13    1    4    4    0    0 -0.57047899069E+02 -0.38914816239E+02 -0.16512495630E+03  0.17898345427E+03  0.00000000000E+00 0.  1.
          1    1    1    2  501    0 -0.31046209355E+02  0.28631432342E+02 -0.44917380423E+02  0.61653849007E+02  0.00000000000E+00 0. -1.
<scales pt_clust_5="13000.00000" pt_clust_6="13000.00000" pt_clust_7="13000.00000" pt_clust_8="13000.00000" pt_clust_9="42.23300"></scales>
<clustering>
<clus scale="   42.233">  2  9  1 -1</clus>
<clus scale="   89.419">  5  6 -1 -1</clus>
<clus scale="   92.028">  7  8 -1 -1</clus>
<clus scale="  138.009">  1  5  2 -1</clus>
<clus scale="   42.233">  2  5  1 -1</clus>
</clustering>
</event>
<event>
 9    1  0.1757539E-005  0.3202528E+03  0.7546771E-02  0.1075571E+00
         21   -1    0    0  501  502  0.00000000000E+00  0.00000000000E+00  0.12062319892E+04  0.12062319892E+04  0.00000000000E+00 0.  1.
         -2   -1    0    0    0  501 -0.00000000000E+00 -0.00000000000E+00 -0.17331109675E+03  0.17331109675E+03  0.00000000000E+00 0.  1.
         23    2    1    2    0    0 -0.32772905530E+03  0.18819491135E+03  0.16933641304E+03  0.42419126927E+03  0.91868132666E+02 0.  0.
         23    2    1    2    0    0  0.17732804023E+03 -0.10948288583E+03  0.37939511323E+03  0.44226762220E+03  0.90709765551E+02 0.  0.
        -13    1    3    3    0    0 -0.25862228721E+03  0.12388013178E+03  0.89066082942E+02  0.30027411081E+03  0.00000000000E+00 0.  1.
         13    1    3    3    0    0 -0.69106768088E+02  0.64314779570E+02  0.80270330103E+02  0.12391715846E+03  0.00000000000E+00 0. -1.
        -13    1    4    4    0    0  0.45096216177E+02 -0.45833905130E+02  0.20228254013E+03  0.21225607557E+03  0.00000000000E+00 0.  1.
         13    1    4    4    0    0  0.13223182406E+03 -0.63648980700E+02  0.17711257309E+03  0.23001154663E+03  0.00000000000E+00 0. -1.
         -2    1    1    2    0  502  0.15040101506E+03 -0.78712025520E+02  0.48418936623E+03  0.51308419451E+03  0.00000000000E+00 0.  1.
<scales pt_clust_5="13000.00000" pt_clust_6="13000.00000" pt_clust_7="13000.00000" pt_clust_8="13000.00000" pt_clust_9="169.75290"></scales>
<clustering>
<clus scale="   90.710">  7  8 -1 -1</clus>
<clus scale="   91.868">  5  6 -1 -1</clus>
<clus scale="  169.753">  1  9  2 -1</clus>
<clus scale="  319.922">  1  7  2 -1</clus>
<clus scale="  169.753">  1  5  2 -1</clus>
</clustering>
</event>
<event>
 9    1  0.1636528E-005  0.9621063E+02  0.7546771E-02  0.1297008E+00
         21   -1    0    0  501  502  0.00000000000E+00  0.00000000000E+00  0.42961557321E+02  0.42961557321E+02  0.00000000000E+00 0.  1.
          1   -1    0    0  502    0 -0.00000000000E+00 -0.00000000000E+00 -0.38035967175E+03  0.38035967175E+03  0.00000000000E+00 0. -1.
         23    2    1    2    0    0 -0.23097732075E+01 -0.20637364856E+02 -0.12080882034E+03  0.14462822113E+03  0.76754904705E+02 0.  0.
         23    2    1    2    0    0  0.61914239770E+02 -0.17688243911E+00 -0.15531934507E+03  0.19071612474E+03  0.91734055332E+02 0.  0.
        -13    1    4    4    0    0  0.11140631382E+02 -0.24832706334E+02 -0.12236775074E+03  0.12535806074E+03  0.00000000000E+00 0. -1.
         13    1    4    4    0    0  0.50773608388E+02  0.24655823895E+02 -0.32951594337E+02  0.65358064002E+02  0.00000000000E+00 0.  1.
        -13    1    3    3    0    0  0.30804394258E+02  0.10355421112E+02 -0.36332324996E+02  0.48746110527E+02  0.00000000000E+00 0.  1.
         13    1    3    3    0    0 -0.33114167465E+02 -0.30992785967E+02 -0.84476495340E+02  0.95882110604E+02  0.00000000000E+00 0. -1.
          1    1    1    2  501    0 -0.59604466563E+02  0.20814247295E+02 -0.61269949019E+02  0.87976883200E+02  0.00000000000E+00 0. -1.
<scales pt_clust_5="13000.00000" pt_clust_6="13000.00000" pt_clust_7="13000.00000" pt_clust_8="13000.00000" pt_clust_9="63.13419"></scales>
<clustering>
<clus scale="   63.134">  1  9  2 -1</clus>
<clus scale="   76.755">  7  8 -1 -1</clus>
<clus scale="   82.053">  2  7  1 -1</clus>
<clus scale="   91.734">  5  6 -1 -1</clus>
<clus scale="   63.134">  1  5  2 -1</clus>
</clustering>
</event>
<event>
 9    1  0.1636528E-005  0.1029159E+03  0.7546771E-02  0.1275104E+00
         21   -1    0    0  501  502  0.00000000000E+00  0.00000000000E+00  0.39030553370E+02  0.39030553370E+02  0.00000000000E+00 0.  1.
          2   -1    0    0  502    0 -0.00000000000E+00 -0.00000000000E+00 -0.43864176125E+03  0.43864176125E+03  0.00000000000E+00 0. -1.
         23    2    1    2    0    0  0.16095463446E+02  0.35940001880E+02 -0.17538361723E+03  0.20229915989E+03  0.92815888844E+02 0.  0.
         23    2    1    2    0    0  0.96152256741E+01 -0.57824261393E+02 -0.10264347374E+03  0.14918814043E+03  0.91023737410E+02 0.  0.
        -11    1    4    4    0    0  0.96777876070E+01 -0.78246687368E+02 -0.51643248898E+02  0.94250882297E+02  0.00000000000E+00 0.  1.
         11    1    4    4    0    0 -0.62561932834E-01  0.20422425976E+02 -0.51000224843E+02  0.54937258129E+02  0.00000000000E+00 0. -1.
        -11    1    3    3    0    0  0.51215773356E+02  0.15641276625E+02 -0.62256873448E+02  0.82119566892E+02  0.00000000000E+00 0.  1.
         11    1    3    3    0    0 -0.35120309910E+02  0.20298725255E+02 -0.11312674378E+03  0.12017959300E+03  0.00000000000E+00 0. -1.
          2    1    1    2  501    0 -0.25710689120E+02  0.21884259512E+02 -0.12158411691E+03  0.12618501430E+03  0.00000000000E+00 0. -1.
<scales pt_clust_5="13000.00000" pt_clust_6="13000.00000" pt_clust_7="13000.00000" pt_clust_8="13000.00000" pt_clust_9="33.76332"></scales>
<clustering>
<clus scale="   33.763">  1  9  2 -1</clus>
<clus scale="   91.024">  5  6 -1 -1</clus>
<clus scale="   92.816">  7  8 -1 -1</clus>
<clus scale="  101.303">  1  5  2 -1</clus>
<clus scale="   33.763">  1  5  2 -1</clus>
</clustering>
</event>
<event>
 9    1  0.1636528E-005  0.9623118E+02  0.7546771E-02  0.1289598E+00
         -1   -1    0    0    0  501 -0.00000000000E+00  0.00000000000E+00  0.38931901159E+03  0.38931901159E+03  0.00000000000E+00 0.  1.
         21   -1    0    0  501  502  0.00000000000E+00 -0.00000000000E+00 -0.59264470984E+02  0.59264470984E+02  0.00000000000E+00 0.  1.
         23    2    1    2    0    0  0.78469245108E+01 -0.20512068290E+02  0.24605913869E+03  0.26362028457E+03  0.92023016338E+02 0.  0.
         23    2    1    2    0    0  0.19968631725E+02  0.47327238627E+02  0.99286665516E+02  0.14341104677E+03  0.89834696070E+02 0.  0.
        -11    1    4    4    0    0  0.17052216521E+02 -0.18891120205E+02  0.17830836126E+01  0.25511407214E+02  0.00000000000E+00 0.  1.
         11    1    4    4    0    0  0.29164152037E+01  0.66218358832E+02  0.97503581903E+02  0.11789963956E+03  0.00000000000E+00 0. -1.
        -13    1    3    3    0    0 -0.42192120779E+01 -0.56351242722E+02  0.13728714090E+03  0.14846219506E+03  0.00000000000E+00 0.  1.
         13    1    3    3    0    0  0.12066136589E+02  0.35839174432E+02  0.10877199779E+03  0.11515808951E+03  0.00000000000E+00 0. -1.
         -1    1    1    2    0  502 -0.27815556236E+02 -0.26815170337E+02 -0.15291263602E+02  0.41552151225E+02  0.00000000000E+00 0.  1.
<scales pt_clust_5="13000.00000" pt_clust_6="13000.00000" pt_clust_7="13000.00000" pt_clust_8="13000.00000" pt_clust_9="38.63623"></scales>
<clustering>
<clus scale="   38.636">  2  9  1 -1</clus>
<clus scale="   89.835">  5  6 -1 -1</clus>
<clus scale="   92.023">  7  8 -1 -1</clus>
<clus scale="   94.141">  2  5  1 -1</clus>
<clus scale="   38.636">  2  5  1 -1</clus>
</clustering>
</event>
<event>
 9    1  0.1636528E-005  0.1372603E+03  0.7546771E-02  0.1219452E+00
          1   -1    0    0  502    0 -0.00000000000E+00  0.00000000000E+00  0.79510990269E+02  0.79510990269E+02  0.00000000000E+00 0. -1.
         21   -1    0    0  501  502  0.00000000000E+00 -0.00000000000E+00 -0.79091732498E+03  0.79091732498E+03  0.00000000000E+00 0. -1.
         23    2    1    2    0    0  0.55273536702E+02 -0.37032786741E+02 -0.76437826796E+02  0.13707369005E+03  0.92303109288E+02 0.  0.
         23    2    1    2    0    0 -0.12551268278E+03  0.34352645881E+02 -0.98384932964E+02  0.19218676427E+03  0.10160029287E+03 0.  0.
        -11    1    4    4    0    0 -0.11283468731E+02 -0.24894424258E+02 -0.45468635768E+02  0.53051351202E+02  0.00000000000E+00 0.  1.
         11    1    4    4    0    0 -0.11422921405E+03  0.59247070139E+02 -0.52916297195E+02  0.13913541307E+03  0.00000000000E+00 0. -1.
        -11    1    3    3    0    0  0.58915843569E+02 -0.63756946804E+02 -0.58076206723E+02  0.10444553928E+03  0.00000000000E+00 0.  1.
         11    1    3    3    0    0 -0.36423068668E+01  0.26724160063E+02 -0.18361620073E+02  0.32628150761E+02  0.00000000000E+00 0. -1.
          1    1    1    2  501    0  0.70239146074E+02  0.26801408599E+01 -0.53658357495E+03  0.54116786093E+03  0.00000000000E+00 0. -1.
<scales pt_clust_5="13000.00000" pt_clust_6="13000.00000" pt_clust_7="13000.00000" pt_clust_8="13000.00000" pt_clust_9="70.29026"></scales>
<clustering>
<clus scale="   70.290">  2  9  1 -1</clus>
<clus scale="   92.303">  7  8 -1 -1</clus>
<clus scale="  101.600">  5  6 -1 -1</clus>
<clus scale="  130.528">  1  7  2 -1</clus>
<clus scale="   70.290">  2  5  1 -1</clus>
</clustering>
</event>
<event>
 9    1  0.1636528E-005  0.9257699E+02  0.7546771E-02  0.1297221E+00
         21   -1    0    0  501  502  0.00000000000E+00  0.00000000000E+00  0.36525448017E+02  0.36525448017E+02  0.00000000000E+00 0. -1.
         -1   -1    0    0    0  501 -0.00000000000E+00 -0.00000000000E+00 -0.30357457112E+03  0.30357457112E+03  0.00000000000E+00 0.  1.
         23    2    1    2    0    0  0.88193184651E+00 -0.15295932153E+02 -0.15669461380E+03  0.18219158861E+03  0.91683311590E+02 0.  0.
         23    2    1    2    0    0  0.16831440778E+02  0.51351824439E+01 -0.90779641839E+02  0.12962098029E+03  0.90834947359E+02 0.  0.
        -11    1    3    3    0    0 -0.15740484610E+02  0.34527986763E+02 -0.87051190273E+02  0.94962384414E+02  0.00000000000E+00 0.  1.
         11    1    3    3    0    0  0.16622416457E+02 -0.49823918916E+02 -0.69643423523E+02  0.87229204198E+02  0.00000000000E+00 0. -1.
        -13    1    4    4    0    0 -0.11994538169E+02  0.43140728097E+02 -0.45997810320E+02  0.64193379105E+02  0.00000000000E+00 0.  1.
         13    1    4    4    0    0  0.28825978948E+02 -0.38005545654E+02 -0.44781831519E+02  0.65427601186E+02  0.00000000000E+00 0. -1.
         -1    1    1    2    0  502 -0.17713372625E+02  0.10160749709E+02 -0.19574867469E+02  0.28287450236E+02  0.00000000000E+00 0.  1.
<scales pt_clust_5="13000.00000" pt_clust_6="13000.00000" pt_clust_7="13000.00000" pt_clust_8="13000.00000" pt_clust_9="20.42069"></scales>
<clustering>
<clus scale="   20.421">  1  9  2 -1</clus>
<clus scale="   90.835">  7  8 -1 -1</clus>
<clus scale="   91.683">  5  6 -1 -1</clus>
<clus scale="   91.737">  1  7  2 -1</clus>
<clus scale="   20.421">  1  5  2 -1</clus>
</clustering>
</event>
<event>
 9    1  0.1636528E-005  0.1412153E+03  0.7546771E-02  0.1211963E+00
         21   -1    0    0  501  502  0.00000000000E+00  0.00000000000E+00  0.11576335250E+03  0.11576335250E+03  0.00000000000E+00 0.  1.
          2   -1    0    0  502    0 -0.00000000000E+00 -0.00000000000E+00 -0.40059371273E+03  0.40059371273E+03  0.00000000000E+00 0. -1.
         23    2    1    2    0    0 -0.27113604974E+02  0.89440697680E+02 -0.21345274461E+03  0.25006765362E+03  0.90757761261E+02 0.  0.
         23    2    1    2    0    0  0.54616509675E+02 -0.15377482086E+03 -0.58781135165E+02  0.19519819913E+03  0.89540250333E+02 0.  0.
        -11    1    4    4    0    0  0.77147662472E+02 -0.12193576711E+03 -0.31753458881E+02  0.14774429017E+03  0.00000000000E+00 0.  1.
         11    1    4    4    0    0 -0.22531152796E+02 -0.31839053753E+02 -0.27027676284E+02  0.47453908959E+02  0.00000000000E+00 0. -1.
        -13    1    3    3    0    0 -0.56574155955E+02  0.72917828284E+02 -0.18127468482E+03  0.20341621410E+03  0.00000000000E+00 0. -1.
         13    1    3    3    0    0  0.29460550981E+02  0.16522869396E+02 -0.32178059798E+02  0.46651439523E+02  0.00000000000E+00 0.  1.
          2    1    1    2  501    0 -0.27502904702E+02  0.64334123185E+02 -0.12596480455E+02  0.71091212487E+02  0.00000000000E+00 0. -1.
<scales pt_clust_5="13000.00000" pt_clust_6="13000.00000" pt_clust_7="13000.00000" pt_clust_8="13000.00000" pt_clust_9="69.96634"></scales>
<clustering>
<clus scale="   69.966">  1  9  2 -1</clus>
<clus scale="   89.540">  5  6 -1 -1</clus>
<clus scale="   90.758">  7  8 -1 -1</clus>
<clus scale="  140.436">  1  5  2 -1</clus>
<clus scale="   69.966">  1  5  2 -1</clus>
</clustering>
</event>
<event>
 9    1  0.1636528E-005  0.2965778E+03  0.7546771E-02  0.1087110E+00
         21   -1    0    0  501  502  0.00000000000E+00  0.00000000000E+00  0.76988870723E+03  0.76988870723E+03  0.00000000000E+00 0. -1.
          2   -1    0    0  502    0 -0.00000000000E+00 -0.00000000000E+00 -0.20398854278E+03  0.20398854278E+03  0.00000000000E+00 0. -1.
         23    2    1    2    0    0 -0.55780530449E+02  0.30369653393E+03  0.11687804916E+03  0.34286312307E+03  0.92474810023E+02 0.  0.
         23    2    1    2    0    0 -0.58620355985E+02 -0.23639696953E+03  0.42247580218E+03  0.49565718798E+03  0.88715112785E+02 0.  0.
        -11    1    3    3    0    0 -0.19544161514E+01  0.94309581112E+02 -0.53999557685E+01  0.94484265115E+02  0.00000000000E+00 0.  1.
         11    1    3    3    0    0 -0.53826114297E+02  0.20938695282E+03  0.12227800493E+03  0.24837885796E+03  0.00000000000E+00 0. -1.
        -11    1    4    4    0    0 -0.33177252555E+02 -0.16109297261E+03  0.19729833069E+03  0.25686242856E+03  0.00000000000E+00 0.  1.
         11    1    4    4    0    0 -0.25443103430E+02 -0.75303996919E+02  0.22517747148E+03  0.23879475942E+03  0.00000000000E+00 0. -1.
          2    1    1    2  501    0  0.11440088643E+03 -0.67299564397E+02  0.26546313114E+02  0.13535693896E+03  0.00000000000E+00 0. -1.
<scales pt_clust_5="13000.00000" pt_clust_6="13000.00000" pt_clust_7="13000.00000" pt_clust_8="13000.00000" pt_clust_9="132.72834"></scales>
<clustering>
<clus scale="   88.715">  7  8 -1 -1</clus>
<clus scale="   92.475">  5  6 -1 -1</clus>
<clus scale="  132.728">  1  9  2 -1</clus>
<clus scale="  295.427">  1  7  2 -1</clus>
<clus scale="  132.728">  1  5  2 -1</clus>
</clustering>
</event>
<event>
 9    1  0.1636528E-005  0.1127581E+03  0.7546771E-02  0.1255675E+00
         -4   -1    0    0    0  501 -0.00000000000E+00  0.00000000000E+00  0.44113367410E+02  0.44113367410E+02  0.00000000000E+00 0.  1.
         21   -1    0    0  501  502  0.00000000000E+00 -0.00000000000E+00 -0.71074169911E+03  0.71074169911E+03  0.00000000000E+00 0.  1.
         23    2    1    2    0    0 -0.27773685615E+02 -0.63846829120E+02 -0.56608798819E+02  0.12770124216E+03  0.90858439043E+02 0.  0.
         23    2    1    2    0    0  0.47049312079E+02  0.34020548382E+02 -0.41067691152E+03  0.42467262155E+03  0.91215537931E+02 0.  0.
        -13    1    3    3    0    0 -0.52826998055E+02 -0.32209869101E+02 -0.48395666735E+01  0.62061169797E+02  0.00000000000E+00 0.  1.
         13    1    3    3    0    0  0.25053312440E+02 -0.31636960019E+02 -0.51769232146E+02  0.65640072368E+02  0.00000000000E+00 0. -1.
        -13    1    4    4    0    0 -0.23569969987E+02 -0.60436294529E+01 -0.13933408263E+03  0.14144276413E+03  0.00000000000E+00 0. -1.
         13    1    4    4    0    0  0.70619282066E+02  0.40064177835E+02 -0.27134282889E+03  0.28322985742E+03  0.00000000000E+00 0.  1.
         -4    1    1    2    0  502 -0.19275626464E+02  0.29826280738E+02 -0.19934262135E+03  0.20248120280E+03  0.00000000000E+00 0.  1.
<scales pt_clust_5="13000.00000" pt_clust_6="13000.00000" pt_clust_7="13000.00000" pt_clust_8="13000.00000" pt_clust_9="35.51277"></scales>
<clustering>
<clus scale="   35.513">  2  9  1 -1</clus>
<clus scale="   90.858">  5  6 -1 -1</clus>
<clus scale="   91.216">  7  8 -1 -1</clus>
<clus scale="  112.469">  1  5  2 -1</clus>
<clus scale="   35.513">  2  5  1 -1</clus>
</clustering>
</event>
<event>
 9    1  0.1636528E-005  0.1005210E+03  0.7546771E-02  0.1280199E+00
         21   -1    0    0  501  502  0.00000000000E+00  0.00000000000E+00  0.57938097234E+02  0.57938097234E+02  0.00000000000E+00 0. -1.
         -3   -1    0    0    0  501 -0.00000000000E+00 -0.00000000000E+00 -0.41054121811E+03  0.41054121811E+03  0.00000000000E+00 0.  1.
         23    2    1    2    0    0 -0.37962463289E+02 -0.14140585240E+02 -0.31606221500E+03  0.33153527615E+03  0.91538029311E+02 0.  0.
         23    2    1    2    0    0  0.50956920590E+02 -0.20070874752E+01 -0.10280693024E+02  0.10348956216E+03  0.89463739421E+02 0.  0.
        -11    1    3    3    0    0 -0.41679156792E+02  0.25336287969E+02 -0.24812203003E+03  0.25287076025E+03  0.00000000000E+00 0.  1.
         11    1    3    3    0    0  0.37166935036E+01 -0.39476873209E+02 -0.67940184964E+02  0.78664515900E+02  0.00000000000E+00 0. -1.
        -13    1    4    4    0    0 -0.22729723774E+02 -0.10301981160E+02 -0.15122150844E+02  0.29179626536E+02  0.00000000000E+00 0.  1.
         13    1    4    4    0    0  0.73686644363E+02  0.82948936845E+01  0.48414578197E+01  0.74309935625E+02  0.00000000000E+00 0. -1.
         -3    1    1    2    0  502 -0.12994457301E+02  0.16147672715E+02 -0.26260212855E+02  0.33454477038E+02  0.00000000000E+00 0.  1.
<scales pt_clust_5="13000.00000" pt_clust_6="13000.00000" pt_clust_7="13000.00000" pt_clust_8="13000.00000" pt_clust_9="20.72688"></scales>
<clustering>
<clus scale="   20.727">  1  9  2 -1</clus>
<clus scale="   89.464">  7  8 -1 -1</clus>
<clus scale="   91.538">  5  6 -1 -1</clus>
<clus scale="   98.636">  1  7  2 -1</clus>
<clus scale="   20.727">  1  5  2 -1</clus>
</clustering>
</event>
<event>
 9    1  0.1636528E-005  0.1092687E+03  0.7546771E-02  0.1262745E+00
         21   -1    0    0  501  502  0.00000000000E+00  0.00000000000E+00  0.27677292010E+03  0.27677292010E+03  0.00000000000E+00 0. -1.
         -2   -1    0    0    0  501 -0.00000000000E+00 -0.00000000000E+00 -0.69265154485E+02  0.69265154485E+02  0.00000000000E+00 0.  1.
         23    2    1    2    0    0 -0.42630717192E+02  0.26403911156E+01  0.15667328676E+02  0.10819615773E+03  0.98166153266E+02 0.  0.
         23    2    1    2    0    0  0.63384989852E+02 -0.12362937802E+02  0.17268536032E+03  0.20797245572E+03  0.96238295397E+02 0.  0.
        -11    1    4    4    0    0  0.32657727474E+02 -0.11958561426E+02  0.23176639029E+01  0.34855500586E+02  0.00000000000E+00 0.  1.
         11    1    4    4    0    0  0.30727262378E+02 -0.40437637621E+00  0.17036769641E+03  0.17311695513E+03  0.00000000000E+00 0. -1.
        -13    1    3    3    0    0  0.30814322632E+02  0.55640824034E+01  0.14928548330E+02  0.34689235326E+02  0.00000000000E+00 0. -1.
         13    1    3    3    0    0 -0.73445039824E+02 -0.29236912878E+01  0.73878034606E+00  0.73506922408E+02  0.00000000000E+00 0.  1.
         -2    1    1    2    0  502 -0.20754272659E+02  0.97225466862E+01  0.19155076616E+02  0.29869461124E+02  0.00000000000E+00 0.  1.
<scales pt_clust_5="13000.00000" pt_clust_6="13000.00000" pt_clust_7="13000.00000" pt_clust_8="13000.00000" pt_clust_9="22.91872"></scales>
<clustering>
<clus scale="   22.919">  1  9  2 -1</clus>
<clus scale="   96.238">  5  6 -1 -1</clus>
<clus scale="   98.166">  7  8 -1 -1</clus>
<clus scale="  107.540">  1  5  2 -1</clus>
<clus scale="   22.919">  1  5  2 -1</clus>
</clustering>
</event>
<event>
 9    1  0.1636528E-005  0.9696473E+02  0.7546771E-02  0.1289175E+00
         -3   -1    0    0    0  501 -0.00000000000E+00  0.00000000000E+00  0.53684076449E+02  0.53684076449E+02  0.00000000000E+00 0.  1.
         21   -1    0    0  501  502  0.00000000000E+00 -0.00000000000E+00 -0.55356356292E+03  0.55356356292E+03  0.00000000000E+00 0. -1.
         23    2    1    2    0    0  0.17519294064E+01 -0.21543936813E+02 -0.51281533618E+01  0.93652774071E+02  0.90979853068E+02 0.  0.
         23    2    1    2    0    0  0.12752483777E+02 -0.11584466074E+02 -0.41309628494E+03  0.42428968084E+03  0.95269968715E+02 0.  0.
        -11    1    3    3    0    0  0.44734065672E+02 -0.21717319385E+01  0.60669782000E+01  0.45195810377E+02  0.00000000000E+00 0.  1.
         11    1    3    3    0    0 -0.42982136266E+02 -0.19372204875E+02 -0.11195131562E+02  0.48456963693E+02  0.00000000000E+00 0. -1.
        -11    1    4    4    0    0  0.51489142434E+02  0.82651445951E+01 -0.19238529404E+03  0.19932773456E+03  0.00000000000E+00 0.  1.
         11    1    4    4    0    0 -0.38736658658E+02 -0.19849610669E+02 -0.22071099091E+03  0.22496194628E+03  0.00000000000E+00 0. -1.
         -3    1    1    2    0  502 -0.14504413183E+02  0.33128402887E+02 -0.81655048163E+02  0.89305184452E+02  0.00000000000E+00 0.  1.
<scales pt_clust_5="13000.00000" pt_clust_6="13000.00000" pt_clust_7="13000.00000" pt_clust_8="13000.00000" pt_clust_9="36.16447"></scales>
<clustering>
<clus scale="   36.164">  2  9  1 -1</clus>
<clus scale="   90.980">  5  6 -1 -1</clus>
<clus scale="   92.753">  1  5  2 -1</clus>
<clus scale="   95.270">  7  8 -1 -1</clus>
<clus scale="   36.164">  2  5  1 -1</clus>
</clustering>
</event>
<event>
 9    1  0.1636528E-005  0.9240865E+02  0.7546771E-02  0.1297150E+00
          2   -1    0    0  502    0 -0.00000000000E+00  0.00000000000E+00  0.87084589753E+03  0.87084589753E+03  0.00000000000E+00 0. -1.
         21   -1    0    0  501  502  0.00000000000E+00 -0.00000000000E+00 -0.12794924016E+02  0.12794924016E+02  0.00000000000E+00 0.  1.
         23    2    1    2    0    0  0.24908231361E+02  0.11848905756E+02  0.36771700336E+03  0.37966310074E+03  0.90373994861E+02 0.  0.
         23    2    1    2    0    0 -0.38213107464E+01 -0.13660614373E+02  0.33671348256E+03  0.34890614147E+03  0.90323371371E+02 0.  0.
        -11    1    4    4    0    0  0.36927484178E+02  0.85062438538E+01  0.86611214751E+02  0.94538340332E+02  0.00000000000E+00 0.  1.
         11    1    4    4    0    0 -0.40748794924E+02 -0.22166858227E+02  0.25010226781E+03  0.25436780114E+03  0.00000000000E+00 0. -1.
        -13    1    3    3    0    0  0.40382064754E+02  0.43346632464E+02  0.22029948059E+03  0.22812606788E+03  0.00000000000E+00 0. -1.
         13    1    3    3    0    0 -0.15473833393E+02 -0.31497726708E+02  0.14741752277E+03  0.15153703286E+03  0.00000000000E+00 0.  1.
          2    1    1    2  501    0 -0.21086920614E+02  0.18117086174E+01  0.15362048759E+03  0.15507157933E+03  0.00000000000E+00 0. -1.
<scales pt_clust_5="13000.00000" pt_clust_6="13000.00000" pt_clust_7="13000.00000" pt_clust_8="13000.00000" pt_clust_9="21.16462"></scales>
<clustering>
<clus scale="   21.165">  2  9  1 -1</clus>
<clus scale="   90.323">  5  6 -1 -1</clus>
<clus scale="   90.374">  7  8 -1 -1</clus>
<clus scale="   92.359">  2  5  1 -1</clus>
<clus scale="   21.165">  2  5  1 -1</clus>
</clustering>
</event>
<event>
 9    1  0.1636528E-005  0.9470385E+02  0.7546771E-02  0.1292489E+00
         21   -1    0    0  501  502  0.00000000000E+00  0.00000000000E+00  0.13730007562E+03  0.13730007562E+03  0.00000000000E+00 0.  1.
          2   -1    0    0  502    0 -0.00000000000E+00 -0.00000000000E+00 -0.17117179757E+03  0.17117179757E+03  0.00000000000E+00 0. -1.
         23    2    1    2    0    0  0.11529718271E+02  0.14976188859E+02 -0.46715775578E+02  0.10462146077E+03  0.91684599200E+02 0.  0.
         23    2    1    2    0    0 -0.55836861987E+02  0.73520907124E+01  0.70482326669E+02  0.12779881433E+03  0.90515027348E+02 0.  0.
        -11    1    4    4    0    0 -0.69491789658E+02  0.31685354782E+02  0.62744462908E+02  0.98842997543E+02  0.00000000000E+00 0.  1.
         11    1    4    4    0    0  0.13654927671E+02 -0.24333264070E+02  0.77378637612E+01  0.28955816783E+02  0.00000000000E+00 0. -1.
        -13    1    3    3    0    0 -0.39363718171E+02  0.13673312908E+02 -0.28784067538E+02  0.50645674427E+02  0.00000000000E+00 0.  1.
         13    1    3    3    0    0  0.50893436442E+02  0.13028759508E+01 -0.17931708040E+02  0.53975786347E+02  0.00000000000E+00 0. -1.
          2    1    1    2  501    0  0.44307143717E+02 -0.22328279571E+02 -0.57638273038E+02  0.76051598088E+02  0.00000000000E+00 0. -1.
<scales pt_clust_5="13000.00000" pt_clust_6="13000.00000" pt_clust_7="13000.00000" pt_clust_8="13000.00000" pt_clust_9="49.61530"></scales>
<clustering>
<clus scale="   49.615">  1  9  2 -1</clus>
<clus scale="   90.515">  5  6 -1 -1</clus>
<clus scale="   91.685">  7  8 -1 -1</clus>
<clus scale="   93.572">  1  5  2 -1</clus>
<clus scale="   49.615">  1  5  2 -1</clus>
</clustering>
</event>
<event>
 9    1  0.1636528E-005  0.1025486E+03  0.7546771E-02  0.1275954E+00
         21   -1    0    0  501  502  0.00000000000E+00  0.00000000000E+00  0.15643570611E+03  0.15643570611E+03  0.00000000000E+00 0. -1.
          1   -1    0    0  502    0 -0.00000000000E+00 -0.00000000000E+00 -0.35059769171E+03  0.35059769171E+03  0.00000000000E+00 0. -1.
         23    2    1    2    0    0 -0.37199515389E+02  0.21454171733E+02 -0.28869216780E+03  0.30575136446E+03  0.91085913772E+02 0.  0.
         23    2    1    2    0    0  0.55762862726E+02  0.13758162412E+02  0.12479802085E+02  0.11008570000E+03  0.93082393566E+02 0.  0.
        -11    1    3    3    0    0 -0.36906440212E+02  0.55501575749E+02 -0.19146864269E+03  0.20273813498E+03  0.00000000000E+00 0. -1.
         11    1    3    3    0    0 -0.29307517702E+00 -0.34047404015E+02 -0.97223525112E+02  0.10301322948E+03  0.00000000000E+00 0.  1.
        -13    1    4    4    0    0 -0.10326613323E+02 -0.19736745178E+02 -0.19292287450E+02  0.29468125288E+02  0.00000000000E+00 0.  1.
         13    1    4    4    0    0  0.66089476049E+02  0.33494907590E+02  0.31772089535E+02  0.80617574711E+02  0.00000000000E+00 0. -1.
          1    1    1    2  501    0 -0.18563347336E+02 -0.35212334145E+02  0.82050380125E+02  0.91196333363E+02  0.00000000000E+00 0. -1.
<scales pt_clust_5="13000.00000" pt_clust_6="13000.00000" pt_clust_7="13000.00000" pt_clust_8="13000.00000" pt_clust_9="39.80586"></scales>
<clustering>
<clus scale="   39.806">  1  9  2 -1</clus>
<clus scale="   91.086">  5  6 -1 -1</clus>
<clus scale="   93.082">  7  8 -1 -1</clus>
<clus scale="  100.740">  2  5  1 -1</clus>
<clus scale="   39.806">  1  5  2 -1</clus>
</clustering>
</event>
<event>
 9    1  0.1636528E-005  0.9659748E+02  0.7546771E-02  0.1288160E+00
          2   -1    0    0  502    0 -0.00000000000E+00  0.00000000000E+00  0.11368083429E+03  0.11368083429E+03  0.00000000000E+00 0. -1.
         21   -1    0    0  501  502  0.00000000000E+00 -0.00000000000E+00 -0.27227589036E+03  0.27227589036E+03  0.00000000000E+00 0.  1.
         23    2    1    2    0    0 -0.17460793418E+02  0.16375472077E+02  0.14543240405E+02  0.95587273232E+02  0.91391386738E+02 0.  0.
         23    2    1    2    0    0  0.52044521263E+02  0.57874012969E+02 -0.26135711980E+02  0.12208760417E+03  0.90356372668E+02 0.  0.
        -11    1    3    3    0    0  0.28303620731E+02 -0.20470800851E+02  0.11421207078E+02  0.36750409590E+02  0.00000000000E+00 0.  1.
         11    1    3    3    0    0 -0.45764414149E+02  0.36846272928E+02  0.31220333271E+01  0.58836863641E+02  0.00000000000E+00 0. -1.
        -13    1    4    4    0    0  0.13219575187E+02  0.43870984996E+02  0.28239298136E+02  0.53822657421E+02  0.00000000000E+00 0. -1.
         13    1    4    4    0    0  0.38824946076E+02  0.14003027973E+02 -0.54375010116E+02  0.68264946754E+02  0.00000000000E+00 0.  1.
          2    1    1    2  501    0 -0.34583727845E+02 -0.74249485045E+02 -0.14700258450E+03  0.16828184724E+03  0.00000000000E+00 0. -1.
<scales pt_clust_5="13000.00000" pt_clust_6="13000.00000" pt_clust_7="13000.00000" pt_clust_8="13000.00000" pt_clust_9="81.90861"></scales>
<clustering>
<clus scale="   81.909">  2  9  1 -1</clus>
<clus scale="   90.356">  7  8 -1 -1</clus>
<clus scale="   91.391">  5  6 -1 -1</clus>
<clus scale="   95.619">  2  7  1 -1</clus>
<clus scale="   81.909">  2  5  1 -1</clus>
</clustering>
</event>
<event>
 9    1  0.1636528E-005  0.2341780E+03  0.7546771E-02  0.1165084E+00
          1   -1    0    0  502    0 -0.00000000000E+00  0.00000000000E+00  0.72971086231E+03  0.72971086231E+03  0.00000000000E+00 0. -1.
         21   -1    0    0  501  502  0.00000000000E+00 -0.00000000000E+00 -0.20668475356E+03  0.20668475356E+03  0.00000000000E+00 0. -1.
         23    2    1    2    0    0  0.57735780041E+01 -0.10485857922E+02  0.14409717026E+03  0.16833528764E+03  0.86194472960E+02 0.  0.
         23    2    1    2    0    0 -0.51365723397E+02 -0.19537404782E+03  0.48237176531E+03  0.53320428098E+03  0.10399437091E+03 0.  0.
        -11    1    4    4    0    0 -0.19106365849E+02 -0.13122865331E+03  0.18711441180E+03  0.22934213693E+03  0.00000000000E+00 0.  1.
         11    1    4    4    0    0 -0.32259357548E+02 -0.64145394504E+02  0.29525735351E+03  0.30386214405E+03  0.00000000000E+00 0. -1.
        -11    1    3    3    0    0  0.17411276396E+02 -0.32364776287E+02  0.13800682094E+03  0.14281636432E+03  0.00000000000E+00 0. -1.
         11    1    3    3    0    0 -0.11637698392E+02  0.21878918366E+02  0.60903493138E+01  0.25518923321E+02  0.00000000000E+00 0.  1.
          1    1    1    2  501    0  0.45592145393E+02  0.20585990574E+03 -0.10344282682E+03  0.23485604726E+03  0.00000000000E+00 0. -1.
<scales pt_clust_5="13000.00000" pt_clust_6="13000.00000" pt_clust_7="13000.00000" pt_clust_8="13000.00000" pt_clust_9="209.82018"></scales>
<clustering>
<clus scale="   86.194">  7  8 -1 -1</clus>
<clus scale="   87.022">  1  7  2 -1</clus>
<clus scale="  103.994">  5  6 -1 -1</clus>
<clus scale="  209.820">  2  9  1 -1</clus>
<clus scale="  209.820">  2  5  1 -1</clus>
</clustering>
</event>
<event>
 9    1  0.1636528E-005  0.1044373E+03  0.7546771E-02  0.1272189E+00
          1   -1    0    0  502    0 -0.00000000000E+00  0.00000000000E+00  0.10593932457E+03  0.10593932457E+03  0.00000000000E+00 0. -1.
         21   -1    0    0  501  502  0.00000000000E+00 -0.00000000000E+00 -0.19906325924E+03  0.19906325924E+03  0.00000000000E+00 0. -1.
         23    2    1    2    0    0 -0.13117022250E+02 -0.15669873377E+02 -0.15950956489E+02  0.94879133172E+02  0.91268919651E+02 0.  0.
         23    2    1    2    0    0  0.63815675335E+02  0.49908184075E+02 -0.17887270739E+02  0.12493301426E+03  0.93407902992E+02 0.  0.
        -11    1    4    4    0    0 -0.12673859753E+02 -0.16930469914E+02  0.26056847151E+01  0.21308616224E+02  0.00000000000E+00 0.  1.
         11    1    4    4    0    0  0.76489535088E+02  0.66838653988E+02 -0.20492955454E+02  0.10362439804E+03  0.00000000000E+00 0. -1.
        -11    1    3    3    0    0 -0.40662251473E+02  0.50392526524E+01 -0.36400320183E+02  0.54806898029E+02  0.00000000000E+00 0.  1.
         11    1    3    3    0    0  0.27545229223E+02 -0.20709126030E+02  0.20449363694E+02  0.40072235143E+02  0.00000000000E+00 0. -1.
          1    1    1    2  501    0 -0.50698653085E+02 -0.34238310697E+02 -0.59285707434E+02  0.85190436376E+02  0.00000000000E+00 0. -1.
<scales pt_clust_5="13000.00000" pt_clust_6="13000.00000" pt_clust_7="13000.00000" pt_clust_8="13000.00000" pt_clust_9="61.17692"></scales>
<clustering>
<clus scale="   61.177">  2  9  1 -1</clus>
<clus scale="   91.269">  7  8 -1 -1</clus>
<clus scale="   93.408">  5  6 -1 -1</clus>
<clus scale="  102.529">  1  7  2 -1</clus>
<clus scale="   61.177">  2  5  1 -1</clus>
</clustering>
</event>
<event>
 9    1  0.1636528E-005  0.1828697E+03  0.7546771E-02  0.1195938E+00
          3   -1    0    0  502    0 -0.00000000000E+00  0.00000000000E+00  0.28250101345E+03  0.28250101345E+03  0.00000000000E+00 0. -1.
         21   -1    0    0  501  502  0.00000000000E+00 -0.00000000000E+00 -0.38353836845E+03  0.38353836845E+03  0.00000000000E+00 0. -1.
         23    2    1    2    0    0  0.18070826680E+02 -0.11688621491E+02 -0.39755718076E+02  0.99653535806E+02  0.88809523304E+02 0.  0.
         23    2    1    2    0    0 -0.16967142789E+03  0.49412508967E+02  0.18686819769E+03  0.27315526381E+03  0.92000463868E+02 0.  0.
        -13    1    4    4    0    0 -0.88748487567E+02  0.38841097338E+02  0.39340637807E+02  0.10455912524E+03  0.00000000000E+00 0. -1.
         13    1    4    4    0    0 -0.80922940327E+02  0.10571411629E+02  0.14752755988E+03  0.16859613857E+03  0.00000000000E+00 0.  1.
        -13    1    3    3    0    0  0.42851111883E+02 -0.24854476541E+02  0.17314464127E+01  0.49567738505E+02  0.00000000000E+00 0.  1.
         13    1    3    3    0    0 -0.24780285203E+02  0.13165855050E+02 -0.41487164489E+02  0.50085797301E+02  0.00000000000E+00 0. -1.
          3    1    1    2  501    0  0.15160060121E+03 -0.37723887476E+02 -0.24814983461E+03  0.29323058229E+03  0.00000000000E+00 0. -1.
<scales pt_clust_5="13000.00000" pt_clust_6="13000.00000" pt_clust_7="13000.00000" pt_clust_8="13000.00000" pt_clust_9="158.04190"></scales>
<clustering>
<clus scale="   88.810">  7  8 -1 -1</clus>
<clus scale="   91.380">  1  7  2 -1</clus>
<clus scale="   92.000">  5  6 -1 -1</clus>
<clus scale="  158.042">  2  9  1 -1</clus>
<clus scale="  158.042">  2  5  1 -1</clus>
</clustering>
</event>
<event>
 9    1  0.1636528E-005  0.2199322E+03  0.7546771E-02  0.1133991E+00
          1   -1    0    0  502    0 -0.00000000000E+00  0.00000000000E+00  0.99339516636E+03  0.99339516636E+03  0.00000000000E+00 0. -1.
         21   -1    0    0  501  502  0.00000000000E+00 -0.00000000000E+00 -0.84678351347E+02  0.84678351347E+02  0.00000000000E+00 0. -1.
         23    2    1    2    0    0 -0.14364767426E+03 -0.61322680607E+02  0.29673146839E+03  0.34734408815E+03  0.90571660899E+02 0.  0.
         23    2    1    2    0    0  0.24687535161E+03  0.73893289384E+02  0.53678090977E+03  0.60239517499E+03  0.91315630114E+02 0.  0.
        -11    1    4    4    0    0  0.14623467697E+03  0.13899543004E+01  0.33515433497E+03  0.36567053610E+03  0.00000000000E+00 0. -1.
         11    1    4    4    0    0  0.10064067464E+03  0.72503335084E+02  0.20162657480E+03  0.23672463888E+03  0.00000000000E+00 0.  1.
        -11    1    3    3    0    0  0.19074880049E+01 -0.25762013882E+02  0.20067385796E+02  0.32711157767E+02  0.00000000000E+00 0. -1.
         11    1    3    3    0    0 -0.14555516226E+03 -0.35560666725E+02  0.27666408260E+03  0.31463293038E+03  0.00000000000E+00 0.  1.
          1    1    1    2  501    0 -0.10322767735E+03 -0.12570608777E+02  0.75204436850E+02  0.12833425458E+03  0.00000000000E+00 0. -1.
<scales pt_clust_5="13000.00000" pt_clust_6="13000.00000" pt_clust_7="13000.00000" pt_clust_8="13000.00000" pt_clust_9="103.99026"></scales>
<clustering>
<clus scale="   90.572">  7  8 -1 -1</clus>
<clus scale="   91.316">  5  6 -1 -1</clus>
<clus scale="  103.990">  2  9  1 -1</clus>
<clus scale="  219.624">  1  7  2 -1</clus>
<clus scale="  103.990">  2  5  1 -1</clus>
</clustering>
</event>
<event>
 9    1  0.1636528E-005  0.1136985E+03  0.7546771E-02  0.1257009E+00
          1   -1    0    0  502    0 -0.00000000000E+00  0.00000000000E+00  0.13724578408E+03  0.13724578408E+03  0.00000000000E+00 0. -1.
         21   -1    0    0  501  502  0.00000000000E+00 -0.00000000000E+00 -0.21592649348E+03  0.21592649348E+03  0.00000000000E+00 0. -1.
         23    2    1    2    0    0  0.30683927289E+02  0.44245836200E+02  0.70452815074E+02  0.13124910324E+03  0.96765337469E+02 0.  0.
         23    2    1    2    0    0 -0.61026168766E+02 -0.65647243513E+02 -0.12575340198E+03  0.17804491112E+03  0.88613308316E+02 0.  0.
        -11    1    3    3    0    0 -0.27912289491E+02  0.22451072321E+02  0.56966405514E+02  0.67292777549E+02  0.00000000000E+00 0.  1.
         11    1    3    3    0    0  0.58596216781E+02  0.21794763879E+02  0.13486409560E+02  0.63956325695E+02  0.00000000000E+00 0. -1.
        -13    1    4    4    0    0  0.72269220015E+00 -0.45862829614E+02 -0.96629873557E+02  0.10696379709E+03  0.00000000000E+00 0.  1.
         13    1    4    4    0    0 -0.61748860966E+02 -0.19784413899E+02 -0.29123528425E+02  0.71081114031E+02  0.00000000000E+00 0. -1.
          1    1    1    2  501    0  0.30342241477E+02  0.21401407313E+02 -0.23380122493E+02  0.43878263190E+02  0.00000000000E+00 0. -1.
<scales pt_clust_5="13000.00000" pt_clust_6="13000.00000" pt_clust_7="13000.00000" pt_clust_8="13000.00000" pt_clust_9="37.13047"></scales>
<clustering>
<clus scale="   37.130">  2  9  1 -1</clus>
<clus scale="   88.613">  7  8 -1 -1</clus>
<clus scale="   96.765">  5  6 -1 -1</clus>
<clus scale="  106.846">  2  7  1 -1</clus>
<clus scale="   37.130">  2  5  1 -1</clus>
</clustering>
</event>
<event>
 9    1  0.1636528E-005  0.1996912E+03  0.7546771E-02  0.1150134E+00
         21   -1    0    0  501  502  0.00000000000E+00  0.00000000000E+00  0.92701840462E+02  0.92701840462E+02  0.00000000000E+00 0.  1.
          2   -1    0    0  502    0 -0.00000000000E+00 -0.00000000000E+00 -0.86115948788E+03  0.86115948788E+03  0.00000000000E+00 0. -1.
         23    2    1    2    0    0  0.99369379926E+02 -0.14129134505E+03 -0.63881538091E+03  0.66780573668E+03  0.89676603458E+02 0.  0.
         23    2    1    2    0    0 -0.12823892559E+03  0.15326675993E+03 -0.12919667808E+03  0.25479763624E+03  0.91072125658E+02 0.  0.
        -11    1    4    4    0    0 -0.81833417979E+01  0.45568158458E+02  0.28060108278E+01  0.46382085389E+02  0.00000000000E+00 0.  1.
         11    1    4    4    0    0 -0.12005558379E+03  0.10769860147E+03 -0.13200268891E+03  0.20841555085E+03  0.00000000000E+00 0. -1.
        -13    1    3    3    0    0 -0.29592625595E+01 -0.57748877096E+02 -0.26788194488E+03  0.27405186814E+03  0.00000000000E+00 0.  1.
         13    1    3    3    0    0  0.10232864249E+03 -0.83542467953E+02 -0.37093343603E+03  0.39375386854E+03  0.00000000000E+00 0. -1.
          2    1    1    2  501    0  0.28869545660E+02 -0.11975414881E+02 -0.44558843113E+00  0.31257955423E+02  0.00000000000E+00 0. -1.
<scales pt_clust_5="13000.00000" pt_clust_6="13000.00000" pt_clust_7="13000.00000" pt_clust_8="13000.00000" pt_clust_9="31.25478"></scales>
<clustering>
<clus scale="   31.255">  1  9  2 -1</clus>
<clus scale="   89.677">  7  8 -1 -1</clus>
<clus scale="   91.072">  5  6 -1 -1</clus>
<clus scale="  199.059">  2  7  1 -1</clus>
<clus scale="   31.255">  1  5  2 -1</clus>
</clustering>
</event>
<event>
 9    1  0.1636528E-005  0.1112473E+03  0.7546771E-02  0.1259005E+00
          3   -1    0    0  502    0 -0.00000000000E+00  0.00000000000E+00  0.15270141383E+03  0.15270141383E+03  0.00000000000E+00 0. -1.
         21   -1    0    0  501  502  0.00000000000E+00 -0.00000000000E+00 -0.17040134893E+03  0.17040134893E+03  0.00000000000E+00 0. -1.
         23    2    1    2    0    0 -0.10956072277E+02  0.70099852395E+02  0.77554653000E+02  0.14054593860E+03  0.93297437426E+02 0.  0.
         23    2    1    2    0    0  0.32694332931E+02 -0.30357967860E+02 -0.35833980243E+02  0.10783883435E+03  0.91403579996E+02 0.  0.
        -11    1    3    3    0    0 -0.46028313362E+02  0.36396561265E+02  0.13669422492E+02  0.60250878949E+02  0.00000000000E+00 0.  1.
         11    1    3    3    0    0  0.35072241086E+02  0.33703291130E+02  0.63885230508E+02  0.80295059654E+02  0.00000000000E+00 0. -1.
        -13    1    4    4    0    0  0.23729952296E+02 -0.58254897368E+02 -0.44766034982E+02  0.77205839102E+02  0.00000000000E+00 0. -1.
         13    1    4    4    0    0  0.89643806349E+01  0.27896929509E+02  0.89320547393E+01  0.30632995251E+02  0.00000000000E+00 0.  1.
          3    1    1    2  501    0 -0.21738260654E+02 -0.39741884536E+02 -0.59420607859E+02  0.74717989809E+02  0.00000000000E+00 0. -1.
<scales pt_clust_5="13000.00000" pt_clust_6="13000.00000" pt_clust_7="13000.00000" pt_clust_8="13000.00000" pt_clust_9="45.29867"></scales>
<clustering>
<clus scale="   45.299">  2  9  1 -1</clus>
<clus scale="   91.404">  7  8 -1 -1</clus>
<clus scale="   93.297">  5  6 -1 -1</clus>
<clus scale="  109.664">  2  7  1 -1</clus>
<clus scale="   45.299">  2  5  1 -1</clus>
</clustering>
</event>
<event>
 9    1  0.1636528E-005  0.9707755E+02  0.7546771E-02  0.1295056E+00
         21   -1    0    0  501  502  0.00000000000E+00  0.00000000000E+00  0.40643340081E+02  0.40643340081E+02  0.00000000000E+00 0.  1.
         -1   -1    0    0    0  501 -0.00000000000E+00 -0.00000000000E+00 -0.33353031192E+03  0.33353031192E+03  0.00000000000E+00 0.  1.
         23    2    1    2    0    0  0.22843853606E+01 -0.43006751015E+02 -0.19966114198E+03  0.22429341105E+03  0.92672345243E+02 0.  0.
         23    2    1    2    0    0  0.11958089305E+02  0.74768043789E+01 -0.66807132987E+02  0.10337032011E+03  0.77610125361E+02 0.  0.
        -11    1    3    3    0    0 -0.31278009984E+02 -0.11036596771E+00 -0.14024506086E+03  0.14369065100E+03  0.00000000000E+00 0. -1.
         11    1    3    3    0    0  0.33562395344E+02 -0.42896385047E+02 -0.59416081117E+02  0.80602760044E+02  0.00000000000E+00 0.  1.
        -13    1    4    4    0    0 -0.12734350944E+02 -0.27576299797E+02 -0.47419870673E+02  0.56313942671E+02  0.00000000000E+00 0.  1.
         13    1    4    4    0    0  0.24692440250E+02  0.35053104176E+02 -0.19387262314E+02  0.47056377441E+02  0.00000000000E+00 0. -1.
         -1    1    1    2    0  502 -0.14242474666E+02  0.35529946636E+02 -0.26418696876E+02  0.46509920847E+02  0.00000000000E+00 0.  1.
<scales pt_clust_5="13000.00000" pt_clust_6="13000.00000" pt_clust_7="13000.00000" pt_clust_8="13000.00000" pt_clust_9="38.27826"></scales>
<clustering>
<clus scale="   38.278">  1  9  2 -1</clus>
<clus scale="   77.610">  7  8 -1 -1</clus>
<clus scale="   82.820">  1  7  2 -1</clus>
<clus scale="   92.672">  5  6 -1 -1</clus>
<clus scale="   38.278">  1  5  2 -1</clus>
</clustering>
</event>
<event>
 9    1  0.1636528E-005  0.1044715E+03  0.7546771E-02  0.1271202E+00
         21   -1    0    0  501  502  0.00000000000E+00  0.00000000000E+00  0.74733151413E+02  0.74733151413E+02  0.00000000000E+00 0.  1.
         -1   -1    0    0    0  501 -0.00000000000E+00 -0.00000000000E+00 -0.58211372829E+03  0.58211372829E+03  0.00000000000E+00 0.  1.
         23    2    1    2    0    0 -0.67961390370E+01  0.22702622133E+02 -0.20686403517E+03  0.22683196639E+03  0.89991196082E+02 0.  0.
         23    2    1    2    0    0  0.31962626720E+02 -0.79730322956E+02 -0.33601343885E+03  0.35828249058E+03  0.89904271679E+02 0.  0.
        -11    1    4    4    0    0  0.54493361588E+02 -0.17745358312E+02 -0.13291875812E+03  0.14474743679E+03  0.00000000000E+00 0.  1.
         11    1    4    4    0    0 -0.22530734869E+02 -0.61984964644E+02 -0.20309468073E+03  0.21353505379E+03  0.00000000000E+00 0. -1.
        -11    1    3    3    0    0  0.36361954014E+02  0.13184215414E+02 -0.46470214730E+02  0.60460698746E+02  0.00000000000E+00 0.  1.
         11    1    3    3    0    0 -0.43158093051E+02  0.95184067191E+01 -0.16039382044E+03  0.16637126765E+03  0.00000000000E+00 0. -1.
         -1    1    1    2    0  502 -0.25166487683E+02  0.57027700823E+02  0.35496897144E+02  0.71732422727E+02  0.00000000000E+00 0.  1.
<scales pt_clust_5="13000.00000" pt_clust_6="13000.00000" pt_clust_7="13000.00000" pt_clust_8="13000.00000" pt_clust_9="62.33387"></scales>
<clustering>
<clus scale="   62.334">  1  9  2 -1</clus>
<clus scale="   89.904">  5  6 -1 -1</clus>
<clus scale="   89.991">  7  8 -1 -1</clus>
<clus scale="  104.397">  1  5  2 -1</clus>
<clus scale="   62.334">  1  5  2 -1</clus>
</clustering>
</event>
<event>
 9    1  0.1636528E-005  0.9087886E+02  0.7546771E-02  0.1302292E+00
         21   -1    0    0  501  502  0.00000000000E+00  0.00000000000E+00  0.31890534837E+02  0.31890534837E+02  0.00000000000E+00 0.  1.
          1   -1    0    0  502    0 -0.00000000000E+00 -0.00000000000E+00 -0.33794486292E+03  0.33794486292E+03  0.00000000000E+00 0. -1.
         23    2    1    2    0    0 -0.16320266389E+02 -0.74600473561E+01 -0.16260512456E+03  0.18699165808E+03  0.90572900229E+02 0.  0.
         23    2    1    2    0    0 -0.29615490697E+01 -0.55920445924E+01 -0.12566346487E+03  0.15354394427E+03  0.88002242485E+02 0.  0.
        -11    1    3    3    0    0 -0.37038630792E+02 -0.23386427716E+02 -0.33172278341E+02  0.54947112959E+02  0.00000000000E+00 0.  1.
         11    1    3    3    0    0  0.20718364403E+02  0.15926380360E+02 -0.12943284622E+03  0.13204454512E+03  0.00000000000E+00 0. -1.
        -13    1    4    4    0    0  0.11699414096E+02 -0.42038559981E+02 -0.91940137857E+02  0.10176986668E+03  0.00000000000E+00 0. -1.
         13    1    4    4    0    0 -0.14660963166E+02  0.36446515389E+02 -0.33723327016E+02  0.51774077586E+02  0.00000000000E+00 0.  1.
          1    1    1    2  501    0  0.19281815459E+02  0.13052091949E+02 -0.17785738643E+02  0.29299795404E+02  0.00000000000E+00 0. -1.
<scales pt_clust_5="13000.00000" pt_clust_6="13000.00000" pt_clust_7="13000.00000" pt_clust_8="13000.00000" pt_clust_9="23.28402"></scales>
<clustering>
<clus scale="   23.284">  1  9  2 -1</clus>
<clus scale="   88.002">  7  8 -1 -1</clus>
<clus scale="   88.317">  1  7  2 -1</clus>
<clus scale="   90.573">  5  6 -1 -1</clus>
<clus scale="   23.284">  1  5  2 -1</clus>
</clustering>
</event>
<event>
 9    1  0.1636528E-005  0.9335149E+02  0.7546771E-02  0.1295670E+00
         21   -1    0    0  501  502  0.00000000000E+00  0.00000000000E+00  0.99546695427E+02  0.99546695427E+02  0.00000000000E+00 0. -1.
          1   -1    0    0  502    0 -0.00000000000E+00 -0.00000000000E+00 -0.26714140936E+03  0.26714140936E+03  0.00000000000E+00 0. -1.
         23    2    1    2    0    0 -0.21076143223E+02 -0.16544507247E+01 -0.18881888222E+03  0.21041745794E+03  0.90421210457E+02 0.  0.
         23    2    1    2    0    0  0.11529014289E+00  0.22339370155E+02 -0.28392756520E+02  0.98572618442E+02  0.91713421771E+02 0.  0.
        -11    1    4    4    0    0 -0.43833254299E+02  0.93457523999E+01 -0.27798792873E+02  0.52739645008E+02  0.00000000000E+00 0. -1.
         11    1    4    4    0    0  0.43948544442E+02  0.12993617755E+02 -0.59396364655E+00  0.45832973434E+02  0.00000000000E+00 0.  1.
        -13    1    3    3    0    0  0.17300776997E+02  0.20210757599E+02 -0.13916714535E+02  0.30024432566E+02  0.00000000000E+00 0. -1.
         13    1    3    3    0    0 -0.38376920220E+02 -0.21865208324E+02 -0.17490216769E+03  0.18039302537E+03  0.00000000000E+00 0.  1.
          1    1    1    2  501    0  0.20960853080E+02 -0.20684919430E+02  0.49616924814E+02  0.57698028404E+02  0.00000000000E+00 0. -1.
<scales pt_clust_5="13000.00000" pt_clust_6="13000.00000" pt_clust_7="13000.00000" pt_clust_8="13000.00000" pt_clust_9="29.44865"></scales>
<clustering>
<clus scale="   29.449">  1  9  2 -1</clus>
<clus scale="   90.421">  7  8 -1 -1</clus>
<clus scale="   91.713">  5  6 -1 -1</clus>
<clus scale="   92.082">  2  7  1 -1</clus>
<clus scale="   29.449">  1  5  2 -1</clus>
</clustering>
</event>
<event>
 9    1  0.1636528E-005  0.1053785E+03  0.7546771E-02  0.1269811E+00
         21   -1    0    0  501  502  0.00000000000E+00  0.00000000000E+00  0.65924620914E+02  0.65924620914E+02  0.00000000000E+00 0. -1.
         -3   -1    0    0    0  501 -0.00000000000E+00 -0.00000000000E+00 -0.32468350196E+03  0.32468350196E+03  0.00000000000E+00 0.  1.
         23    2    1    2    0    0 -0.37100692470E+02 -0.34398765900E+02 -0.22355480894E+03  0.24717355806E+03  0.92510965447E+02 0.  0.
         23    2    1    2    0    0  0.50067799768E+02  0.18007854367E+02 -0.50751501121E+02  0.11738594869E+03  0.91502342543E+02 0.  0.
        -11    1    3    3    0    0  0.50179574588E+00  0.28912632176E+02 -0.39651146383E+02  0.49075508228E+02  0.00000000000E+00 0. -1.
         11    1    3    3    0    0 -0.37602488216E+02 -0.63311398076E+02 -0.18390366256E+03  0.19809804984E+03  0.00000000000E+00 0.  1.
        -13    1    4    4    0    0  0.34398216201E+02  0.52498221687E+00 -0.75686214149E+02  0.83137932957E+02  0.00000000000E+00 0.  1.
         13    1    4    4    0    0  0.15669583567E+02  0.17482872150E+02  0.24934713028E+02  0.34248015731E+02  0.00000000000E+00 0. -1.
         -3    1    1    2    0  502 -0.12967107298E+02  0.16390911533E+02  0.15547429020E+02  0.26048616119E+02  0.00000000000E+00 0.  1.
<scales pt_clust_5="13000.00000" pt_clust_6="13000.00000" pt_clust_7="13000.00000" pt_clust_8="13000.00000" pt_clust_9="20.89995"></scales>
<clustering>
<clus scale="   20.900">  1  9  2 -1</clus>
<clus scale="   91.502">  7  8 -1 -1</clus>
<clus scale="   92.511">  5  6 -1 -1</clus>
<clus scale="  104.494">  1  7  2 -1</clus>
<clus scale="   20.900">  1  5  2 -1</clus>
</clustering>
</event>
<event>
 9    1  0.1636528E-005  0.1694951E+03  0.7546771E-02  0.1178451E+00
          4   -1    0    0  502    0 -0.00000000000E+00  0.00000000000E+00  0.49760399106E+02  0.49760399106E+02  0.00000000000E+00 0. -1.
         21   -1    0    0  501  502  0.00000000000E+00 -0.00000000000E+00 -0.10459985031E+04  0.10459985031E+04  0.00000000000E+00 0. -1.
         23    2    1    2    0    0 -0.14686578577E+03 -0.11416523506E+03 -0.31957768159E+03  0.38098393339E+03  0.91736595784E+02 0.  0.
         23    2    1    2    0    0  0.64611676531E+02  0.56837129649E+02 -0.44049621794E+03  0.45820961334E+03  0.92271358984E+02 0.  0.
        -11    1    3    3    0    0 -0.33964772753E+01 -0.20578915876E+02 -0.10178501435E+03  0.10390003360E+03  0.00000000000E+00 0.  1.
         11    1    3    3    0    0 -0.14346930850E+03 -0.93586319184E+02 -0.21779266724E+03  0.27708389979E+03  0.00000000000E+00 0. -1.
        -13    1    4    4    0    0  0.87655097551E+02  0.36244569317E+02 -0.31552428029E+03  0.32947330147E+03  0.00000000000E+00 0.  1.
         13    1    4    4    0    0 -0.23043421020E+02  0.20592560332E+02 -0.12497193766E+03  0.12873631187E+03  0.00000000000E+00 0. -1.
          4    1    1    2  501    0  0.82254109243E+02  0.57328105411E+02 -0.23616420445E+03  0.25656535546E+03  0.00000000000E+00 0. -1.
<scales pt_clust_5="13000.00000" pt_clust_6="13000.00000" pt_clust_7="13000.00000" pt_clust_8="13000.00000" pt_clust_9="100.26091"></scales>
<clustering>
<clus scale="   91.737">  5  6 -1 -1</clus>
<clus scale="   92.271">  7  8 -1 -1</clus>
<clus scale="  100.261">  2  9  1 -1</clus>
<clus scale="  169.205">  1  5  2 -1</clus>
<clus scale="  100.261">  2  5  1 -1</clus>
</clustering>
</event>
<event>
 9    1  0.1636528E-005  0.9894272E+02  0.7546771E-02  0.1283174E+00
         21   -1    0    0  501  502  0.00000000000E+00  0.00000000000E+00  0.18128912842E+03  0.18128912842E+03  0.00000000000E+00 0. -1.
          1   -1    0    0  502    0 -0.00000000000E+00 -0.00000000000E+00 -0.18709106132E+03  0.18709106132E+03  0.00000000000E+00 0. -1.
         23    2    1    2    0    0  0.19484905371E+02 -0.39611858090E+02 -0.11045276549E+03  0.14974172554E+03  0.90961585971E+02 0.  0.
         23    2    1    2    0    0  0.31703605275E+01  0.21449903873E+02 -0.14628176261E+02  0.95876093711E+02  0.92239320479E+02 0.  0.
        -11    1    4    4    0    0 -0.52267697303E+01  0.55146957789E+02 -0.23279819381E+02  0.60087070703E+02  0.00000000000E+00 0.  1.
         11    1    4    4    0    0  0.83971302578E+01 -0.33697053916E+02  0.86516431208E+01  0.35789023008E+02  0.00000000000E+00 0. -1.
        -13    1    3    3    0    0  0.45505147345E+02 -0.33351772671E+02 -0.10924314256E+03  0.12295171155E+03  0.00000000000E+00 0.  1.
         13    1    3    3    0    0 -0.26020241974E+02 -0.62600854191E+01 -0.12096229304E+01  0.26790013988E+02  0.00000000000E+00 0. -1.
          1    1    1    2  501    0 -0.22655265899E+02  0.18161954217E+02  0.11927900886E+03  0.12276237049E+03  0.00000000000E+00 0. -1.
<scales pt_clust_5="13000.00000" pt_clust_6="13000.00000" pt_clust_7="13000.00000" pt_clust_8="13000.00000" pt_clust_9="29.03649"></scales>
<clustering>
<clus scale="   29.036">  1  9  2 -1</clus>
<clus scale="   90.962">  7  8 -1 -1</clus>
<clus scale="   92.239">  5  6 -1 -1</clus>
<clus scale="   97.753">  2  7  1 -1</clus>
<clus scale="   29.036">  1  5  2 -1</clus>
</clustering>
</event>
<event>
 9    1  0.1636528E-005  0.9698541E+02  0.7546771E-02  0.1286795E+00
          2   -1    0    0  502    0 -0.00000000000E+00  0.00000000000E+00  0.32974843434E+03  0.32974843434E+03  0.00000000000E+00 0. -1.
         21   -1    0    0  501  502  0.00000000000E+00 -0.00000000000E+00 -0.53855166563E+02  0.53855166563E+02  0.00000000000E+00 0.  1.
         23    2    1    2    0    0 -0.40193520805E+02  0.30549034296E+01  0.19106159303E+03  0.21544129379E+03  0.91025090983E+02 0.  0.
         23    2    1    2    0    0  0.14475394040E+02  0.35010815886E+02  0.64929532922E+02  0.11809718672E+03  0.91081320828E+02 0.  0.
        -13    1    4    4    0    0 -0.14001419941E+02  0.57801421014E+02  0.26485568550E+02  0.65103988918E+02  0.00000000000E+00 0.  1.
         13    1    4    4    0    0  0.28476813980E+02 -0.22790605127E+02  0.38443964372E+02  0.52993197801E+02  0.00000000000E+00 0. -1.
        -13    1    3    3    0    0  0.29441334058E+02  0.46468133437E+01  0.53079479967E+02  0.60875415554E+02  0.00000000000E+00 0. -1.
         13    1    3    3    0    0 -0.69634854863E+02 -0.15919099142E+01  0.13798211306E+03  0.15456587823E+03  0.00000000000E+00 0.  1.
          2    1    1    2  501    0  0.25718126765E+02 -0.38065719316E+02  0.19902141830E+02  0.50065120401E+02  0.00000000000E+00 0. -1.
<scales pt_clust_5="13000.00000" pt_clust_6="13000.00000" pt_clust_7="13000.00000" pt_clust_8="13000.00000" pt_clust_9="45.93932"></scales>
<clustering>
<clus scale="   45.939">  2  9  1 -1</clus>
<clus scale="   91.025">  7  8 -1 -1</clus>
<clus scale="   91.081">  5  6 -1 -1</clus>
<clus scale="   96.933">  1  7  2 -1</clus>
<clus scale="   45.939">  2  5  1 -1</clus>
</clustering>
</event>
<event>
 9    1  0.1636528E-005  0.1062313E+03  0.7546771E-02  0.1268314E+00
         21   -1    0    0  501  502  0.00000000000E+00  0.00000000000E+00  0.43142624985E+02  0.43142624985E+02  0.00000000000E+00 0.  1.
          2   -1    0    0  502    0 -0.00000000000E+00 -0.00000000000E+00 -0.48605913964E+03  0.48605913964E+03  0.00000000000E+00 0. -1.
         23    2    1    2    0    0  0.39645347055E+02  0.34485510882E+02 -0.31875788427E+03  0.33532572916E+03  0.89865187062E+02 0.  0.
         23    2    1    2    0    0 -0.59878372058E+02 -0.18007818798E+02 -0.12602689491E+03  0.16771537704E+03  0.91301525042E+02 0.  0.
        -11    1    4    4    0    0 -0.52159933001E+02 -0.52059844246E+02 -0.69639451486E+02  0.10139299383E+03  0.00000000000E+00 0.  1.
         11    1    4    4    0    0 -0.77184390564E+01  0.34052025449E+02 -0.56387443426E+02  0.66322383210E+02  0.00000000000E+00 0. -1.
        -11    1    3    3    0    0  0.64967889448E+02  0.57136274762E+01 -0.18365894507E+03  0.19489504945E+03  0.00000000000E+00 0. -1.
         11    1    3    3    0    0 -0.25322542393E+02  0.28771883406E+02 -0.13509893920E+03  0.14043067970E+03  0.00000000000E+00 0.  1.
          2    1    1    2  501    0  0.20233025003E+02 -0.16477692084E+02  0.18682645293E+01  0.26160658431E+02  0.00000000000E+00 0. -1.
<scales pt_clust_5="13000.00000" pt_clust_6="13000.00000" pt_clust_7="13000.00000" pt_clust_8="13000.00000" pt_clust_9="26.09386"></scales>
<clustering>
<clus scale="   26.094">  1  9  2 -1</clus>
<clus scale="   89.865">  7  8 -1 -1</clus>
<clus scale="   91.302">  5  6 -1 -1</clus>
<clus scale="  104.999">  2  7  1 -1</clus>
<clus scale="   26.094">  1  5  2 -1</clus>
</clustering>
</event>
<event>
 9    1  0.1636528E-005  0.2196838E+03  0.7546771E-02  0.1134355E+00
          1   -1    0    0  502    0 -0.00000000000E+00  0.00000000000E+00  0.49202059842E+03  0.49202059842E+03  0.00000000000E+00 0. -1.
         21   -1    0    0  501  502  0.00000000000E+00 -0.00000000000E+00 -0.15106441931E+03  0.15106441931E+03  0.00000000000E+00 0. -1.
         23    2    1    2    0    0  0.18669129853E+03 -0.34140092533E+02  0.23281797511E+03  0.31324586803E+03  0.88879567040E+02 0.  0.
         23    2    1    2    0    0 -0.22170849865E+03 -0.17240231099E+02  0.11605898116E+03  0.26715836578E+03  0.91934875624E+02 0.  0.
        -11    1    4    4    0    0 -0.10977613018E+02  0.22189527803E+02  0.21712070525E+02  0.32928667422E+02  0.00000000000E+00 0.  1.
         11    1    4    4    0    0 -0.21073088564E+03 -0.39429758902E+02  0.94346910637E+02  0.23422969836E+03  0.00000000000E+00 0. -1.
        -13    1    3    3    0    0  0.60987120985E+02 -0.26821967658E+02  0.26837134869E+02  0.71826726802E+02  0.00000000000E+00 0.  1.
         13    1    3    3    0    0  0.12570417755E+03 -0.73181248745E+01  0.20598084024E+03  0.24141914123E+03  0.00000000000E+00 0. -1.
          1    1    1    2  501    0  0.35017200119E+02  0.51380323632E+02 -0.79207771613E+01  0.62680783910E+02  0.00000000000E+00 0. -1.
<scales pt_clust_5="13000.00000" pt_clust_6="13000.00000" pt_clust_7="13000.00000" pt_clust_8="13000.00000" pt_clust_9="62.17831"></scales>
<clustering>
<clus scale="   62.178">  2  9  1 -1</clus>
<clus scale="   88.880">  7  8 -1 -1</clus>
<clus scale="   91.935">  5  6 -1 -1</clus>
<clus scale="  218.423">  1  7  2 -1</clus>
<clus scale="   62.178">  2  5  1 -1</clus>
</clustering>
</event>
<event>
 9    1  0.1636528E-005  0.9487882E+02  0.7546771E-02  0.1293947E+00
         21   -1    0    0  501  502  0.00000000000E+00  0.00000000000E+00  0.44592614295E+03  0.44592614295E+03  0.00000000000E+00 0.  1.
          2   -1    0    0  502    0 -0.00000000000E+00 -0.00000000000E+00 -0.63976619230E+02  0.63976619230E+02  0.00000000000E+00 0. -1.
         23    2    1    2    0    0 -0.40200320423E+02 -0.78336826651E+00  0.10295639551E+02  0.10012122940E+03  0.91113011998E+02 0.  0.
         23    2    1    2    0    0 -0.15536397426E+02  0.30967490869E+02  0.13032851425E+03  0.16027081729E+03  0.86607436826E+02 0.  0.
        -11    1    4    4    0    0  0.32123976334E+02 -0.63519426157E+01  0.45350962720E+02  0.55937526314E+02  0.00000000000E+00 0. -1.
         11    1    4    4    0    0 -0.47660373760E+02  0.37319433485E+02  0.84977551527E+02  0.10433329098E+03  0.00000000000E+00 0.  1.
        -13    1    3    3    0    0 -0.32037717306E+00 -0.38272875320E+02  0.22003819508E+02  0.44148428055E+02  0.00000000000E+00 0. -1.
         13    1    3    3    0    0 -0.39879943250E+02  0.37489507054E+02 -0.11708179957E+02  0.55972801348E+02  0.00000000000E+00 0.  1.
          2    1    1    2  501    0  0.55736717849E+02 -0.30184122603E+02  0.24132536992E+03  0.24951071548E+03  0.00000000000E+00 0. -1.
<scales pt_clust_5="13000.00000" pt_clust_6="13000.00000" pt_clust_7="13000.00000" pt_clust_8="13000.00000" pt_clust_9="63.38504"></scales>
<clustering>
<clus scale="   63.385">  1  9  2 -1</clus>
<clus scale="   86.607">  5  6 -1 -1</clus>
<clus scale="   90.561">  1  5  2 -1</clus>
<clus scale="   91.113">  7  8 -1 -1</clus>
<clus scale="   63.385">  1  5  2 -1</clus>
</clustering>
</event>
<event>
 9    1  0.1636528E-005  0.9226325E+02  0.7546771E-02  0.1298320E+00
          1   -1    0    0  502    0 -0.00000000000E+00  0.00000000000E+00  0.43673118651E+03  0.43673118651E+03  0.00000000000E+00 0. -1.
         21   -1    0    0  501  502  0.00000000000E+00 -0.00000000000E+00 -0.56993753208E+02  0.56993753208E+02  0.00000000000E+00 0. -1.
         23    2    1    2    0    0 -0.29131975300E+02 -0.12400831137E+02  0.25558891709E+03  0.27328160325E+03  0.91403979874E+02 0.  0.
         23    2    1    2    0    0 -0.27967557072E+02 -0.36581944950E+02  0.98105465276E+02  0.14083234821E+03  0.89936894760E+02 0.  0.
        -11    1    4    4    0    0  0.12983511134E+02 -0.31114186130E+02 -0.71623326749E+00  0.33722057025E+02  0.00000000000E+00 0.  1.
         11    1    4    4    0    0 -0.40951068206E+02 -0.54677588204E+01  0.98821698544E+02  0.10711029118E+03  0.00000000000E+00 0. -1.
        -13    1    3    3    0    0  0.93358315381E+01  0.25619438876E+02  0.26970918955E+02  0.38352886046E+02  0.00000000000E+00 0.  1.
         13    1    3    3    0    0 -0.38467806838E+02 -0.38020270012E+02  0.22861799813E+03  0.23492871720E+03  0.00000000000E+00 0. -1.
          1    1    1    2  501    0  0.57099532373E+02  0.48982776087E+02  0.26043050936E+02  0.79610988265E+02  0.00000000000E+00 0. -1.
<scales pt_clust_5="13000.00000" pt_clust_6="13000.00000" pt_clust_7="13000.00000" pt_clust_8="13000.00000" pt_clust_9="75.23077"></scales>
<clustering>
<clus scale="   75.231">  2  9  1 -1</clus>
<clus scale="   89.937">  5  6 -1 -1</clus>
<clus scale="   90.810">  2  5  1 -1</clus>
<clus scale="   91.404">  7  8 -1 -1</clus>
<clus scale="   75.231">  2  5  1 -1</clus>
</clustering>
</event>
<event>
 9    1  0.1636528E-005  0.1182848E+03  0.7546771E-02  0.1247316E+00
          1   -1    0    0  502    0 -0.00000000000E+00  0.00000000000E+00  0.20788770091E+03  0.20788770091E+03  0.00000000000E+00 0. -1.
         21   -1    0    0  501  502  0.00000000000E+00 -0.00000000000E+00 -0.16015465277E+03  0.16015465277E+03  0.00000000000E+00 0. -1.
         23    2    1    2    0    0 -0.67870435009E+02  0.25660053980E+02  0.14554228845E+03  0.18872640194E+03  0.95761488845E+02 0.  0.
         23    2    1    2    0    0  0.43003258058E+02 -0.44857574768E+02 -0.48818627436E+02  0.12111800123E+03  0.91786870625E+02 0.  0.
        -13    1    3    3    0    0  0.13333549133E+02 -0.19835923814E+02  0.49565040794E+02  0.55026726914E+02  0.00000000000E+00 0.  1.
         13    1    3    3    0    0 -0.81203984142E+02  0.45495977794E+02  0.95977247653E+02  0.13369967503E+03  0.00000000000E+00 0. -1.
        -13    1    4    4    0    0  0.48588203813E+02  0.13138381439E+02 -0.10599556797E+02  0.51437157979E+02  0.00000000000E+00 0.  1.
         13    1    4    4    0    0 -0.55849457554E+01 -0.57995956207E+02 -0.38219070639E+02  0.69680843249E+02  0.00000000000E+00 0. -1.
          1    1    1    2  501    0  0.24867176951E+02  0.19197520788E+02 -0.48990612872E+02  0.58197950509E+02  0.00000000000E+00 0. -1.
<scales pt_clust_5="13000.00000" pt_clust_6="13000.00000" pt_clust_7="13000.00000" pt_clust_8="13000.00000" pt_clust_9="31.41530"></scales>
<clustering>
<clus scale="   31.415">  2  9  1 -1</clus>
<clus scale="   91.787">  7  8 -1 -1</clus>
<clus scale="   95.761">  5  6 -1 -1</clus>
<clus scale="  115.091">  2  7  1 -1</clus>
<clus scale="   31.415">  2  5  1 -1</clus>
</clustering>
</event>
<event>
 9    1  0.1636528E-005  0.1190699E+03  0.7546771E-02  0.1246623E+00
          2   -1    0    0  502    0 -0.00000000000E+00  0.00000000000E+00  0.63057676757E+03  0.63057676757E+03  0.00000000000E+00 0. -1.
         21   -1    0    0  501  502  0.00000000000E+00 -0.00000000000E+00 -0.86765553206E+02  0.86765553206E+02  0.00000000000E+00 0. -1.
         23    2    1    2    0    0 -0.83096662938E+02  0.16531428329E+01  0.49820326611E+03  0.51323556176E+03  0.91084901160E+02 0.  0.
         23    2    1    2    0    0  0.21091940176E+02 -0.26157857594E+02  0.79097179909E+02  0.12949713949E+03  0.96871264114E+02 0.  0.
        -11    1    4    4    0    0 -0.14341635343E+02  0.29825269804E+02  0.12003387099E+02  0.35203842476E+02  0.00000000000E+00 0.  1.
         11    1    4    4    0    0  0.35433575520E+02 -0.55983127398E+02  0.67093792810E+02  0.94293297009E+02  0.00000000000E+00 0. -1.
        -11    1    3    3    0    0 -0.75295850041E+01 -0.37456863548E+02  0.15761119067E+03  0.16217582650E+03  0.00000000000E+00 0.  1.
         11    1    3    3    0    0 -0.75567077934E+02  0.39110006381E+02  0.34059207544E+03  0.35105973526E+03  0.00000000000E+00 0. -1.
          2    1    1    2  501    0  0.62004722762E+02  0.24504714761E+02 -0.33489231652E+02  0.74609619534E+02  0.00000000000E+00 0. -1.
<scales pt_clust_5="13000.00000" pt_clust_6="13000.00000" pt_clust_7="13000.00000" pt_clust_8="13000.00000" pt_clust_9="66.67133"></scales>
<clustering>
<clus scale="   66.671">  2  9  1 -1</clus>
<clus scale="   91.085">  7  8 -1 -1</clus>
<clus scale="   96.871">  5  6 -1 -1</clus>
<clus scale="  114.412">  1  7  2 -1</clus>
<clus scale="   66.671">  2  5  1 -1</clus>
</clustering>
</event>
<event>
 9    1  0.1636528E-005  0.1684224E+03  0.7546771E-02  0.1179929E+00
         21   -1    0    0  501  502  0.00000000000E+00  0.00000000000E+00  0.59162916276E+02  0.59162916276E+02  0.00000000000E+00 0.  1.
          2   -1    0    0  502    0 -0.00000000000E+00 -0.00000000000E+00 -0.60766820263E+03  0.60766820263E+03  0.00000000000E+00 0. -1.
         23    2    1    2    0    0  0.12399520429E+03  0.70670504015E+02 -0.29483307917E+03  0.33950870357E+03  0.89277569430E+02 0.  0.
         23    2    1    2    0    0 -0.11045731466E+03 -0.85442662421E+02 -0.25731816621E+03  0.30695616540E+03  0.92239806446E+02 0.  0.
        -11    1    4    4    0    0 -0.50469778591E+02  0.12733548824E+02 -0.72432866793E+02  0.89195638955E+02  0.00000000000E+00 0.  1.
         11    1    4    4    0    0 -0.59987536069E+02 -0.98176211246E+02 -0.18488529941E+03  0.21776052645E+03  0.00000000000E+00 0. -1.
        -13    1    3    3    0    0  0.90870901977E+02  0.33264374552E+02 -0.10321137227E+03  0.14148012866E+03  0.00000000000E+00 0.  1.
         13    1    3    3    0    0  0.33124302310E+02  0.37406129463E+02 -0.19162170690E+03  0.19802857491E+03  0.00000000000E+00 0. -1.
          2    1    1    2  501    0 -0.13537889627E+02  0.14772158406E+02  0.36459590165E+01  0.20366249942E+02  0.00000000000E+00 0. -1.
<scales pt_clust_5="13000.00000" pt_clust_6="13000.00000" pt_clust_7="13000.00000" pt_clust_8="13000.00000" pt_clust_9="20.03724"></scales>
<clustering>
<clus scale="   20.037">  1  9  2 -1</clus>
<clus scale="   89.278">  7  8 -1 -1</clus>
<clus scale="   92.240">  5  6 -1 -1</clus>
<clus scale="  166.819">  2  7  1 -1</clus>
<clus scale="   20.037">  1  5  2 -1</clus>
</clustering>
</event>
<event>
 9    1  0.1636528E-005  0.1316081E+03  0.7546771E-02  0.1226029E+00
         21   -1    0    0  501  502  0.00000000000E+00  0.00000000000E+00  0.69430305138E+03  0.69430305138E+03  0.00000000000E+00 0. -1.
          1   -1    0    0  502    0 -0.00000000000E+00 -0.00000000000E+00 -0.72880055782E+02  0.72880055782E+02  0.00000000000E+00 0. -1.
         23    2    1    2    0    0 -0.61252373256E+02 -0.48479193072E+02  0.42430852146E+02  0.12933568676E+03  0.93942840410E+02 0.  0.
         23    2    1    2    0    0  0.12246559039E+03  0.56183667217E+02  0.21861658737E+03  0.27222882365E+03  0.90337671322E+02 0.  0.
        -11    1    3    3    0    0 -0.14754336992E+02  0.25722542102E+02 -0.44876063388E+01  0.29991302788E+02  0.00000000000E+00 0.  1.
         11    1    3    3    0    0 -0.46498036264E+02 -0.74201735174E+02  0.46918458485E+02  0.99344383967E+02  0.00000000000E+00 0. -1.
        -13    1    4    4    0    0  0.52467706602E+01  0.21428540073E+02  0.98112437560E+02  0.10056222619E+03  0.00000000000E+00 0.  1.
         13    1    4    4    0    0  0.11721881973E+03  0.34755127145E+02  0.12050414981E+03  0.17166659746E+03  0.00000000000E+00 0. -1.
          1    1    1    2  501    0 -0.61213217134E+02 -0.77044741457E+01  0.36037555608E+03  0.36561859676E+03  0.00000000000E+00 0. -1.
<scales pt_clust_5="13000.00000" pt_clust_6="13000.00000" pt_clust_7="13000.00000" pt_clust_8="13000.00000" pt_clust_9="61.69617"></scales>
<clustering>
<clus scale="   61.696">  1  9  2 -1</clus>
<clus scale="   90.338">  7  8 -1 -1</clus>
<clus scale="   93.943">  5  6 -1 -1</clus>
<clus scale="  129.059">  1  7  2 -1</clus>
<clus scale="   61.696">  1  5  2 -1</clus>
</clustering>
</event>
<event>
 9    1  0.1636528E-005  0.1631994E+03  0.7546771E-02  0.1186009E+00
          2   -1    0    0  502    0 -0.00000000000E+00  0.00000000000E+00  0.15661529285E+03  0.15661529285E+03  0.00000000000E+00 0. -1.
         21   -1    0    0  501  502  0.00000000000E+00 -0.00000000000E+00 -0.48400095867E+03  0.48400095867E+03  0.00000000000E+00 0. -1.
         23    2    1    2    0    0 -0.10495616085E+03  0.26094530853E+02  0.13984269209E+02  0.15111076765E+03  0.10460489507E+03 0.  0.
         23    2    1    2    0    0  0.13290767090E+03 -0.12991217480E+03 -0.11806524675E+03  0.24166607233E+03  0.99606555402E+02 0.  0.
        -11    1    4    4    0    0  0.86497331557E+02 -0.13382911736E+03 -0.11183273703E+03  0.19467558165E+03  0.00000000000E+00 0. -1.
         11    1    4    4    0    0  0.46410339340E+02  0.39169425583E+01 -0.62325097227E+01  0.46990490677E+02  0.00000000000E+00 0.  1.
        -13    1    3    3    0    0 -0.25662185654E+02 -0.39065445300E+02 -0.40142722930E+01  0.46912377589E+02  0.00000000000E+00 0.  1.
         13    1    3    3    0    0 -0.79293975196E+02  0.65159976153E+02  0.17998541502E+02  0.10419839006E+03  0.00000000000E+00 0. -1.
          2    1    1    2  501    0 -0.27951510048E+02  0.10381764395E+03 -0.22330468828E+03  0.24783941155E+03  0.00000000000E+00 0. -1.
<scales pt_clust_5="13000.00000" pt_clust_6="13000.00000" pt_clust_7="13000.00000" pt_clust_8="13000.00000" pt_clust_9="107.51460"></scales>
<clustering>
<clus scale="   99.607">  5  6 -1 -1</clus>
<clus scale="  104.605">  7  8 -1 -1</clus>
<clus scale="  107.515">  2  9  1 -1</clus>
<clus scale="  160.042">  2  5  1 -1</clus>
<clus scale="  107.515">  2  5  1 -1</clus>
</clustering>
</event>
<event>
 9    1  0.1636528E-005  0.1107592E+03  0.7546771E-02  0.1260301E+00
         -3   -1    0    0    0  501 -0.00000000000E+00  0.00000000000E+00  0.79111769867E+02  0.79111769867E+02  0.00000000000E+00 0.  1.
         21   -1    0    0  501  502  0.00000000000E+00 -0.00000000000E+00 -0.27616691033E+03  0.27616691033E+03  0.00000000000E+00 0.  1.
         23    2    1    2    0    0  0.63526810241E+02  0.84522984102E+01 -0.16597837040E+02  0.11238525255E+03  0.90817728598E+02 0.  0.
         23    2    1    2    0    0 -0.54325756575E+02 -0.39933684649E+02 -0.78338504859E+02  0.13563679108E+03  0.87831832236E+02 0.  0.
        -13    1    3    3    0    0 -0.43448941558E+01  0.34570817318E+02 -0.18873080748E+02  0.39625909355E+02  0.00000000000E+00 0. -1.
         13    1    3    3    0    0  0.67871704397E+02 -0.26118518908E+02  0.22752437077E+01  0.72759343191E+02  0.00000000000E+00 0.  1.
        -13    1    4    4    0    0 -0.43869362431E+02  0.18559432157E+02 -0.52361513965E+02  0.70786309601E+02  0.00000000000E+00 0. -1.
         13    1    4    4    0    0 -0.10456394143E+02 -0.58493116806E+02 -0.25976990893E+02  0.64850481479E+02  0.00000000000E+00 0.  1.
         -3    1    1    2    0  502 -0.92010536665E+01  0.31481386239E+02 -0.10211879856E+03  0.10725663657E+03  0.00000000000E+00 0.  1.
<scales pt_clust_5="13000.00000" pt_clust_6="13000.00000" pt_clust_7="13000.00000" pt_clust_8="13000.00000" pt_clust_9="32.79843"></scales>
<clustering>
<clus scale="   32.798">  2  9  1 -1</clus>
<clus scale="   87.832">  7  8 -1 -1</clus>
<clus scale="   90.818">  5  6 -1 -1</clus>
<clus scale="  108.324">  2  7  1 -1</clus>
<clus scale="   32.798">  2  5  1 -1</clus>
</clustering>
</event>
<event>
 9    1  0.1636528E-005  0.1379555E+03  0.7546771E-02  0.1216201E+00
         21   -1    0    0  501  502  0.00000000000E+00  0.00000000000E+00  0.44112665961E+02  0.44112665961E+02  0.00000000000E+00 0.  1.
          1   -1    0    0  502    0 -0.00000000000E+00 -0.00000000000E+00 -0.10218380516E+04  0.10218380516E+04  0.00000000000E+00 0. -1.
         23    2    1    2    0    0 -0.36341998035E+02 -0.90089043477E+02 -0.71527034443E+03  0.72757643905E+03  0.91208730213E+02 0.  0.
         23    2    1    2    0    0  0.44833386339E+02  0.11427822523E+03 -0.27104643092E+03  0.31133667201E+03  0.91623197575E+02 0.  0.
        -13    1    3    3    0    0  0.20991517347E+02 -0.68596216455E+02 -0.36206601288E+03  0.36910416198E+03  0.00000000000E+00 0.  1.
         13    1    3    3    0    0 -0.57333515382E+02 -0.21492827022E+02 -0.35320433155E+03  0.35847227707E+03  0.00000000000E+00 0. -1.
        -13    1    4    4    0    0  0.49709220413E+01  0.41184677344E+02 -0.19235213673E+03  0.19677457208E+03  0.00000000000E+00 0. -1.
         13    1    4    4    0    0  0.39862464298E+02  0.73093547887E+02 -0.78694294190E+02  0.11456209993E+03  0.00000000000E+00 0.  1.
          1    1    1    2  501    0 -0.84913883041E+01 -0.24189181754E+02  0.85913896898E+01  0.27037606515E+02  0.00000000000E+00 0. -1.
<scales pt_clust_5="13000.00000" pt_clust_6="13000.00000" pt_clust_7="13000.00000" pt_clust_8="13000.00000" pt_clust_9="25.63631"></scales>
<clustering>
<clus scale="   25.636">  1  9  2 -1</clus>
<clus scale="   91.209">  5  6 -1 -1</clus>
<clus scale="   91.623">  7  8 -1 -1</clus>
<clus scale="  137.681">  2  5  1 -1</clus>
<clus scale="   25.636">  1  5  2 -1</clus>
</clustering>
</event>
<event>
 9    1  0.1636528E-005  0.1016402E+03  0.7546771E-02  0.1281192E+00
         21   -1    0    0  501  502  0.00000000000E+00  0.00000000000E+00  0.20562644847E+03  0.20562644847E+03  0.00000000000E+00 0.  1.
          2   -1    0    0  502    0 -0.00000000000E+00 -0.00000000000E+00 -0.74006293466E+02  0.74006293466E+02  0.00000000000E+00 0. -1.
         23    2    1    2    0    0  0.20236531679E+02  0.71818523032E+01  0.11274307289E+02  0.10306283236E+03  0.10016856390E+03 0.  0.
         23    2    1    2    0    0 -0.12528961213E+02  0.15050931577E+02  0.59478724159E+02  0.11131264905E+03  0.92028700957E+02 0.  0.
        -11    1    3    3    0    0 -0.25147127699E+02  0.25171424322E+02  0.33999843549E+02  0.49213494036E+02  0.00000000000E+00 0. -1.
         11    1    3    3    0    0  0.45383659377E+02 -0.17989572019E+02 -0.22725536260E+02  0.53849338326E+02  0.00000000000E+00 0.  1.
        -11    1    4    4    0    0 -0.36406930261E+02 -0.14151464074E+02  0.62248992788E+02  0.73489221044E+02  0.00000000000E+00 0.  1.
         11    1    4    4    0    0  0.23877969047E+02  0.29202395652E+02 -0.27702686289E+01  0.37823428003E+02  0.00000000000E+00 0. -1.
          2    1    1    2  501    0 -0.77075704652E+01 -0.22232783880E+02  0.60867123554E+02  0.65257260525E+02  0.00000000000E+00 0. -1.
<scales pt_clust_5="13000.00000" pt_clust_6="13000.00000" pt_clust_7="13000.00000" pt_clust_8="13000.00000" pt_clust_9="23.53090"></scales>
<clustering>
<clus scale="   23.531">  1  9  2 -1</clus>
<clus scale="   92.029">  7  8 -1 -1</clus>
<clus scale="   93.628">  1  7  2 -1</clus>
<clus scale="  100.169">  5  6 -1 -1</clus>
<clus scale="   23.531">  1  5  2 -1</clus>
</clustering>
</event>
<event>
 9    1  0.1636528E-005  0.1035787E+03  0.7546771E-02  0.1273951E+00
         21   -1    0    0  501  502  0.00000000000E+00  0.00000000000E+00  0.77289700274E+02  0.77289700274E+02  0.00000000000E+00 0. -1.
          3   -1    0    0  502    0 -0.00000000000E+00 -0.00000000000E+00 -0.22595129719E+03  0.22595129719E+03  0.00000000000E+00 0. -1.
         23    2    1    2    0    0  0.17155199921E+02  0.36497277557E+02 -0.11110476822E+03  0.14855176344E+03  0.89983358162E+02 0.  0.
         23    2    1    2    0    0 -0.32151514119E+02 -0.49897855825E+02 -0.59626589428E+02  0.12483057907E+03  0.92216199376E+02 0.  0.
        -13    1    3    3    0    0  0.44517331907E+02  0.11140537152E+02 -0.19912334463E+02  0.50024048936E+02  0.00000000000E+00 0. -1.
         13    1    3    3    0    0 -0.27362131986E+02  0.25356740405E+02 -0.91192433753E+02  0.98527714500E+02  0.00000000000E+00 0.  1.
        -13    1    4    4    0    0 -0.10252242685E+02  0.27424535034E+02 -0.14697074725E+02  0.32760000113E+02  0.00000000000E+00 0.  1.
         13    1    4    4    0    0 -0.21899271434E+02 -0.77322390859E+02 -0.44929514704E+02  0.92070578954E+02  0.00000000000E+00 0. -1.
          3    1    1    2  501    0  0.14996314198E+02  0.13400578268E+02  0.22069760729E+02  0.29858654961E+02  0.00000000000E+00 0. -1.
<scales pt_clust_5="13000.00000" pt_clust_6="13000.00000" pt_clust_7="13000.00000" pt_clust_8="13000.00000" pt_clust_9="20.11131"></scales>
<clustering>
<clus scale="   20.111">  1  9  2 -1</clus>
<clus scale="   89.983">  5  6 -1 -1</clus>
<clus scale="   92.216">  7  8 -1 -1</clus>
<clus scale="  101.596">  2  5  1 -1</clus>
<clus scale="   20.111">  1  5  2 -1</clus>
</clustering>
</event>
<event>
 9    1  0.1636528E-005  0.9686504E+02  0.7546771E-02  0.1287345E+00
         21   -1    0    0  501  502  0.00000000000E+00  0.00000000000E+00  0.13531851630E+03  0.13531851630E+03  0.00000000000E+00 0. -1.
          2   -1    0    0  502    0 -0.00000000000E+00 -0.00000000000E+00 -0.50077821116E+03  0.50077821116E+03  0.00000000000E+00 0. -1.
         23    2    1    2    0    0  0.10126780106E+02  0.24805999923E+02 -0.38362083194E+03  0.39505034721E+03  0.90454103416E+02 0.  0.
         23    2    1    2    0    0 -0.39396944054E+02 -0.53922460885E+02 -0.77429398038E+02  0.13692116141E+03  0.91062296114E+02 0.  0.
        -11    1    3    3    0    0 -0.24621568280E+02 -0.22933871605E+02 -0.17642853846E+03  0.17960850001E+03  0.00000000000E+00 0.  1.
         11    1    3    3    0    0  0.34748348386E+02  0.47739871528E+02 -0.20719229347E+03  0.21544184720E+03  0.00000000000E+00 0. -1.
        -13    1    4    4    0    0 -0.16801714252E+02 -0.73271808658E+02 -0.30008272301E+02  0.80941657706E+02  0.00000000000E+00 0. -1.
         13    1    4    4    0    0 -0.22595229802E+02  0.19349347773E+02 -0.47421125738E+02  0.55979503707E+02  0.00000000000E+00 0.  1.
          2    1    1    2  501    0  0.29270163948E+02  0.29116460962E+02  0.95590535110E+02  0.10412521884E+03  0.00000000000E+00 0. -1.
<scales pt_clust_5="13000.00000" pt_clust_6="13000.00000" pt_clust_7="13000.00000" pt_clust_8="13000.00000" pt_clust_9="41.28572"></scales>
<clustering>
<clus scale="   41.286">  1  9  2 -1</clus>
<clus scale="   90.454">  5  6 -1 -1</clus>
<clus scale="   91.062">  7  8 -1 -1</clus>
<clus scale="   96.294">  2  5  1 -1</clus>
<clus scale="   41.286">  1  5  2 -1</clus>
</clustering>
</event>
<event>
 9    1  0.1636528E-005  0.9565111E+02  0.7546771E-02  0.1290501E+00
          1   -1    0    0  502    0 -0.00000000000E+00  0.00000000000E+00  0.60091856961E+02  0.60091856961E+02  0.00000000000E+00 0. -1.
         21   -1    0    0  501  502  0.00000000000E+00 -0.00000000000E+00 -0.36201573731E+03  0.36201573731E+03  0.00000000000E+00 0. -1.
         23    2    1    2    0    0 -0.61765879852E+01  0.94424047451E+00 -0.91317457917E+02  0.12932804956E+03  0.91366429573E+02 0.  0.
         23    2    1    2    0    0 -0.63378110897E+02 -0.44846641398E+02 -0.14579874282E+03  0.18806415769E+03  0.89904659576E+02 0.  0.
        -13    1    3    3    0    0  0.38240256750E+02  0.12123895689E+02 -0.65339272965E+02  0.76671550620E+02  0.00000000000E+00 0.  1.
         13    1    3    3    0    0 -0.44416844735E+02 -0.11179655215E+02 -0.25978184952E+02  0.52656498938E+02  0.00000000000E+00 0. -1.
        -13    1    4    4    0    0 -0.84032443398E+02 -0.24174425258E+02 -0.12342632643E+03  0.15126107376E+03  0.00000000000E+00 0. -1.
         13    1    4    4    0    0  0.20654332501E+02 -0.20672216140E+02 -0.22372416388E+02  0.36803083923E+02  0.00000000000E+00 0.  1.
          1    1    1    2  501    0  0.69554698882E+02  0.43902400924E+02 -0.64807679615E+02  0.10471538703E+03  0.00000000000E+00 0. -1.
<scales pt_clust_5="13000.00000" pt_clust_6="13000.00000" pt_clust_7="13000.00000" pt_clust_8="13000.00000" pt_clust_9="82.25134"></scales>
<clustering>
<clus scale="   82.251">  2  9  1 -1</clus>
<clus scale="   89.905">  7  8 -1 -1</clus>
<clus scale="   91.366">  5  6 -1 -1</clus>
<clus scale="   94.256">  2  7  1 -1</clus>
<clus scale="   82.251">  2  5  1 -1</clus>
</clustering>
</event>
<event>
 9    1  0.1636528E-005  0.1316308E+03  0.7546771E-02  0.1225760E+00
          2   -1    0    0  502    0 -0.00000000000E+00  0.00000000000E+00  0.30690233727E+03  0.30690233727E+03  0.00000000000E+00 0. -1.
         21   -1    0    0  501  502  0.00000000000E+00 -0.00000000000E+00 -0.13259517863E+03  0.13259517863E+03  0.00000000000E+00 0. -1.
         23    2    1    2    0    0 -0.23715593333E+02 -0.10363202271E+03  0.20711696904E+03  0.24986851807E+03  0.90745864702E+02 0.  0.
         23    2    1    2    0    0  0.30746529927E+02  0.57256833111E+02  0.23609691618E+02  0.11625834642E+03  0.93460641633E+02 0.  0.
        -11    1    3    3    0    0  0.18592777596E+02 -0.18813871714E+02  0.54061542335E+01  0.26997771226E+02  0.00000000000E+00 0.  1.
         11    1    3    3    0    0 -0.42308370929E+02 -0.84818150993E+02  0.20171081481E+03  0.22287074684E+03  0.00000000000E+00 0. -1.
        -11    1    4    4    0    0  0.66775367965E+01  0.68708899462E+02 -0.13726398120E+02  0.70384063312E+02  0.00000000000E+00 0.  1.
         11    1    4    4    0    0  0.24068993131E+02 -0.11452066352E+02  0.37336089738E+02  0.45874283112E+02  0.00000000000E+00 0. -1.
          2    1    1    2  501    0 -0.70309365940E+01  0.46375189597E+02 -0.56419502020E+02  0.73370651406E+02  0.00000000000E+00 0. -1.
<scales pt_clust_5="13000.00000" pt_clust_6="13000.00000" pt_clust_7="13000.00000" pt_clust_8="13000.00000" pt_clust_9="46.90514"></scales>
<clustering>
<clus scale="   46.905">  2  9  1 -1</clus>
<clus scale="   90.746">  5  6 -1 -1</clus>
<clus scale="   93.461">  7  8 -1 -1</clus>
<clus scale="  129.717">  1  5  2 -1</clus>
<clus scale="   46.905">  2  5  1 -1</clus>
</clustering>
</event>
<event>
 9    1  0.1636528E-005  0.1279325E+03  0.7546771E-02  0.1230699E+00
          1   -1    0    0  502    0 -0.00000000000E+00  0.00000000000E+00  0.11716767336E+03  0.11716767336E+03  0.00000000000E+00 0. -1.
         21   -1    0    0  501  502  0.00000000000E+00 -0.00000000000E+00 -0.25553439314E+03  0.25553439314E+03  0.00000000000E+00 0.  1.
         23    2    1    2    0    0 -0.12000502893E+02  0.10391896581E+03  0.35173418488E+01  0.13844063986E+03  0.90610570832E+02 0.  0.
         23    2    1    2    0    0  0.13775264521E+02 -0.52153697436E+02 -0.14812535053E+03  0.18209106652E+03  0.91138745697E+02 0.  0.
        -11    1    3    3    0    0 -0.38187144948E+02  0.11790086068E+02 -0.11277522543E+02  0.41526457632E+02  0.00000000000E+00 0.  1.
         11    1    3    3    0    0  0.26186642055E+02  0.92128879740E+02  0.14794864391E+02  0.96914182226E+02  0.00000000000E+00 0. -1.
        -13    1    4    4    0    0 -0.11333976134E+02 -0.60039687095E+02 -0.14268421939E+03  0.15521600917E+03  0.00000000000E+00 0.  1.
         13    1    4    4    0    0  0.25109240655E+02  0.78859896589E+01 -0.54411311416E+01  0.26875057344E+02  0.00000000000E+00 0. -1.
          1    1    1    2  501    0 -0.17747616278E+01 -0.51765268371E+02  0.62412889066E+01  0.52170360125E+02  0.00000000000E+00 0. -1.
<scales pt_clust_5="13000.00000" pt_clust_6="13000.00000" pt_clust_7="13000.00000" pt_clust_8="13000.00000" pt_clust_9="51.79571"></scales>
<clustering>
<clus scale="   51.796">  2  9  1 -1</clus>
<clus scale="   90.611">  5  6 -1 -1</clus>
<clus scale="   91.139">  7  8 -1 -1</clus>
<clus scale="  127.557">  1  5  2 -1</clus>
<clus scale="   51.796">  2  5  1 -1</clus>
</clustering>
</event>
<event>
 9    1  0.1636528E-005  0.1085328E+03  0.7546771E-02  0.1263613E+00
         -1   -1    0    0    0  501 -0.00000000000E+00  0.00000000000E+00  0.34143790159E+03  0.34143790159E+03  0.00000000000E+00 0.  1.
         21   -1    0    0  501  502  0.00000000000E+00 -0.00000000000E+00 -0.62986162156E+02  0.62986162156E+02  0.00000000000E+00 0. -1.
         23    2    1    2    0    0 -0.77396179296E+02  0.10626116951E+02  0.21597894801E+03  0.24670384322E+03  0.90071068296E+02 0.  0.
         23    2    1    2    0    0  0.28920158924E+02 -0.12003081521E+01  0.51717615996E+02  0.10717871065E+03  0.89301443884E+02 0.  0.
        -11    1    3    3    0    0 -0.97845024322E+02  0.86278435588E+01  0.18628069978E+03  0.21059104345E+03  0.00000000000E+00 0.  1.
         11    1    3    3    0    0  0.20448845026E+02  0.19982733923E+01  0.29698248229E+02  0.36112799771E+02  0.00000000000E+00 0. -1.
        -13    1    4    4    0    0  0.89634678027E+01 -0.28716857423E+02  0.64255038215E+02  0.70948654613E+02  0.00000000000E+00 0. -1.
         13    1    4    4    0    0  0.19956691121E+02  0.27516549271E+02 -0.12537422220E+02  0.36230056034E+02  0.00000000000E+00 0.  1.
         -1    1    1    2    0  502  0.48476020372E+02 -0.94258087990E+01  0.10755175428E+02  0.50541509882E+02  0.00000000000E+00 0.  1.
<scales pt_clust_5="13000.00000" pt_clust_6="13000.00000" pt_clust_7="13000.00000" pt_clust_8="13000.00000" pt_clust_9="49.38391"></scales>
<clustering>
<clus scale="   49.384">  2  9  1 -1</clus>
<clus scale="   89.301">  7  8 -1 -1</clus>
<clus scale="   90.071">  5  6 -1 -1</clus>
<clus scale="  107.895">  2  7  1 -1</clus>
<clus scale="   49.384">  2  5  1 -1</clus>
</clustering>
</event>
<event>
 9    1  0.1636528E-005  0.9845047E+02  0.7546771E-02  0.1283626E+00
         21   -1    0    0  501  502  0.00000000000E+00  0.00000000000E+00  0.49265469705E+02  0.49265469705E+02  0.00000000000E+00 0.  1.
         -2   -1    0    0    0  501 -0.00000000000E+00 -0.00000000000E+00 -0.44223900547E+03  0.44223900547E+03  0.00000000000E+00 0.  1.
         23    2    1    2    0    0  0.29830700887E+02  0.40413548692E+02 -0.22998505711E+03  0.25264211027E+03  0.91715777010E+02 0.  0.
         23    2    1    2    0    0 -0.23058898125E+02 -0.69264047966E+01 -0.17792003317E+03  0.20157701337E+03  0.91640963828E+02 0.  0.
        -11    1    4    4    0    0 -0.46198982931E+02  0.17084730092E+02 -0.15065502874E+03  0.15850290758E+03  0.00000000000E+00 0.  1.
         11    1    4    4    0    0  0.23140084805E+02 -0.24011134888E+02 -0.27265004427E+02  0.43074105793E+02  0.00000000000E+00 0. -1.
        -13    1    3    3    0    0  0.53151683815E+02  0.38184509185E+02 -0.21521879602E+03  0.22494952411E+03  0.00000000000E+00 0.  1.
         13    1    3    3    0    0 -0.23320982928E+02  0.22290395065E+01 -0.14766261092E+02  0.27692586165E+02  0.00000000000E+00 0. -1.
         -2    1    1    2    0  502 -0.67718027621E+01 -0.33487143895E+02  0.14931554515E+02  0.37285351536E+02  0.00000000000E+00 0.  1.
<scales pt_clust_5="13000.00000" pt_clust_6="13000.00000" pt_clust_7="13000.00000" pt_clust_8="13000.00000" pt_clust_9="34.16498"></scales>
<clustering>
<clus scale="   34.165">  1  9  2 -1</clus>
<clus scale="   91.641">  5  6 -1 -1</clus>
<clus scale="   91.716">  7  8 -1 -1</clus>
<clus scale="   98.381">  1  5  2 -1</clus>
<clus scale="   34.165">  1  5  2 -1</clus>
</clustering>
</event>
<event>
 9    1  0.1636528E-005  0.1580994E+03  0.7546771E-02  0.1191062E+00
          1   -1    0    0  502    0 -0.00000000000E+00  0.00000000000E+00  0.17244766929E+03  0.17244766929E+03  0.00000000000E+00 0. -1.
         21   -1    0    0  501  502  0.00000000000E+00 -0.00000000000E+00 -0.20207036618E+03  0.20207036618E+03  0.00000000000E+00 0.  1.
         23    2    1    2    0    0 -0.17873686165E+01 -0.12474944077E+03  0.13141968831E+02  0.15502756314E+03  0.91078078207E+02 0.  0.
         23    2    1    2    0    0  0.39096881798E+02  0.13143430893E+03 -0.21739406569E+01  0.16395405007E+03  0.89847987106E+02 0.  0.
        -11    1    4    4    0    0  0.56556293573E+02  0.51115254264E+02  0.20016520077E+02  0.78816525153E+02  0.00000000000E+00 0.  1.
         11    1    4    4    0    0 -0.17459411775E+02  0.80319054662E+02 -0.22190460734E+02  0.85137524916E+02  0.00000000000E+00 0. -1.
        -13    1    3    3    0    0  0.28524445639E+02 -0.35205442683E+02 -0.26529001538E+02  0.52505762695E+02  0.00000000000E+00 0.  1.
         13    1    3    3    0    0 -0.30311814256E+02 -0.89543998089E+02  0.39670970369E+02  0.10252180045E+03  0.00000000000E+00 0. -1.
          1    1    1    2  501    0 -0.37309513181E+02 -0.66848681533E+01 -0.40590725068E+02  0.55536422261E+02  0.00000000000E+00 0. -1.
<scales pt_clust_5="13000.00000" pt_clust_6="13000.00000" pt_clust_7="13000.00000" pt_clust_8="13000.00000" pt_clust_9="37.90366"></scales>
<clustering>
<clus scale="   37.904">  2  9  1 -1</clus>
<clus scale="   89.848">  5  6 -1 -1</clus>
<clus scale="   91.078">  7  8 -1 -1</clus>
<clus scale="  157.394">  2  5  1 -1</clus>
<clus scale="   37.904">  2  5  1 -1</clus>
</clustering>
</event>
<event>
 9    1  0.1636528E-005  0.9396915E+02  0.7546771E-02  0.1297483E+00
         -3   -1    0    0    0  501 -0.00000000000E+00  0.00000000000E+00  0.11903964495E+03  0.11903964495E+03  0.00000000000E+00 0.  1.
         21   -1    0    0  501  502  0.00000000000E+00 -0.00000000000E+00 -0.92522837674E+02  0.92522837674E+02  0.00000000000E+00 0. -1.
         23    2    1    2    0    0 -0.26016618108E+01 -0.68235126382E+01  0.14193932688E+02  0.95077976654E+02  0.93728463929E+02 0.  0.
         23    2    1    2    0    0  0.89153934470E+01 -0.15696975512E+02 -0.22706233079E+01  0.88916303736E+02  0.87034901386E+02 0.  0.
        -11    1    4    4    0    0  0.36659792025E+02 -0.12815778252E+02  0.27906669941E+02  0.47822241172E+02  0.00000000000E+00 0. -1.
         11    1    4    4    0    0 -0.27744398578E+02 -0.28811972601E+01 -0.30177293249E+02  0.41094062563E+02  0.00000000000E+00 0.  1.
        -13    1    3    3    0    0  0.32166774283E+02  0.14385009940E+02  0.34722680548E+02  0.49470136680E+02  0.00000000000E+00 0.  1.
         13    1    3    3    0    0 -0.34768436094E+02 -0.21208522578E+02 -0.20528747860E+02  0.45607839973E+02  0.00000000000E+00 0. -1.
         -3    1    1    2    0  502 -0.63137316362E+01  0.22520488151E+02  0.14593497899E+02  0.27568202238E+02  0.00000000000E+00 0.  1.
<scales pt_clust_5="13000.00000" pt_clust_6="13000.00000" pt_clust_7="13000.00000" pt_clust_8="13000.00000" pt_clust_9="23.38880"></scales>
<clustering>
<clus scale="   23.389">  2  9  1 -1</clus>
<clus scale="   87.035">  5  6 -1 -1</clus>
<clus scale="   87.294">  2  5  1 -1</clus>
<clus scale="   93.728">  7  8 -1 -1</clus>
<clus scale="   23.389">  2  5  1 -1</clus>
</clustering>
</event>
<event>
 9    1  0.1636528E-005  0.1112389E+03  0.7546771E-02  0.1258816E+00
          1   -1    0    0  502    0 -0.00000000000E+00  0.00000000000E+00  0.98726275517E+03  0.98726275517E+03  0.00000000000E+00 0. -1.
         21   -1    0    0  501  502  0.00000000000E+00 -0.00000000000E+00 -0.18204554952E+02  0.18204554952E+02  0.00000000000E+00 0.  1.
         23    2    1    2    0    0  0.20037208460E+02 -0.46210175523E+02  0.40954051670E+03  0.42249562601E+03  0.90786833470E+02 0.  0.
         23    2    1    2    0    0 -0.30356393790E+02  0.75891231897E+02  0.34860720492E+03  0.36973313066E+03  0.92166234973E+02 0.  0.
        -13    1    3    3    0    0  0.49329719448E+02 -0.55887926262E+01  0.26269326449E+03  0.26734323824E+03  0.00000000000E+00 0. -1.
         13    1    3    3    0    0 -0.29292510987E+02 -0.40621382897E+02  0.14684725221E+03  0.15515238777E+03  0.00000000000E+00 0.  1.
        -13    1    4    4    0    0 -0.23150359898E+02 -0.15640098009E+01  0.16085154394E+02  0.28233269062E+02  0.00000000000E+00 0.  1.
         13    1    4    4    0    0 -0.72060338916E+01  0.77455241698E+02  0.33252205052E+03  0.34149986160E+03  0.00000000000E+00 0. -1.
          1    1    1    2  501    0  0.10319185330E+02 -0.29681056374E+02  0.21091047860E+03  0.21323855344E+03  0.00000000000E+00 0. -1.
<scales pt_clust_5="13000.00000" pt_clust_6="13000.00000" pt_clust_7="13000.00000" pt_clust_8="13000.00000" pt_clust_9="31.42374"></scales>
<clustering>
<clus scale="   31.424">  2  9  1 -1</clus>
<clus scale="   90.787">  5  6 -1 -1</clus>
<clus scale="   92.166">  7  8 -1 -1</clus>
<clus scale="  110.099">  1  5  2 -1</clus>
<clus scale="   31.424">  2  5  1 -1</clus>
</clustering>
</event>
<event>
 9    1  0.1636528E-005  0.2056294E+03  0.7546771E-02  0.1173364E+00
          1   -1    0    0  502    0 -0.00000000000E+00  0.00000000000E+00  0.76543423707E+03  0.76543423707E+03  0.00000000000E+00 0. -1.
         21   -1    0    0  501  502  0.00000000000E+00 -0.00000000000E+00 -0.14426354672E+03  0.14426354672E+03  0.00000000000E+00 0.  1.
         23    2    1    2    0    0  0.39430386762E+01  0.57417132214E+02  0.38808522472E+03  0.40238797919E+03  0.89407323644E+02 0.  0.
         23    2    1    2    0    0 -0.18006969863E+03 -0.95485153190E+02  0.23900918775E+03  0.32701874811E+03  0.90958006482E+02 0.  0.
        -13    1    4    4    0    0 -0.15160750555E+03 -0.11360414487E+03  0.20373774126E+03  0.27820820384E+03  0.00000000000E+00 0.  1.
         13    1    4    4    0    0 -0.28462193085E+02  0.18118991681E+02  0.35271446492E+02  0.48810544275E+02  0.00000000000E+00 0. -1.
        -13    1    3    3    0    0 -0.30980257877E+02  0.74886349893E+01  0.53294977395E+02  0.62098394888E+02  0.00000000000E+00 0.  1.
         13    1    3    3    0    0  0.34923296554E+02  0.49928497225E+02  0.33479024733E+03  0.34028958430E+03  0.00000000000E+00 0. -1.
          1    1    1    2  501    0  0.17612665996E+03  0.38068020975E+02 -0.59237221232E+01  0.18029105650E+03  0.00000000000E+00 0. -1.
<scales pt_clust_5="13000.00000" pt_clust_6="13000.00000" pt_clust_7="13000.00000" pt_clust_8="13000.00000" pt_clust_9="184.41829"></scales>
<clustering>
<clus scale="   89.407">  7  8 -1 -1</clus>
<clus scale="   90.958">  5  6 -1 -1</clus>
<clus scale="  106.329">  1  7  2 -1</clus>
<clus scale="  184.418">  2  9  1 -1</clus>
<clus scale="  184.418">  2  5  1 -1</clus>
</clustering>
</event>
<event>
 9    1  0.1636528E-005  0.1329381E+03  0.7546771E-02  0.1223749E+00
         -1   -1    0    0    0  501 -0.00000000000E+00  0.00000000000E+00  0.38123280074E+03  0.38123280074E+03  0.00000000000E+00 0.  1.
         21   -1    0    0  501  502  0.00000000000E+00 -0.00000000000E+00 -0.91030731122E+02  0.91030731122E+02  0.00000000000E+00 0.  1.
         23    2    1    2    0    0  0.73209973778E+02  0.11923772414E+03  0.18415080383E+03  0.24888820128E+03  0.91959138015E+02 0.  0.
         23    2    1    2    0    0 -0.93717777655E+01 -0.53634200014E+02  0.51404044356E+02  0.11676643575E+03  0.89596691409E+02 0.  0.
        -11    1    4    4    0    0  0.22052192631E+02  0.52690492907E+01 -0.11160745281E+02  0.25271017302E+02  0.00000000000E+00 0. -1.
         11    1    4    4    0    0 -0.31423970396E+02 -0.58903249305E+02  0.62564789637E+02  0.91495418446E+02  0.00000000000E+00 0.  1.
        -13    1    3    3    0    0  0.36454542716E+02  0.29113654398E+01  0.13217524560E+02  0.38885893185E+02  0.00000000000E+00 0. -1.
         13    1    3    3    0    0  0.36755431062E+02  0.11632635870E+03  0.17093327927E+03  0.21000230809E+03  0.00000000000E+00 0.  1.
         -1    1    1    2    0  502 -0.63838196012E+02 -0.65603524128E+02  0.54647221428E+02  0.10660889483E+03  0.00000000000E+00 0.  1.
<scales pt_clust_5="13000.00000" pt_clust_6="13000.00000" pt_clust_7="13000.00000" pt_clust_8="13000.00000" pt_clust_9="91.53763"></scales>
<clustering>
<clus scale="   89.597">  5  6 -1 -1</clus>
<clus scale="   91.538">  2  9  1 -1</clus>
<clus scale="   91.959">  7  8 -1 -1</clus>
<clus scale="  131.315">  2  5  1 -1</clus>
<clus scale="   91.538">  2  5  1 -1</clus>
</clustering>
</event>
<event>
 9    1  0.1636528E-005  0.1153097E+03  0.7546771E-02  0.1251626E+00
         21   -1    0    0  501  502  0.00000000000E+00  0.00000000000E+00  0.39425104295E+02  0.39425104295E+02  0.00000000000E+00 0.  1.
         -2   -1    0    0    0  501 -0.00000000000E+00 -0.00000000000E+00 -0.77704765430E+03  0.77704765430E+03  0.00000000000E+00 0.  1.
         23    2    1    2    0    0  0.47377136912E+01  0.93684129436E+02 -0.53829679767E+03  0.55413876528E+03  0.92234303649E+02 0.  0.
         23    2    1    2    0    0 -0.55921483986E+01 -0.15155247870E+02 -0.10496685872E+03  0.13956951920E+03  0.90557471251E+02 0.  0.
        -11    1    4    4    0    0 -0.42209332972E+01 -0.46653758568E+02 -0.95954246472E+02  0.10677830717E+03  0.00000000000E+00 0. -1.
         11    1    4    4    0    0 -0.13712151013E+01  0.31498510698E+02 -0.90126122499E+01  0.32791212033E+02  0.00000000000E+00 0.  1.
        -13    1    3    3    0    0  0.40565427860E+02  0.68857269292E+02 -0.43063255360E+03  0.43798547201E+03  0.00000000000E+00 0.  1.
         13    1    3    3    0    0 -0.35827714169E+02  0.24826860144E+02 -0.10766424406E+03  0.11615329327E+03  0.00000000000E+00 0. -1.
         -2    1    1    2    0  502  0.85443470732E+00 -0.78528881567E+02 -0.94358893614E+02  0.12276447411E+03  0.00000000000E+00 0.  1.
<scales pt_clust_5="13000.00000" pt_clust_6="13000.00000" pt_clust_7="13000.00000" pt_clust_8="13000.00000" pt_clust_9="78.53353"></scales>
<clustering>
<clus scale="   78.534">  1  9  2 -1</clus>
<clus scale="   90.557">  5  6 -1 -1</clus>
<clus scale="   92.234">  7  8 -1 -1</clus>
<clus scale="  113.973">  1  5  2 -1</clus>
<clus scale="   78.534">  1  5  2 -1</clus>
</clustering>
</event>
<event>
 9    1  0.1636528E-005  0.1091806E+03  0.7546771E-02  0.1263044E+00
          1   -1    0    0  502    0 -0.00000000000E+00  0.00000000000E+00  0.44785922265E+03  0.44785922265E+03  0.00000000000E+00 0. -1.
         21   -1    0    0  501  502  0.00000000000E+00 -0.00000000000E+00 -0.20115026623E+03  0.20115026623E+03  0.00000000000E+00 0. -1.
         23    2    1    2    0    0 -0.47576321060E+01  0.55788129889E+02  0.36750807811E+03  0.38251517083E+03  0.90115026140E+02 0.  0.
         23    2    1    2    0    0  0.24493660464E+02 -0.68770232134E+02  0.23602336757E+02  0.12017334555E+03  0.92494748222E+02 0.  0.
        -11    1    3    3    0    0 -0.37385543768E+02  0.50026330324E+01  0.76268385987E+02  0.85085674006E+02  0.00000000000E+00 0.  1.
         11    1    3    3    0    0  0.32627911662E+02  0.50785496857E+02  0.29123969213E+03  0.29742949682E+03  0.00000000000E+00 0. -1.
        -13    1    4    4    0    0  0.50574759985E+02 -0.71707942160E+02  0.47857633060E+01  0.87879114964E+02  0.00000000000E+00 0.  1.
         13    1    4    4    0    0 -0.26081099521E+02  0.29377100267E+01  0.18816573451E+02  0.32294230582E+02  0.00000000000E+00 0. -1.
          1    1    1    2  501    0 -0.19736028358E+02  0.12982102244E+02 -0.14440145845E+03  0.14632097251E+03  0.00000000000E+00 0. -1.
<scales pt_clust_5="13000.00000" pt_clust_6="13000.00000" pt_clust_7="13000.00000" pt_clust_8="13000.00000" pt_clust_9="23.62299"></scales>
<clustering>
<clus scale="   23.623">  2  9  1 -1</clus>
<clus scale="   90.115">  5  6 -1 -1</clus>
<clus scale="   92.495">  7  8 -1 -1</clus>
<clus scale="  107.172">  1  5  2 -1</clus>
<clus scale="   23.623">  2  5  1 -1</clus>
</clustering>
</event>
<event>
 9    1  0.1636528E-005  0.9931053E+02  0.7546771E-02  0.1283448E+00
         21   -1    0    0  501  502  0.00000000000E+00  0.00000000000E+00  0.11972560322E+03  0.11972560322E+03  0.00000000000E+00 0. -1.
          3   -1    0    0  502    0 -0.00000000000E+00 -0.00000000000E+00 -0.38262371488E+03  0.38262371488E+03  0.00000000000E+00 0. -1.
         23    2    1    2    0    0  0.30879986340E+02 -0.18056239010E+02 -0.21461353433E+03  0.23534863494E+03  0.89724074386E+02 0.  0.
         23    2    1    2    0    0 -0.41251302048E+02 -0.29141411690E+02 -0.13267262715E+03  0.16975601558E+03  0.93081614914E+02 0.  0.
        -11    1    4    4    0    0  0.18008418645E+02 -0.17489673306E+02 -0.12663730189E+01  0.25135542864E+02  0.00000000000E+00 0. -1.
         11    1    4    4    0    0 -0.59259720693E+02 -0.11651738384E+02 -0.13140625413E+03  0.14462047271E+03  0.00000000000E+00 0.  1.
        -11    1    3    3    0    0  0.31988757844E+02 -0.44066579726E+02 -0.19579319592E+03  0.20322430870E+03  0.00000000000E+00 0. -1.
         11    1    3    3    0    0 -0.11087715035E+01  0.26010340716E+02 -0.18820338415E+02  0.32124326242E+02  0.00000000000E+00 0.  1.
          3    1    1    2  501    0  0.10371315708E+02  0.47197650701E+02  0.84388049815E+02  0.97244667580E+02  0.00000000000E+00 0. -1.
<scales pt_clust_5="13000.00000" pt_clust_6="13000.00000" pt_clust_7="13000.00000" pt_clust_8="13000.00000" pt_clust_9="48.32373"></scales>
<clustering>
<clus scale="   48.324">  1  9  2 -1</clus>
<clus scale="   89.724">  7  8 -1 -1</clus>
<clus scale="   93.082">  5  6 -1 -1</clus>
<clus scale="   96.171">  2  7  1 -1</clus>
<clus scale="   48.324">  1  5  2 -1</clus>
</clustering>
</event>
<event>
 9    1  0.1636528E-005  0.2325036E+03  0.7546771E-02  0.1124949E+00
          1   -1    0    0  502    0 -0.00000000000E+00  0.00000000000E+00  0.72074733586E+03  0.72074733586E+03  0.00000000000E+00 0. -1.
         21   -1    0    0  501  502  0.00000000000E+00 -0.00000000000E+00 -0.12123312933E+03  0.12123312933E+03  0.00000000000E+00 0. -1.
         23    2    1    2    0    0  0.21773918543E+02 -0.20797066978E+03  0.42540316122E+03  0.48271465639E+03  0.91212317746E+02 0.  0.
         23    2    1    2    0    0 -0.15325418562E+02  0.22712060793E+03  0.73026276526E+02  0.25618121362E+03  0.92072461386E+02 0.  0.
        -11    1    3    3    0    0 -0.28699900834E+02 -0.55120973876E+02  0.77198818798E+02  0.99104307135E+02  0.00000000000E+00 0. -1.
         11    1    3    3    0    0  0.50473819378E+02 -0.15284969590E+03  0.34820434242E+03  0.38361034926E+03  0.00000000000E+00 0.  1.
        -13    1    4    4    0    0 -0.49823358926E+02  0.10110063011E+03  0.50872887868E+02  0.12365983674E+03  0.00000000000E+00 0.  1.
         13    1    4    4    0    0  0.34497940363E+02  0.12601997782E+03  0.22153388657E+02  0.13252137688E+03  0.00000000000E+00 0. -1.
          1    1    1    2  501    0 -0.64484999810E+01 -0.19149938150E+02  0.10108476879E+03  0.10308459519E+03  0.00000000000E+00 0. -1.
<scales pt_clust_5="13000.00000" pt_clust_6="13000.00000" pt_clust_7="13000.00000" pt_clust_8="13000.00000" pt_clust_9="20.20653"></scales>
<clustering>
<clus scale="   20.207">  2  9  1 -1</clus>
<clus scale="   91.212">  5  6 -1 -1</clus>
<clus scale="   92.072">  7  8 -1 -1</clus>
<clus scale="  232.164">  1  5  2 -1</clus>
<clus scale="   20.207">  2  5  1 -1</clus>
</clustering>
</event>
<event>
 9    1  0.1636528E-005  0.1398705E+03  0.7546771E-02  0.1215088E+00
          2   -1    0    0  502    0 -0.00000000000E+00  0.00000000000E+00  0.65427369587E+03  0.65427369587E+03  0.00000000000E+00 0.  1.
         21   -1    0    0  501  502  0.00000000000E+00 -0.00000000000E+00 -0.61974910733E+02  0.61974910733E+02  0.00000000000E+00 0.  1.
         23    2    1    2    0    0  0.10591320383E+03  0.13381610779E+02  0.45423918277E+03  0.47552944055E+03  0.91642454160E+02 0.  0.
         23    2    1    2    0    0 -0.83064074872E+02 -0.12531587674E+02  0.16221339844E+03  0.20745941412E+03  0.98333822519E+02 0.  0.
        -11    1    4    4    0    0 -0.34109044879E+02  0.32561673454E+02  0.21555970502E+02  0.51849294932E+02  0.00000000000E+00 0.  1.
         11    1    4    4    0    0 -0.48955029993E+02 -0.45093261128E+02  0.14065742794E+03  0.15561011919E+03  0.00000000000E+00 0. -1.
        -13    1    3    3    0    0  0.72893815078E+02 -0.23512481915E+02  0.36976712385E+03  0.37761630124E+03  0.00000000000E+00 0.  1.
         13    1    3    3    0    0  0.33019388755E+02  0.36894092694E+02  0.84472058922E+02  0.97913139302E+02  0.00000000000E+00 0. -1.
          2    1    1    2  501    0 -0.22849128961E+02 -0.85002310486E+00 -0.24153796078E+02  0.33259751932E+02  0.00000000000E+00 0.  1.
<scales pt_clust_5="13000.00000" pt_clust_6="13000.00000" pt_clust_7="13000.00000" pt_clust_8="13000.00000" pt_clust_9="22.86493"></scales>
<clustering>
<clus scale="   22.865">  2  9  1 -1</clus>
<clus scale="   91.642">  7  8 -1 -1</clus>
<clus scale="   98.334">  5  6 -1 -1</clus>
<clus scale="  135.250">  1  7  2 -1</clus>
<clus scale="   22.865">  2  5  1 -1</clus>
</clustering>
</event>
<event>
 9    1  0.1636528E-005  0.1057474E+03  0.7546771E-02  0.1271488E+00
          3   -1    0    0  502    0 -0.00000000000E+00  0.00000000000E+00  0.13941939716E+03  0.13941939716E+03  0.00000000000E+00 0. -1.
         21   -1    0    0  501  502  0.00000000000E+00 -0.00000000000E+00 -0.25757265987E+03  0.25757265987E+03  0.00000000000E+00 0.  1.
         23    2    1    2    0    0 -0.21315885626E+02  0.41574745082E+02  0.85585083539E+02  0.13204331080E+03  0.89038210872E+02 0.  0.
         23    2    1    2    0    0 -0.20695629041E+01 -0.41405300427E+02 -0.21513290324E+03  0.23893444548E+03  0.95335309234E+02 0.  0.
        -11    1    4    4    0    0 -0.44938909277E+02 -0.23082639891E+02 -0.15385857957E+03  0.16194065684E+03  0.00000000000E+00 0.  1.
         11    1    4    4    0    0  0.42869346373E+02 -0.18322660536E+02 -0.61274323667E+02  0.76993788635E+02  0.00000000000E+00 0. -1.
        -13    1    3    3    0    0 -0.53463587587E+02  0.30596858468E+02  0.73701453738E+02  0.96054293131E+02  0.00000000000E+00 0. -1.
         13    1    3    3    0    0  0.32147701961E+02  0.10977886614E+02  0.11883629800E+02  0.35989017674E+02  0.00000000000E+00 0.  1.
          3    1    1    2  501    0  0.23385448530E+02 -0.16944465503E+00  0.11394556987E+02  0.26014300747E+02  0.00000000000E+00 0. -1.
<scales pt_clust_5="13000.00000" pt_clust_6="13000.00000" pt_clust_7="13000.00000" pt_clust_8="13000.00000" pt_clust_9="23.38607"></scales>
<clustering>
<clus scale="   23.386">  2  9  1 -1</clus>
<clus scale="   89.038">  7  8 -1 -1</clus>
<clus scale="   95.335">  5  6 -1 -1</clus>
<clus scale="  100.107">  1  7  2 -1</clus>
<clus scale="   23.386">  2  5  1 -1</clus>
</clustering>
</event>
<event>
 9    1  0.1636528E-005  0.9297586E+02  0.7546771E-02  0.1303564E+00
         -1   -1    0    0    0  501 -0.00000000000E+00  0.00000000000E+00  0.15636162445E+03  0.15636162445E+03  0.00000000000E+00 0.  1.
         21   -1    0    0  501  502  0.00000000000E+00 -0.00000000000E+00 -0.10152903853E+03  0.10152903853E+03  0.00000000000E+00 0. -1.
         23    2    1    2    0    0 -0.79379599119E+01  0.97256902495E+01  0.74412900879E+02  0.10820919578E+03  0.77552240298E+02 0.  0.
         23    2    1    2    0    0  0.38846459098E+02 -0.39004714049E+02 -0.13519838565E+02  0.10667767748E+03  0.90371044780E+02 0.  0.
        -13    1    3    3    0    0 -0.40722490545E+02  0.73211156750E+01  0.23434161408E+02  0.47550813787E+02  0.00000000000E+00 0.  1.
         13    1    3    3    0    0  0.32784530633E+02  0.24045745745E+01  0.50978739471E+02  0.60658381991E+02  0.00000000000E+00 0. -1.
        -13    1    4    4    0    0  0.23498377430E+02  0.27313717428E+02  0.43701972363E+01  0.36294786478E+02  0.00000000000E+00 0. -1.
         13    1    4    4    0    0  0.15348081669E+02 -0.66318431477E+02 -0.17890035801E+02  0.70382890999E+02  0.00000000000E+00 0.  1.
         -1    1    1    2    0  502 -0.30908499186E+02  0.29279023799E+02 -0.60604763917E+01  0.43003789725E+02  0.00000000000E+00 0.  1.
<scales pt_clust_5="13000.00000" pt_clust_6="13000.00000" pt_clust_7="13000.00000" pt_clust_8="13000.00000" pt_clust_9="42.57460"></scales>
<clustering>
<clus scale="   42.575">  2  9  1 -1</clus>
<clus scale="   77.552">  5  6 -1 -1</clus>
<clus scale="   80.573">  1  5  2 -1</clus>
<clus scale="   90.371">  7  8 -1 -1</clus>
<clus scale="   42.575">  2  5  1 -1</clus>
</clustering>
</event>
<event>
 9    1  0.1636528E-005  0.9261695E+02  0.7546771E-02  0.1297296E+00
          2   -1    0    0  502    0 -0.00000000000E+00  0.00000000000E+00  0.11071475958E+03  0.11071475958E+03  0.00000000000E+00 0. -1.
         21   -1    0    0  501  502  0.00000000000E+00 -0.00000000000E+00 -0.12424914344E+03  0.12424914344E+03  0.00000000000E+00 0. -1.
         23    2    1    2    0    0  0.34436521104E+02 -0.81219861875E+01  0.11895101387E+02  0.96442109193E+02  0.88925510081E+02 0.  0.
         23    2    1    2    0    0 -0.93763788314E+00 -0.11865959710E+02 -0.36575318996E+02  0.97951820103E+02  0.90083988239E+02 0.  0.
        -11    1    3    3    0    0 -0.22932366551E+02 -0.15813336596E+02 -0.16069398794E+02  0.32158678884E+02  0.00000000000E+00 0.  1.
         11    1    3    3    0    0  0.57368887656E+02  0.76913504086E+01  0.27964500181E+02  0.64283430309E+02  0.00000000000E+00 0. -1.
        -11    1    4    4    0    0 -0.26341340274E+02 -0.14517514678E+02  0.19834981306E+02  0.36028473785E+02  0.00000000000E+00 0.  1.
         11    1    4    4    0    0  0.25403702391E+02  0.26515549678E+01 -0.56410300303E+02  0.61923346318E+02  0.00000000000E+00 0. -1.
          2    1    1    2  501    0 -0.33498883221E+02  0.19987945898E+02  0.11145833742E+02  0.40569973726E+02  0.00000000000E+00 0. -1.
<scales pt_clust_5="13000.00000" pt_clust_6="13000.00000" pt_clust_7="13000.00000" pt_clust_8="13000.00000" pt_clust_9="39.00891"></scales>
<clustering>
<clus scale="   39.009">  2  9  1 -1</clus>
<clus scale="   88.926">  5  6 -1 -1</clus>
<clus scale="   90.084">  7  8 -1 -1</clus>
<clus scale="   91.491">  1  5  2 -1</clus>
<clus scale="   39.009">  2  5  1 -1</clus>
</clustering>
</event>
<event>
 9    1  0.1636528E-005  0.1030312E+03  0.7546771E-02  0.1275861E+00
         21   -1    0    0  501  502  0.00000000000E+00  0.00000000000E+00  0.81277891908E+02  0.81277891908E+02  0.00000000000E+00 0. -1.
          1   -1    0    0  502    0 -0.00000000000E+00 -0.00000000000E+00 -0.55762944737E+03  0.55762944737E+03  0.00000000000E+00 0. -1.
         23    2    1    2    0    0 -0.30561135066E+02 -0.25807775046E+02 -0.37110536120E+03  0.38510395320E+03  0.94793678241E+02 0.  0.
         23    2    1    2    0    0  0.45319397276E+02  0.63697109011E+01 -0.16238772934E+03  0.19166805254E+03  0.90952991905E+02 0.  0.
        -11    1    3    3    0    0  0.25874784770E+02  0.15696596171E+02 -0.15502087886E+03  0.15794733458E+03  0.00000000000E+00 0. -1.
         11    1    3    3    0    0 -0.56435919836E+02 -0.41504371217E+02 -0.21608448234E+03  0.22715661863E+03  0.00000000000E+00 0.  1.
        -13    1    4    4    0    0  0.15999168818E+02 -0.36520013227E+02 -0.31392243478E+02  0.50746011859E+02  0.00000000000E+00 0.  1.
         13    1    4    4    0    0  0.29320228458E+02  0.42889724128E+02 -0.13099548587E+03  0.14092204068E+03  0.00000000000E+00 0. -1.
          1    1    1    2  501    0 -0.14758262210E+02  0.19438064145E+02  0.57141535084E+02  0.62135333530E+02  0.00000000000E+00 0. -1.
<scales pt_clust_5="13000.00000" pt_clust_6="13000.00000" pt_clust_7="13000.00000" pt_clust_8="13000.00000" pt_clust_9="24.40583"></scales>
<clustering>
<clus scale="   24.406">  1  9  2 -1</clus>
<clus scale="   90.953">  7  8 -1 -1</clus>
<clus scale="   94.794">  5  6 -1 -1</clus>
<clus scale="   99.509">  1  7  2 -1</clus>
<clus scale="   24.406">  1  5  2 -1</clus>
</clustering>
</event>
<event>
 9    1  0.1636528E-005  0.1117988E+03  0.7546771E-02  0.1257377E+00
          1   -1    0    0  502    0 -0.00000000000E+00  0.00000000000E+00  0.52007225675E+03  0.52007225675E+03  0.00000000000E+00 0. -1.
         21   -1    0    0  501  502  0.00000000000E+00 -0.00000000000E+00 -0.41752419864E+02  0.41752419864E+02  0.00000000000E+00 0.  1.
         23    2    1    2    0    0 -0.68264975376E+02  0.81816779123E+01  0.30893802859E+03  0.32935377485E+03  0.91127146224E+02 0.  0.
         23    2    1    2    0    0  0.53519924920E+02  0.23036417818E+02  0.74570760273E+02  0.13156936144E+03  0.91403718043E+02 0.  0.
        -11    1    4    4    0    0  0.14457671700E+02  0.55649976887E+02  0.38601673798E+02  0.69253400051E+02  0.00000000000E+00 0.  1.
         11    1    4    4    0    0  0.39062253220E+02 -0.32613559069E+02  0.35969086475E+02  0.62315961387E+02  0.00000000000E+00 0. -1.
        -13    1    3    3    0    0  0.11881999895E+01  0.37471226707E+02  0.12704785939E+03  0.13246381855E+03  0.00000000000E+00 0.  1.
         13    1    3    3    0    0 -0.69453175365E+02 -0.29289548794E+02  0.18189016920E+03  0.19688995629E+03  0.00000000000E+00 0. -1.
          1    1    1    2  501    0  0.14745050456E+02 -0.31218095731E+02  0.94811048022E+02  0.10090154033E+03  0.00000000000E+00 0. -1.
<scales pt_clust_5="13000.00000" pt_clust_6="13000.00000" pt_clust_7="13000.00000" pt_clust_8="13000.00000" pt_clust_9="34.52517"></scales>
<clustering>
<clus scale="   34.525">  2  9  1 -1</clus>
<clus scale="   91.127">  7  8 -1 -1</clus>
<clus scale="   91.404">  5  6 -1 -1</clus>
<clus scale="  111.573">  1  7  2 -1</clus>
<clus scale="   34.525">  2  5  1 -1</clus>
</clustering>
</event>
<event>
 9    1  0.1636528E-005  0.1086181E+03  0.7546771E-02  0.1264518E+00
         21   -1    0    0  501  502  0.00000000000E+00  0.00000000000E+00  0.52529242959E+03  0.52529242959E+03  0.00000000000E+00 0. -1.
          1   -1    0    0  502    0 -0.00000000000E+00 -0.00000000000E+00 -0.13027737762E+03  0.13027737762E+03  0.00000000000E+00 0. -1.
         23    2    1    2    0    0 -0.41249948900E+02  0.55181201084E+02 -0.76900555836E+02  0.13483964469E+03  0.86726645594E+02 0.  0.
         23    2    1    2    0    0  0.54484540064E+02  0.24447328918E+02  0.12856603318E+03  0.16801953383E+03  0.90194799538E+02 0.  0.
        -11    1    4    4    0    0  0.19306646333E+02  0.50586495893E+02  0.10528842767E+03  0.11839507236E+03  0.00000000000E+00 0. -1.
         11    1    4    4    0    0  0.35177893731E+02 -0.26139166975E+02  0.23277605512E+02  0.49624461467E+02  0.00000000000E+00 0.  1.
        -13    1    3    3    0    0 -0.19427616211E+02 -0.20817595098E+02 -0.70474692885E+01  0.29333792130E+02  0.00000000000E+00 0.  1.
         13    1    3    3    0    0 -0.21822332689E+02  0.75998796182E+02 -0.69853086547E+02  0.10550585256E+03  0.00000000000E+00 0. -1.
          1    1    1    2  501    0 -0.13234591164E+02 -0.79628530002E+02  0.34334957463E+03  0.35271062869E+03  0.00000000000E+00 0. -1.
<scales pt_clust_5="13000.00000" pt_clust_6="13000.00000" pt_clust_7="13000.00000" pt_clust_8="13000.00000" pt_clust_9="80.72086"></scales>
<clustering>
<clus scale="   80.721">  1  9  2 -1</clus>
<clus scale="   86.727">  7  8 -1 -1</clus>
<clus scale="   90.195">  5  6 -1 -1</clus>
<clus scale="  105.756">  2  7  1 -1</clus>
<clus scale="   80.721">  1  5  2 -1</clus>
</clustering>
</event>
<event>
 9    1  0.1636528E-005  0.9948801E+02  0.7546771E-02  0.1283180E+00
          2   -1    0    0  502    0 -0.00000000000E+00  0.00000000000E+00  0.30457487634E+03  0.30457487634E+03  0.00000000000E+00 0. -1.
         21   -1    0    0  501  502  0.00000000000E+00 -0.00000000000E+00 -0.40934389124E+02  0.40934389124E+02  0.00000000000E+00 0.  1.
         23    2    1    2    0    0 -0.10647029825E+02  0.25433832052E+02  0.13597945070E+03  0.16725818038E+03  0.93405828694E+02 0.  0.
         23    2    1    2    0    0  0.34165032110E+02 -0.29150756160E+02  0.10663090321E+03  0.14648351572E+03  0.89834597208E+02 0.  0.
        -11    1    4    4    0    0  0.78297504814E-01 -0.38789052791E+02  0.10395892237E+03  0.11095969668E+03  0.00000000000E+00 0.  1.
         11    1    4    4    0    0  0.34086734605E+02  0.96382966310E+01  0.26719808421E+01  0.35523819046E+02  0.00000000000E+00 0. -1.
        -11    1    3    3    0    0 -0.50480285853E+02  0.11378763754E+02  0.96204849407E+02  0.10923876864E+03  0.00000000000E+00 0.  1.
         11    1    3    3    0    0  0.39833256028E+02  0.14055068297E+02  0.39774601296E+02  0.58019411742E+02  0.00000000000E+00 0. -1.
          2    1    1    2  501    0 -0.23518002285E+02  0.37169241086E+01  0.21030133306E+02  0.31767569362E+02  0.00000000000E+00 0. -1.
<scales pt_clust_5="13000.00000" pt_clust_6="13000.00000" pt_clust_7="13000.00000" pt_clust_8="13000.00000" pt_clust_9="23.80991"></scales>
<clustering>
<clus scale="   23.810">  2  9  1 -1</clus>
<clus scale="   89.835">  5  6 -1 -1</clus>
<clus scale="   93.406">  7  8 -1 -1</clus>
<clus scale="   96.143">  2  5  1 -1</clus>
<clus scale="   23.810">  2  5  1 -1</clus>
</clustering>
</event>
<event>
 9    1  0.1636528E-005  0.1182109E+03  0.7546771E-02  0.1256470E+00
         21   -1    0    0  501  502  0.00000000000E+00  0.00000000000E+00  0.30881682158E+03  0.30881682158E+03  0.00000000000E+00 0.  1.
         -1   -1    0    0    0  501 -0.00000000000E+00 -0.00000000000E+00 -0.46532639280E+02  0.46532639280E+02  0.00000000000E+00 0.  1.
         23    2    1    2    0    0 -0.39517603567E+02 -0.26751263371E+02  0.81063400898E+02  0.12811838470E+03  0.86981460381E+02 0.  0.
         23    2    1    2    0    0  0.29065636575E+02  0.81108716513E+01  0.16081488419E+03  0.19768266742E+03  0.11093427133E+03 0.  0.
        -11    1    3    3    0    0  0.34828330327E+01 -0.48610506848E+02  0.27196797463E+02  0.55810189878E+02  0.00000000000E+00 0.  1.
         11    1    3    3    0    0 -0.43000436599E+02  0.21859243478E+02  0.53866603435E+02  0.72308194824E+02  0.00000000000E+00 0. -1.
        -11    1    4    4    0    0 -0.31582270211E+02 -0.29689204233E+02  0.65755425068E+02  0.78756996931E+02  0.00000000000E+00 0.  1.
         11    1    4    4    0    0  0.60647906786E+02  0.37800075885E+02  0.95059459118E+02  0.11892567049E+03  0.00000000000E+00 0. -1.
         -1    1    1    2    0  502  0.10451966992E+02  0.18640391719E+02  0.20405897215E+02  0.29548408732E+02  0.00000000000E+00 0.  1.
<scales pt_clust_5="13000.00000" pt_clust_6="13000.00000" pt_clust_7="13000.00000" pt_clust_8="13000.00000" pt_clust_9="21.37073"></scales>
<clustering>
<clus scale="   21.371">  1  9  2 -1</clus>
<clus scale="   86.981">  5  6 -1 -1</clus>
<clus scale="   96.089">  2  5  1 -1</clus>
<clus scale="  110.934">  7  8 -1 -1</clus>
<clus scale="   21.371">  1  5  2 -1</clus>
</clustering>
</event>
<event>
 9    1  0.1636528E-005  0.1047943E+03  0.7546771E-02  0.1270989E+00
         21   -1    0    0  501  502  0.00000000000E+00  0.00000000000E+00  0.11632248916E+03  0.11632248916E+03  0.00000000000E+00 0.  1.
          1   -1    0    0  502    0 -0.00000000000E+00 -0.00000000000E+00 -0.16532040760E+03  0.16532040760E+03  0.00000000000E+00 0. -1.
         23    2    1    2    0    0 -0.13239525429E+02 -0.40537564266E+02 -0.69832067451E+02  0.12187876215E+03  0.90329042224E+02 0.  0.
         23    2    1    2    0    0  0.33908943382E+02  0.72654643518E+02  0.12059237502E+02  0.12057573467E+03  0.89244433525E+02 0.  0.
        -11    1    4    4    0    0 -0.13242784781E+02  0.50851727100E+02  0.35672596119E+02  0.63512231985E+02  0.00000000000E+00 0.  1.
         11    1    4    4    0    0  0.47151728163E+02  0.21802916418E+02 -0.23613358617E+02  0.57063502681E+02  0.00000000000E+00 0. -1.
        -13    1    3    3    0    0  0.24221034240E+02  0.37249642083E+01  0.71252216682E+01  0.25520631690E+02  0.00000000000E+00 0.  1.
         13    1    3    3    0    0 -0.37460559669E+02 -0.44262528474E+02 -0.76957289119E+02  0.96358130463E+02  0.00000000000E+00 0. -1.
          1    1    1    2  501    0 -0.20669417953E+02 -0.32117079252E+02  0.87749115115E+01  0.39188399945E+02  0.00000000000E+00 0. -1.
<scales pt_clust_5="13000.00000" pt_clust_6="13000.00000" pt_clust_7="13000.00000" pt_clust_8="13000.00000" pt_clust_9="38.19335"></scales>
<clustering>
<clus scale="   38.193">  1  9  2 -1</clus>
<clus scale="   89.244">  5  6 -1 -1</clus>
<clus scale="   90.329">  7  8 -1 -1</clus>
<clus scale="  103.861">  1  5  2 -1</clus>
<clus scale="   38.193">  1  5  2 -1</clus>
</clustering>
</event>
<event>
 9    1  0.1636528E-005  0.1146547E+03  0.7546771E-02  0.1254317E+00
         21   -1    0    0  501  502  0.00000000000E+00  0.00000000000E+00  0.65178999264E+02  0.65178999264E+02  0.00000000000E+00 0. -1.
          1   -1    0    0  502    0 -0.00000000000E+00 -0.00000000000E+00 -0.45879208025E+03  0.45879208025E+03  0.00000000000E+00 0. -1.
         23    2    1    2    0    0  0.10835467844E+03  0.15882876578E+02 -0.26509136630E+03  0.30162008522E+03  0.93317957608E+02 0.  0.
         23    2    1    2    0    0 -0.20047135058E+02 -0.54742445344E+00 -0.81289869341E+02  0.12103838144E+03  0.87407434614E+02 0.  0.
        -11    1    3    3    0    0  0.73372840853E+02 -0.35647739791E+02 -0.15295579415E+03  0.17334881047E+03  0.00000000000E+00 0. -1.
         11    1    3    3    0    0  0.34981837587E+02  0.51530616369E+02 -0.11213557215E+03  0.12827127475E+03  0.00000000000E+00 0.  1.
        -13    1    4    4    0    0 -0.12130012621E+02 -0.40770491948E+02 -0.63312962539E+02  0.76275169258E+02  0.00000000000E+00 0.  1.
         13    1    4    4    0    0 -0.79171224375E+01  0.40223067495E+02 -0.17976906802E+02  0.44763212179E+02  0.00000000000E+00 0. -1.
          1    1    1    2  501    0 -0.88307543382E+02 -0.15335452124E+02 -0.47231845349E+02  0.10131261286E+03  0.00000000000E+00 0. -1.
<scales pt_clust_5="13000.00000" pt_clust_6="13000.00000" pt_clust_7="13000.00000" pt_clust_8="13000.00000" pt_clust_9="89.62923"></scales>
<clustering>
<clus scale="   87.407">  7  8 -1 -1</clus>
<clus scale="   89.629">  1  9  2 -1</clus>
<clus scale="   93.318">  5  6 -1 -1</clus>
<clus scale="  109.898">  1  7  2 -1</clus>
<clus scale="   89.629">  1  5  2 -1</clus>
</clustering>
</event>
<event>
 9    1  0.1636528E-005  0.1230052E+03  0.7546771E-02  0.1238557E+00
          3   -1    0    0  502    0 -0.00000000000E+00  0.00000000000E+00  0.19633962897E+03  0.19633962897E+03  0.00000000000E+00 0. -1.
         21   -1    0    0  501  502  0.00000000000E+00 -0.00000000000E+00 -0.15633228178E+03  0.15633228178E+03  0.00000000000E+00 0. -1.
         23    2    1    2    0    0 -0.39196898015E+02 -0.91672890690E+02  0.58329890397E+02  0.14610692274E+03  0.89468100782E+02 0.  0.
         23    2    1    2    0    0  0.78160017950E+02  0.22341253107E+02  0.99989951578E+01  0.12214277398E+03  0.90613229366E+02 0.  0.
        -11    1    3    3    0    0  0.14289119587E+02 -0.71749552469E+02  0.49549977523E+02  0.88359365608E+02  0.00000000000E+00 0. -1.
         11    1    3    3    0    0 -0.53486017601E+02 -0.19923338221E+02  0.87799128738E+01  0.57747557133E+02  0.00000000000E+00 0.  1.
        -13    1    4    4    0    0  0.73754623087E+02 -0.85823544084E+01 -0.21982845649E+02  0.77438018677E+02  0.00000000000E+00 0. -1.
         13    1    4    4    0    0  0.44053948638E+01  0.30923607516E+02  0.31981840807E+02  0.44704755307E+02  0.00000000000E+00 0.  1.
          3    1    1    2  501    0 -0.38963119935E+02  0.69331637583E+02 -0.28321538371E+02  0.84422214024E+02  0.00000000000E+00 0. -1.
<scales pt_clust_5="13000.00000" pt_clust_6="13000.00000" pt_clust_7="13000.00000" pt_clust_8="13000.00000" pt_clust_9="79.52987"></scales>
<clustering>
<clus scale="   79.530">  2  9  1 -1</clus>
<clus scale="   89.468">  5  6 -1 -1</clus>
<clus scale="   90.613">  7  8 -1 -1</clus>
<clus scale="  122.164">  1  5  2 -1</clus>
<clus scale="   79.530">  2  5  1 -1</clus>
</clustering>
</event>
<event>
 9    1  0.1636528E-005  0.1124030E+03  0.7546771E-02  0.1256238E+00
          1   -1    0    0  502    0 -0.00000000000E+00  0.00000000000E+00  0.14083423793E+03  0.14083423793E+03  0.00000000000E+00 0. -1.
         21   -1    0    0  501  502  0.00000000000E+00 -0.00000000000E+00 -0.23885276878E+03  0.23885276878E+03  0.00000000000E+00 0. -1.
         23    2    1    2    0    0  0.71502049018E+02  0.29047053776E+02  0.72224755374E+02  0.14005045159E+03  0.91877305990E+02 0.  0.
         23    2    1    2    0    0 -0.30551489448E+02 -0.20440728146E+02 -0.46895363412E+02  0.10938400339E+03  0.91730410521E+02 0.  0.
        -11    1    3    3    0    0  0.46799466967E+02  0.41248861365E+02  0.88329027027E+02  0.10813730017E+03  0.00000000000E+00 0. -1.
         11    1    3    3    0    0  0.24702582050E+02 -0.12201807588E+02 -0.16104271653E+02  0.31913151425E+02  0.00000000000E+00 0.  1.
        -13    1    4    4    0    0  0.81770988454E+01 -0.40556933618E+02 -0.50860287485E+02  0.65562936580E+02  0.00000000000E+00 0. -1.
         13    1    4    4    0    0 -0.38728588293E+02  0.20116205472E+02  0.39649240727E+01  0.43821066813E+02  0.00000000000E+00 0.  1.
          1    1    1    2  501    0 -0.40950559570E+02 -0.86063256306E+01 -0.12334792281E+03  0.13025255172E+03  0.00000000000E+00 0. -1.
<scales pt_clust_5="13000.00000" pt_clust_6="13000.00000" pt_clust_7="13000.00000" pt_clust_8="13000.00000" pt_clust_9="41.84516"></scales>
<clustering>
<clus scale="   41.845">  2  9  1 -1</clus>
<clus scale="   91.730">  7  8 -1 -1</clus>
<clus scale="   91.877">  5  6 -1 -1</clus>
<clus scale="  112.283">  2  7  1 -1</clus>
<clus scale="   41.845">  2  5  1 -1</clus>
</clustering>
</event>
<event>
 9    1  0.1636528E-005  0.1130091E+03  0.7546771E-02  0.1256575E+00
         -2   -1    0    0    0  501 -0.00000000000E+00  0.00000000000E+00  0.98714261853E+02  0.98714261853E+02  0.00000000000E+00 0.  1.
         21   -1    0    0  501  502  0.00000000000E+00 -0.00000000000E+00 -0.29206969232E+03  0.29206969232E+03  0.00000000000E+00 0.  1.
         23    2    1    2    0    0 -0.60140789752E+02 -0.14365869573E+02  0.39626090414E+02  0.12110175310E+03  0.96291820844E+02 0.  0.
         23    2    1    2    0    0  0.38190916772E+02  0.34692341327E+02 -0.18422790121E+03  0.21248187058E+03  0.92447396233E+02 0.  0.
        -11    1    3    3    0    0 -0.74829769923E+02  0.16154141122E+02  0.41687449087E+02  0.87168194621E+02  0.00000000000E+00 0.  1.
         11    1    3    3    0    0  0.14688980172E+02 -0.30520010695E+02 -0.20613586733E+01  0.33933558476E+02  0.00000000000E+00 0. -1.
        -13    1    4    4    0    0 -0.18060352755E+00  0.53683897245E+02 -0.57261969240E+02  0.78491570008E+02  0.00000000000E+00 0.  1.
         13    1    4    4    0    0  0.38371520300E+02 -0.18991555919E+02 -0.12696593197E+03  0.13399030057E+03  0.00000000000E+00 0. -1.
         -2    1    1    2    0  502  0.21949872979E+02 -0.20326471753E+02 -0.48753619668E+02  0.57200330493E+02  0.00000000000E+00 0.  1.
<scales pt_clust_5="13000.00000" pt_clust_6="13000.00000" pt_clust_7="13000.00000" pt_clust_8="13000.00000" pt_clust_9="29.91592"></scales>
<clustering>
<clus scale="   29.916">  2  9  1 -1</clus>
<clus scale="   92.447">  7  8 -1 -1</clus>
<clus scale="   96.292">  5  6 -1 -1</clus>
<clus scale="  109.752">  2  7  1 -1</clus>
<clus scale="   29.916">  2  5  1 -1</clus>
</clustering>
</event>
<event>
 9    1  0.1636528E-005  0.2283879E+03  0.7546771E-02  0.1127891E+00
         21   -1    0    0  501  502  0.00000000000E+00  0.00000000000E+00  0.61256623839E+02  0.61256623839E+02  0.00000000000E+00 0.  1.
          1   -1    0    0  502    0 -0.00000000000E+00 -0.00000000000E+00 -0.11804393601E+04  0.11804393601E+04  0.00000000000E+00 0. -1.
         23    2    1    2    0    0  0.20382495387E+03  0.41984886078E+02 -0.70087621012E+03  0.73680481175E+03  0.91359324850E+02 0.  0.
         23    2    1    2    0    0 -0.21232908512E+03 -0.12674867281E+02 -0.41405985862E+03  0.47407832364E+03  0.89779718049E+02 0.  0.
        -13    1    4    4    0    0 -0.18018848139E+03  0.79075473991E+01 -0.26745790817E+03  0.32258975615E+03  0.00000000000E+00 0.  1.
         13    1    4    4    0    0 -0.32140603727E+02 -0.20582414680E+02 -0.14660195046E+03  0.15148856749E+03  0.00000000000E+00 0. -1.
        -13    1    3    3    0    0  0.98628520438E+02 -0.10463909527E+02 -0.43399465674E+03  0.44518360317E+03  0.00000000000E+00 0. -1.
         13    1    3    3    0    0  0.10519643343E+03  0.52448795605E+02 -0.26688155338E+03  0.29162120859E+03  0.00000000000E+00 0.  1.
          1    1    1    2  501    0  0.85041312539E+01 -0.29310018797E+02 -0.42466675180E+01  0.30812848542E+02  0.00000000000E+00 0. -1.
<scales pt_clust_5="13000.00000" pt_clust_6="13000.00000" pt_clust_7="13000.00000" pt_clust_8="13000.00000" pt_clust_9="30.51880"></scales>
<clustering>
<clus scale="   30.519">  1  9  2 -1</clus>
<clus scale="   89.780">  5  6 -1 -1</clus>
<clus scale="   91.359">  7  8 -1 -1</clus>
<clus scale="  227.761">  1  5  2 -1</clus>
<clus scale="   30.519">  1  5  2 -1</clus>
</clustering>
</event>
<event>
 9    1  0.1636528E-005  0.1327500E+03  0.7546771E-02  0.1224329E+00
          1   -1    0    0  502    0 -0.00000000000E+00  0.00000000000E+00  0.75424738495E+03  0.75424738495E+03  0.00000000000E+00 0. -1.
         21   -1    0    0  501  502  0.00000000000E+00 -0.00000000000E+00 -0.36182850287E+02  0.36182850287E+02  0.00000000000E+00 0.  1.
         23    2    1    2    0    0  0.92974161582E+02 -0.40897180099E+02  0.49399337189E+03  0.51281142810E+03  0.92894215406E+02 0.  0.
         23    2    1    2    0    0 -0.71197900504E+02  0.21387753904E+02  0.21494159951E+03  0.24698921063E+03  0.96318232508E+02 0.  0.
        -11    1    3    3    0    0  0.44386896831E+02 -0.61360698056E+02  0.37636403059E+03  0.38390782149E+03  0.00000000000E+00 0. -1.
         11    1    3    3    0    0  0.48587264751E+02  0.20463517956E+02  0.11762934130E+03  0.12890360661E+03  0.00000000000E+00 0.  1.
        -13    1    4    4    0    0  0.24309400711E+01 -0.30417844788E+02  0.40757421344E+02  0.50914851918E+02  0.00000000000E+00 0. -1.
         13    1    4    4    0    0 -0.73628840575E+02  0.51805598692E+02  0.17418417817E+03  0.19607435871E+03  0.00000000000E+00 0.  1.
          1    1    1    2  501    0 -0.21776261078E+02  0.19509426195E+02  0.91295632635E+01  0.30629596510E+02  0.00000000000E+00 0. -1.
<scales pt_clust_5="13000.00000" pt_clust_6="13000.00000" pt_clust_7="13000.00000" pt_clust_8="13000.00000" pt_clust_9="29.23736"></scales>
<clustering>
<clus scale="   29.237">  2  9  1 -1</clus>
<clus scale="   92.894">  5  6 -1 -1</clus>
<clus scale="   96.318">  7  8 -1 -1</clus>
<clus scale="  130.287">  1  5  2 -1</clus>
<clus scale="   29.237">  2  5  1 -1</clus>
</clustering>
</event>
<event>
 9    1  0.1636528E-005  0.1910654E+03  0.7546771E-02  0.1157632E+00
         -2   -1    0    0    0  501 -0.00000000000E+00  0.00000000000E+00  0.11449328931E+03  0.11449328931E+03  0.00000000000E+00 0.  1.
         21   -1    0    0  501  502  0.00000000000E+00 -0.00000000000E+00 -0.53693945643E+03  0.53693945643E+03  0.00000000000E+00 0.  1.
         23    2    1    2    0    0 -0.14960686563E+03  0.23864694965E+01 -0.67504095560E+02  0.18872012844E+03  0.93115919587E+02 0.  0.
         23    2    1    2    0    0  0.20698471633E+03 -0.37279449575E+02 -0.26812023391E+03  0.35295028631E+03  0.91940277455E+02 0.  0.
        -11    1    4    4    0    0  0.18451281409E+03 -0.43320196859E+02 -0.26969022718E+03  0.32962772434E+03  0.00000000000E+00 0.  1.
         11    1    4    4    0    0  0.22471902240E+02  0.60407472843E+01  0.15699932632E+01  0.23322561970E+02  0.00000000000E+00 0. -1.
        -13    1    3    3    0    0 -0.96231092994E+02 -0.42692594504E+02 -0.30212454935E+02  0.10952567424E+03  0.00000000000E+00 0.  1.
         13    1    3    3    0    0 -0.53375772637E+02  0.45079064000E+02 -0.37291640626E+02  0.79194454201E+02  0.00000000000E+00 0. -1.
         -2    1    1    2    0  502 -0.57377850702E+02  0.34892980078E+02 -0.86821837646E+02  0.10976233098E+03  0.00000000000E+00 0.  1.
<scales pt_clust_5="13000.00000" pt_clust_6="13000.00000" pt_clust_7="13000.00000" pt_clust_8="13000.00000" pt_clust_9="67.15458"></scales>
<clustering>
<clus scale="   67.155">  2  9  1 -1</clus>
<clus scale="   91.940">  5  6 -1 -1</clus>
<clus scale="   93.116">  7  8 -1 -1</clus>
<clus scale="  190.495">  2  5  1 -1</clus>
<clus scale="   67.155">  2  5  1 -1</clus>
</clustering>
</event>
<event>
 9    1  0.1636528E-005  0.1962070E+03  0.7546771E-02  0.1153545E+00
         21   -1    0    0  501  502  0.00000000000E+00  0.00000000000E+00  0.28168955823E+03  0.28168955823E+03  0.00000000000E+00 0. -1.
          1   -1    0    0  502    0 -0.00000000000E+00 -0.00000000000E+00 -0.59914013308E+03  0.59914013308E+03  0.00000000000E+00 0. -1.
         23    2    1    2    0    0 -0.15146844601E+03 -0.46581155821E+02 -0.34192049617E+03  0.38921014202E+03  0.97274944038E+02 0.  0.
         23    2    1    2    0    0  0.28819272483E+03 -0.61663258094E+02  0.57786555544E+02  0.31407975183E+03  0.91920620446E+02 0.  0.
        -11    1    4    4    0    0  0.21121819039E+03 -0.83980858087E+02  0.55128371663E+02  0.23389109825E+03  0.00000000000E+00 0. -1.
         11    1    4    4    0    0  0.76974534441E+02  0.22317599994E+02  0.26581838807E+01  0.80188653582E+02  0.00000000000E+00 0.  1.
        -11    1    3    3    0    0 -0.12125419278E+03  0.68036122795E+01 -0.25907025053E+03  0.28612281125E+03  0.00000000000E+00 0.  1.
         11    1    3    3    0    0 -0.30214253224E+02 -0.53384768101E+02 -0.82850245641E+02  0.10308733077E+03  0.00000000000E+00 0. -1.
          1    1    1    2  501    0 -0.13672427882E+03  0.10824441392E+03 -0.33316634226E+02  0.17753979745E+03  0.00000000000E+00 0. -1.
<scales pt_clust_5="13000.00000" pt_clust_6="13000.00000" pt_clust_7="13000.00000" pt_clust_8="13000.00000" pt_clust_9="174.38573"></scales>
<clustering>
<clus scale="   91.921">  5  6 -1 -1</clus>
<clus scale="   97.275">  7  8 -1 -1</clus>
<clus scale="  174.386">  1  9  2 -1</clus>
<clus scale="  193.608">  1  5  2 -1</clus>
<clus scale="  174.386">  1  5  2 -1</clus>
</clustering>
</event>
<event>
 9    1  0.1636528E-005  0.9290214E+02  0.7546771E-02  0.1297080E+00
          3   -1    0    0  502    0 -0.00000000000E+00  0.00000000000E+00  0.43195939139E+03  0.43195939139E+03  0.00000000000E+00 0. -1.
         21   -1    0    0  501  502  0.00000000000E+00 -0.00000000000E+00 -0.47819979857E+02  0.47819979857E+02  0.00000000000E+00 0. -1.
         23    2    1    2    0    0 -0.19857568601E+01 -0.51712598312E+01  0.20057212556E+03  0.22022600955E+03  0.90772421880E+02 0.  0.
         23    2    1    2    0    0 -0.63797001208E+02 -0.18798065483E+02  0.13283161296E+03  0.17308944823E+03  0.88838589914E+02 0.  0.
        -11    1    3    3    0    0 -0.33571914042E+02 -0.12148304063E+02  0.17605126171E+03  0.17963491157E+03  0.00000000000E+00 0. -1.
         11    1    3    3    0    0  0.31586157182E+02  0.69770442316E+01  0.24520863847E+02  0.40591097984E+02  0.00000000000E+00 0.  1.
        -13    1    4    4    0    0 -0.21576672853E+02  0.24982139738E+02  0.97079463737E+02  0.10253819970E+03  0.00000000000E+00 0.  1.
         13    1    4    4    0    0 -0.42220328355E+02 -0.43780205221E+02  0.35752149220E+02  0.70551248532E+02  0.00000000000E+00 0. -1.
          3    1    1    2  501    0  0.65782758068E+02  0.23969325314E+02  0.50735673015E+02  0.86463913464E+02  0.00000000000E+00 0. -1.
<scales pt_clust_5="13000.00000" pt_clust_6="13000.00000" pt_clust_7="13000.00000" pt_clust_8="13000.00000" pt_clust_9="70.01357"></scales>
<clustering>
<clus scale="   70.014">  2  9  1 -1</clus>
<clus scale="   88.839">  7  8 -1 -1</clus>
<clus scale="   90.772">  5  6 -1 -1</clus>
<clus scale="   91.014">  2  7  1 -1</clus>
<clus scale="   70.014">  2  5  1 -1</clus>
</clustering>
</event>
<event>
 9    1  0.1636528E-005  0.1100896E+03  0.7546771E-02  0.1272429E+00
         21   -1    0    0  501  502  0.00000000000E+00  0.00000000000E+00  0.13918026341E+03  0.13918026341E+03  0.00000000000E+00 0.  1.
          2   -1    0    0  502    0 -0.00000000000E+00 -0.00000000000E+00 -0.21766531992E+03  0.21766531992E+03  0.00000000000E+00 0. -1.
         23    2    1    2    0    0 -0.18829964410E+02  0.62238287706E+01 -0.10346575862E+03  0.13463252895E+03  0.83829893475E+02 0.  0.
         23    2    1    2    0    0  0.49533801775E+02  0.66741329501E+02  0.39984095232E+02  0.14164170863E+03  0.10749717749E+03 0.  0.
        -11    1    3    3    0    0 -0.19750520741E+02 -0.24932654691E+02 -0.97941147311E+02  0.10297664141E+03  0.00000000000E+00 0. -1.
         11    1    3    3    0    0  0.92055633139E+00  0.31156483462E+02 -0.55246113072E+01  0.31655887537E+02  0.00000000000E+00 0.  1.
        -13    1    4    4    0    0  0.79277141348E+02  0.57042405660E+02  0.48743037328E+02  0.10915395033E+03  0.00000000000E+00 0.  1.
         13    1    4    4    0    0 -0.29743339573E+02  0.96989238410E+01 -0.87589420967E+01  0.32487758299E+02  0.00000000000E+00 0. -1.
          2    1    1    2  501    0 -0.30703837366E+02 -0.72965158272E+02 -0.15003393122E+02  0.80571345749E+02  0.00000000000E+00 0. -1.
<scales pt_clust_5="13000.00000" pt_clust_6="13000.00000" pt_clust_7="13000.00000" pt_clust_8="13000.00000" pt_clust_9="79.16211"></scales>
<clustering>
<clus scale="   79.162">  1  9  2 -1</clus>
<clus scale="   83.830">  5  6 -1 -1</clus>
<clus scale="   87.129">  2  5  1 -1</clus>
<clus scale="  107.497">  7  8 -1 -1</clus>
<clus scale="   79.162">  1  5  2 -1</clus>
</clustering>
</event>
<event>
 9    1  0.1636528E-005  0.9685043E+02  0.7546771E-02  0.1290707E+00
         21   -1    0    0  501  502  0.00000000000E+00  0.00000000000E+00  0.26863230420E+02  0.26863230420E+02  0.00000000000E+00 0. -1.
         -1   -1    0    0    0  501 -0.00000000000E+00 -0.00000000000E+00 -0.44055712334E+03  0.44055712334E+03  0.00000000000E+00 0.  1.
         23    2    1    2    0    0  0.22900105557E+02  0.14943690828E+02 -0.24942599496E+03  0.26564672389E+03  0.87218840973E+02 0.  0.
         23    2    1    2    0    0 -0.37355393262E+01 -0.22477113392E+02 -0.13441045059E+03  0.16550380470E+03  0.93841170404E+02 0.  0.
        -13    1    3    3    0    0  0.26825444063E+02  0.40174730521E+02 -0.22562902999E+03  0.23074243779E+03  0.00000000000E+00 0.  1.
         13    1    3    3    0    0 -0.39253385056E+01 -0.25231039693E+02 -0.23796964966E+02  0.34904286098E+02  0.00000000000E+00 0. -1.
        -13    1    4    4    0    0  0.38990894225E+02  0.45320475325E+01 -0.90119122337E+02  0.98296925171E+02  0.00000000000E+00 0.  1.
         13    1    4    4    0    0 -0.42726433551E+02 -0.27009160925E+02 -0.44291328248E+02  0.67206879527E+02  0.00000000000E+00 0. -1.
         -1    1    1    2    0  502 -0.19164566231E+02  0.75334225642E+01 -0.29857447373E+02  0.36269825172E+02  0.00000000000E+00 0.  1.
<scales pt_clust_5="13000.00000" pt_clust_6="13000.00000" pt_clust_7="13000.00000" pt_clust_8="13000.00000" pt_clust_9="20.59206"></scales>
<clustering>
<clus scale="   20.592">  1  9  2 -1</clus>
<clus scale="   87.219">  5  6 -1 -1</clus>
<clus scale="   90.449">  2  5  1 -1</clus>
<clus scale="   93.841">  7  8 -1 -1</clus>
<clus scale="   20.592">  1  5  2 -1</clus>
</clustering>
</event>
<event>
 9    1  0.1636528E-005  0.1022299E+03  0.7546771E-02  0.1276974E+00
          1   -1    0    0  502    0 -0.00000000000E+00  0.00000000000E+00  0.20259881891E+03  0.20259881891E+03  0.00000000000E+00 0. -1.
         21   -1    0    0  501  502  0.00000000000E+00 -0.00000000000E+00 -0.12389213987E+03  0.12389213987E+03  0.00000000000E+00 0.  1.
         23    2    1    2    0    0  0.30368746677E+02  0.75744016522E+00  0.10277450679E+03  0.14018991717E+03  0.90375766332E+02 0.  0.
         23    2    1    2    0    0 -0.85214802838E+02  0.15217889033E+02 -0.10494711519E+02  0.12758536650E+03  0.93138284325E+02 0.  0.
        -11    1    3    3    0    0  0.21588351103E+02 -0.27879191772E+02  0.10439958021E+03  0.11019336906E+03  0.00000000000E+00 0. -1.
         11    1    3    3    0    0  0.87803955741E+01  0.28636631937E+02 -0.16250734145E+01  0.29996548114E+02  0.00000000000E+00 0.  1.
        -11    1    4    4    0    0 -0.56379194153E+02  0.18969157219E+02 -0.50567533727E+02  0.78073797949E+02  0.00000000000E+00 0.  1.
         11    1    4    4    0    0 -0.28835608684E+02 -0.37512681866E+01  0.40072822207E+02  0.49511568556E+02  0.00000000000E+00 0. -1.
          1    1    1    2  501    0  0.54846056160E+02 -0.15975329198E+02 -0.13573116227E+02  0.58715675108E+02  0.00000000000E+00 0. -1.
<scales pt_clust_5="13000.00000" pt_clust_6="13000.00000" pt_clust_7="13000.00000" pt_clust_8="13000.00000" pt_clust_9="57.12531"></scales>
<clustering>
<clus scale="   57.125">  2  9  1 -1</clus>
<clus scale="   90.376">  5  6 -1 -1</clus>
<clus scale="   93.138">  7  8 -1 -1</clus>
<clus scale="   99.720">  1  5  2 -1</clus>
<clus scale="   57.125">  2  5  1 -1</clus>
</clustering>
</event>
<event>
 9    1  0.1636528E-005  0.1042665E+03  0.7546771E-02  0.1273196E+00
         21   -1    0    0  501  502  0.00000000000E+00  0.00000000000E+00  0.66016921459E+02  0.66016921459E+02  0.00000000000E+00 0. -1.
          1   -1    0    0  502    0 -0.00000000000E+00 -0.00000000000E+00 -0.34271361529E+03  0.34271361529E+03  0.00000000000E+00 0. -1.
         23    2    1    2    0    0 -0.22237530999E+02 -0.40395480780E+02 -0.23600706335E+03  0.25751235974E+03  0.92124800233E+02 0.  0.
         23    2    1    2    0    0 -0.11706363712E+01  0.64456916292E+02 -0.42902102773E+02  0.11757609009E+03  0.88473058565E+02 0.  0.
        -11    1    4    4    0    0 -0.14336828824E+02  0.83213199280E+02 -0.42784092514E+02  0.94659705089E+02  0.00000000000E+00 0. -1.
         11    1    4    4    0    0  0.13166192453E+02 -0.18756282988E+02 -0.11801025938E+00  0.22916385004E+02  0.00000000000E+00 0.  1.
        -13    1    3    3    0    0  0.30340570761E+02  0.23024322295E+01 -0.11372395340E+03  0.11772420739E+03  0.00000000000E+00 0.  1.
         13    1    3    3    0    0 -0.52578101761E+02 -0.42697913009E+02 -0.12228310994E+03  0.13978815235E+03  0.00000000000E+00 0. -1.
          1    1    1    2  501    0  0.23408167370E+02 -0.24061435513E+02  0.22124722850E+01  0.33642086918E+02  0.00000000000E+00 0. -1.
<scales pt_clust_5="13000.00000" pt_clust_6="13000.00000" pt_clust_7="13000.00000" pt_clust_8="13000.00000" pt_clust_9="33.56926"></scales>
<clustering>
<clus scale="   33.569">  1  9  2 -1</clus>
<clus scale="   88.473">  5  6 -1 -1</clus>
<clus scale="   92.125">  7  8 -1 -1</clus>
<clus scale="  101.054">  1  5  2 -1</clus>
<clus scale="   33.569">  1  5  2 -1</clus>
</clustering>
</event>
<event>
 9    1  0.1636528E-005  0.9781126E+02  0.7546771E-02  0.1285036E+00
          1   -1    0    0  502    0 -0.00000000000E+00  0.00000000000E+00  0.69508137927E+03  0.69508137927E+03  0.00000000000E+00 0. -1.
         21   -1    0    0  501  502  0.00000000000E+00 -0.00000000000E+00 -0.11216535733E+03  0.11216535733E+03  0.00000000000E+00 0. -1.
         23    2    1    2    0    0 -0.56481994034E+02  0.10575363496E+02  0.39277329042E+03  0.40735004727E+03  0.91439320763E+02 0.  0.
         23    2    1    2    0    0  0.10919023243E+02 -0.18700072541E+01  0.28215622044E+03  0.29685179777E+03  0.91575843477E+02 0.  0.
        -11    1    3    3    0    0 -0.13715546917E+02 -0.38554485537E+02  0.19058531114E+03  0.19492902658E+03  0.00000000000E+00 0. -1.
         11    1    3    3    0    0 -0.42766447117E+02  0.49129849033E+02  0.20218797928E+03  0.21242102069E+03  0.00000000000E+00 0.  1.
        -11    1    4    4    0    0 -0.38593960001E+02 -0.12400289244E+02  0.10326644109E+03  0.11093790505E+03  0.00000000000E+00 0. -1.
         11    1    4    4    0    0  0.49512983243E+02  0.10530281990E+02  0.17888977935E+03  0.18591389271E+03  0.00000000000E+00 0.  1.
          1    1    1    2  501    0  0.45562970791E+02 -0.87053562415E+01 -0.92013488922E+02  0.10304489157E+03  0.00000000000E+00 0. -1.
<scales pt_clust_5="13000.00000" pt_clust_6="13000.00000" pt_clust_7="13000.00000" pt_clust_8="13000.00000" pt_clust_9="46.38715"></scales>
<clustering>
<clus scale="   46.387">  2  9  1 -1</clus>
<clus scale="   91.439">  5  6 -1 -1</clus>
<clus scale="   91.576">  7  8 -1 -1</clus>
<clus scale="   97.683">  1  5  2 -1</clus>
<clus scale="   46.387">  2  5  1 -1</clus>
</clustering>
</event>
<event>
 9    1  0.1636528E-005  0.1322984E+03  0.7546771E-02  0.1224353E+00
         -1   -1    0    0    0  501 -0.00000000000E+00  0.00000000000E+00  0.45210473512E+03  0.45210473512E+03  0.00000000000E+00 0.  1.
         21   -1    0    0  501  502  0.00000000000E+00 -0.00000000000E+00 -0.81885793605E+02  0.81885793605E+02  0.00000000000E+00 0.  1.
         23    2    1    2    0    0  0.12578270011E+02 -0.10516325372E+03  0.29982080407E+03  0.33075773637E+03  0.91052967022E+02 0.  0.
         23    2    1    2    0    0  0.12164242754E+02  0.79012481306E+02  0.10011191111E+03  0.15655342667E+03  0.89975772593E+02 0.  0.
        -11    1    3    3    0    0 -0.14833755860E+02 -0.70418908690E+02  0.84755373016E+02  0.11118604350E+03  0.00000000000E+00 0. -1.
         11    1    3    3    0    0  0.27412025870E+02 -0.34744345031E+02  0.21506543106E+03  0.21957169287E+03  0.00000000000E+00 0.  1.
        -13    1    4    4    0    0 -0.32220305700E+02  0.30341338431E+02  0.10761498897E+02  0.45547280662E+02  0.00000000000E+00 0. -1.
         13    1    4    4    0    0  0.44384548453E+02  0.48671142875E+02  0.89350412210E+02  0.11100614601E+03  0.00000000000E+00 0.  1.
         -1    1    1    2    0  502 -0.24742512764E+02  0.26150772415E+02 -0.29713773661E+02  0.46679365688E+02  0.00000000000E+00 0.  1.
<scales pt_clust_5="13000.00000" pt_clust_6="13000.00000" pt_clust_7="13000.00000" pt_clust_8="13000.00000" pt_clust_9="36.00076"></scales>
<clustering>
<clus scale="   36.001">  2  9  1 -1</clus>
<clus scale="   89.976">  7  8 -1 -1</clus>
<clus scale="   91.053">  5  6 -1 -1</clus>
<clus scale="  131.559">  2  7  1 -1</clus>
<clus scale="   36.001">  2  5  1 -1</clus>
</clustering>
</event>
<event>
 9    1  0.1636528E-005  0.1097880E+03  0.7546771E-02  0.1264718E+00
         -1   -1    0    0    0  501 -0.00000000000E+00  0.00000000000E+00  0.38432257858E+03  0.38432257858E+03  0.00000000000E+00 0.  1.
         21   -1    0    0  501  502  0.00000000000E+00 -0.00000000000E+00 -0.60522190868E+02  0.60522190868E+02  0.00000000000E+00 0. -1.
         23    2    1    2    0    0  0.44260651333E+02 -0.31632554332E+02  0.23553017444E+03  0.25810233489E+03  0.90458434966E+02 0.  0.
         23    2    1    2    0    0 -0.78899831512E+01  0.39857041828E+02  0.10109270294E+03  0.14731041788E+03  0.99145292422E+02 0.  0.
        -11    1    4    4    0    0  0.35162720515E+02  0.37217694244E+02  0.88725080460E+02  0.10243882849E+03  0.00000000000E+00 0.  1.
         11    1    4    4    0    0 -0.43052703667E+02  0.26393475839E+01  0.12367622483E+02  0.44871589392E+02  0.00000000000E+00 0. -1.
        -11    1    3    3    0    0  0.34723029364E+02 -0.53838404060E+02  0.89385321140E+02  0.10997271550E+03  0.00000000000E+00 0.  1.
         11    1    3    3    0    0  0.95376219684E+01  0.22205849729E+02  0.14614485329E+03  0.14812961939E+03  0.00000000000E+00 0. -1.
         -1    1    1    2    0  502 -0.36370668181E+02 -0.82244874960E+01 -0.12822489663E+02  0.39432016683E+02  0.00000000000E+00 0.  1.
<scales pt_clust_5="13000.00000" pt_clust_6="13000.00000" pt_clust_7="13000.00000" pt_clust_8="13000.00000" pt_clust_9="37.28898"></scales>
<clustering>
<clus scale="   37.289">  2  9  1 -1</clus>
<clus scale="   90.458">  7  8 -1 -1</clus>
<clus scale="   99.145">  5  6 -1 -1</clus>
<clus scale="  102.012">  1  7  2 -1</clus>
<clus scale="   37.289">  2  5  1 -1</clus>
</clustering>
</event>
<event>
 9    1  0.1636528E-005  0.1308831E+03  0.7546771E-02  0.1231119E+00
          1   -1    0    0  502    0 -0.00000000000E+00  0.00000000000E+00  0.60407457106E+03  0.60407457106E+03  0.00000000000E+00 0. -1.
         21   -1    0    0  501  502  0.00000000000E+00 -0.00000000000E+00 -0.64225624403E+02  0.64225624403E+02  0.00000000000E+00 0. -1.
         23    2    1    2    0    0 -0.12640776128E+02  0.11007011313E+03  0.38260867191E+03  0.40845778272E+03  0.90405450158E+02 0.  0.
         23    2    1    2    0    0 -0.63026141028E+02 -0.54514661255E+02  0.59782748615E+02  0.12452848151E+03  0.70634431627E+02 0.  0.
        -11    1    4    4    0    0 -0.27437440165E+02 -0.62565352161E+02  0.55046258086E+02  0.87734411397E+02  0.00000000000E+00 0.  1.
         11    1    4    4    0    0 -0.35588700863E+02  0.80506909060E+01  0.47364905292E+01  0.36794070116E+02  0.00000000000E+00 0. -1.
        -11    1    3    3    0    0  0.20366089256E+02 -0.42742294237E+01  0.31734424562E+02  0.37948917390E+02  0.00000000000E+00 0.  1.
         11    1    3    3    0    0 -0.33006865384E+02  0.11434434256E+03  0.35087424735E+03  0.37050886533E+03  0.00000000000E+00 0. -1.
          1    1    1    2  501    0  0.75666917156E+02 -0.55555451878E+02  0.97457526132E+02  0.13531393123E+03  0.00000000000E+00 0. -1.
<scales pt_clust_5="13000.00000" pt_clust_6="13000.00000" pt_clust_7="13000.00000" pt_clust_8="13000.00000" pt_clust_9="93.87167"></scales>
<clustering>
<clus scale="   70.634">  5  6 -1 -1</clus>
<clus scale="   90.405">  7  8 -1 -1</clus>
<clus scale="   93.872">  2  9  1 -1</clus>
<clus scale="  118.095">  2  5  1 -1</clus>
<clus scale="   93.872">  2  5  1 -1</clus>
</clustering>
</event>
<event>
 9    1  0.1636528E-005  0.1381410E+03  0.7546771E-02  0.1217689E+00
         21   -1    0    0  501  502  0.00000000000E+00  0.00000000000E+00  0.28461144679E+03  0.28461144679E+03  0.00000000000E+00 0. -1.
         -1   -1    0    0    0  501 -0.00000000000E+00 -0.00000000000E+00 -0.12661871367E+03  0.12661871367E+03  0.00000000000E+00 0.  1.
         23    2    1    2    0    0 -0.79287952677E+02  0.60901583461E+02 -0.57477817983E+02  0.14741225220E+03  0.91820968362E+02 0.  0.
         23    2    1    2    0    0  0.57763197259E+02 -0.55742777976E+02  0.16433943389E+03  0.20810148773E+03  0.99272027329E+02 0.  0.
        -13    1    3    3    0    0 -0.30627711815E+02  0.29206058950E+02 -0.75547169707E+02  0.86593449297E+02  0.00000000000E+00 0.  1.
         13    1    3    3    0    0 -0.48660240863E+02  0.31695524511E+02  0.18069351724E+02  0.60818802903E+02  0.00000000000E+00 0. -1.
        -13    1    4    4    0    0  0.62869546878E+02  0.17790287779E+01  0.51290409582E+02  0.81156952772E+02  0.00000000000E+00 0.  1.
         13    1    4    4    0    0 -0.51063496193E+01 -0.57521806754E+02  0.11304902431E+03  0.12694453496E+03  0.00000000000E+00 0. -1.
         -1    1    1    2    0  502  0.21524755418E+02 -0.51588054851E+01  0.51131117205E+02  0.55716420528E+02  0.00000000000E+00 0.  1.
<scales pt_clust_5="13000.00000" pt_clust_6="13000.00000" pt_clust_7="13000.00000" pt_clust_8="13000.00000" pt_clust_9="22.13433"></scales>
<clustering>
<clus scale="   22.134">  1  9  2 -1</clus>
<clus scale="   91.821">  5  6 -1 -1</clus>
<clus scale="   99.272">  7  8 -1 -1</clus>
<clus scale="  132.887">  2  5  1 -1</clus>
<clus scale="   22.134">  1  5  2 -1</clus>
</clustering>
</event>
<event>
 9    1  0.1636528E-005  0.1127389E+03  0.7546771E-02  0.1258051E+00
         21   -1    0    0  501  502  0.00000000000E+00  0.00000000000E+00  0.67964757112E+02  0.67964757112E+02  0.00000000000E+00 0. -1.
          4   -1    0    0  502    0 -0.00000000000E+00 -0.00000000000E+00 -0.38487322581E+03  0.38487322581E+03  0.00000000000E+00 0. -1.
         23    2    1    2    0    0  0.60503652798E+02 -0.22279615911E+02 -0.27131982405E+03  0.29385014613E+03  0.92608790999E+02 0.  0.
         23    2    1    2    0    0 -0.69758669169E+02 -0.10525961802E+02 -0.13270352624E+02  0.11201621497E+03  0.85991059781E+02 0.  0.
        -11    1    3    3    0    0 -0.13850616301E+02 -0.33202160690E+02 -0.11320860001E+03  0.11878724748E+03  0.00000000000E+00 0.  1.
         11    1    3    3    0    0  0.74354269099E+02  0.10922544779E+02 -0.15811122404E+03  0.17506289865E+03  0.00000000000E+00 0. -1.
        -13    1    4    4    0    0 -0.72910282316E+02  0.20415300407E+02 -0.23496849760E+02  0.79276703430E+02  0.00000000000E+00 0.  1.
         13    1    4    4    0    0  0.31516131467E+01 -0.30941262208E+02  0.10226497136E+02  0.32739511544E+02  0.00000000000E+00 0. -1.
          4    1    1    2  501    0  0.92550163711E+01  0.32805577713E+02 -0.32318292027E+02  0.46971621822E+02  0.00000000000E+00 0. -1.
<scales pt_clust_5="13000.00000" pt_clust_6="13000.00000" pt_clust_7="13000.00000" pt_clust_8="13000.00000" pt_clust_9="34.08609"></scales>
<clustering>
<clus scale="   34.086">  1  9  2 -1</clus>
<clus scale="   85.991">  7  8 -1 -1</clus>
<clus scale="   92.609">  5  6 -1 -1</clus>
<clus scale="  107.369">  1  7  2 -1</clus>
<clus scale="   34.086">  1  5  2 -1</clus>
</clustering>
</event>
<event>
 9    1  0.1636528E-005  0.9592548E+02  0.7546771E-02  0.1290413E+00
         -1   -1    0    0    0  501 -0.00000000000E+00  0.00000000000E+00  0.39131240150E+03  0.39131240150E+03  0.00000000000E+00 0.  1.
         21   -1    0    0  501  502  0.00000000000E+00 -0.00000000000E+00 -0.40531448039E+02  0.40531448039E+02  0.00000000000E+00 0.  1.
         23    2    1    2    0    0 -0.65062479183E+01  0.15741039149E+02  0.23359715564E+03  0.25196632162E+03  0.92893942377E+02 0.  0.
         23    2    1    2    0    0 -0.41035500667E+00 -0.38450095213E+02  0.12091531532E+03  0.15584702967E+03  0.90494226143E+02 0.  0.
        -11    1    3    3    0    0 -0.31024296961E+02 -0.15257078754E+02  0.33986403793E+02  0.48480522861E+02  0.00000000000E+00 0.  1.
         11    1    3    3    0    0  0.24518049043E+02  0.30998117903E+02  0.19961075185E+03  0.20348579875E+03  0.00000000000E+00 0. -1.
        -13    1    4    4    0    0 -0.12587934956E+02 -0.64464028338E+02  0.10246282327E+03  0.12170742462E+03  0.00000000000E+00 0.  1.
         13    1    4    4    0    0  0.12177579949E+02  0.26013933124E+02  0.18452492050E+02  0.34139605049E+02  0.00000000000E+00 0. -1.
         -1    1    1    2    0  502  0.69166029250E+01  0.22709056065E+02 -0.37315174986E+01  0.24030498251E+02  0.00000000000E+00 0.  1.
<scales pt_clust_5="13000.00000" pt_clust_6="13000.00000" pt_clust_7="13000.00000" pt_clust_8="13000.00000" pt_clust_9="23.73901"></scales>
<clustering>
<clus scale="   23.739">  2  9  1 -1</clus>
<clus scale="   90.494">  7  8 -1 -1</clus>
<clus scale="   92.894">  5  6 -1 -1</clus>
<clus scale="   93.604">  2  7  1 -1</clus>
<clus scale="   23.739">  2  5  1 -1</clus>
</clustering>
</event>
<event>
 9    1  0.1636528E-005  0.2099743E+03  0.7546771E-02  0.1162681E+00
         21   -1    0    0  501  502  0.00000000000E+00  0.00000000000E+00  0.86567449280E+02  0.86567449280E+02  0.00000000000E+00 0. -1.
          1   -1    0    0  502    0 -0.00000000000E+00 -0.00000000000E+00 -0.10829484689E+04  0.10829484689E+04  0.00000000000E+00 0. -1.
         23    2    1    2    0    0  0.82861631052E+02  0.32425815945E+02 -0.10520535716E+03  0.16538808642E+03  0.91474414542E+02 0.  0.
         23    2    1    2    0    0 -0.16178079425E+03 -0.18462420531E+03 -0.69813890841E+03  0.74595003940E+03  0.93725147463E+02 0.  0.
        -13    1    4    4    0    0 -0.19972419786E+02 -0.57005132023E+01 -0.14860998561E+02  0.25539042290E+02  0.00000000000E+00 0.  1.
         13    1    4    4    0    0 -0.14180837447E+03 -0.17892369211E+03 -0.68327790985E+03  0.72041099711E+03  0.00000000000E+00 0. -1.
        -13    1    3    3    0    0  0.21190768418E+01  0.38285947918E+02 -0.85087096345E+01  0.39277250849E+02  0.00000000000E+00 0. -1.
         13    1    3    3    0    0  0.80742554211E+02 -0.58601319722E+01 -0.96696647521E+02  0.12611083557E+03  0.00000000000E+00 0.  1.
          1    1    1    2  501    0  0.78919163201E+02  0.15219838936E+03 -0.19303675400E+03  0.25817779231E+03  0.00000000000E+00 0. -1.
<scales pt_clust_5="13000.00000" pt_clust_6="13000.00000" pt_clust_7="13000.00000" pt_clust_8="13000.00000" pt_clust_9="187.89572"></scales>
<clustering>
<clus scale="   91.474">  7  8 -1 -1</clus>
<clus scale="   93.725">  5  6 -1 -1</clus>
<clus scale="  127.613">  2  7  1 -1</clus>
<clus scale="  187.896">  1  9  2 -1</clus>
<clus scale="  187.896">  1  5  2 -1</clus>
</clustering>
</event>
<event>
 9    1  0.1636528E-005  0.2969256E+03  0.7546771E-02  0.1087060E+00
         21   -1    0    0  501  502  0.00000000000E+00  0.00000000000E+00  0.60198126041E+03  0.60198126041E+03  0.00000000000E+00 0. -1.
         -2   -1    0    0    0  501 -0.00000000000E+00 -0.00000000000E+00 -0.20471379358E+03  0.20471379358E+03  0.00000000000E+00 0.  1.
         23    2    1    2    0    0 -0.10358182791E+03 -0.27179610624E+03  0.62758728843E+02  0.30918206765E+03  0.83979607445E+02 0.  0.
         23    2    1    2    0    0  0.68684594547E+02  0.26316870075E+03  0.17952014737E+03  0.33841015091E+03  0.91206405174E+02 0.  0.
        -13    1    4    4    0    0  0.80478949241E+02  0.22542567825E+03  0.17895705490E+03  0.29886322153E+03  0.00000000000E+00 0.  1.
         13    1    4    4    0    0 -0.11794354694E+02  0.37743022503E+02  0.56309246835E+00  0.39546929381E+02  0.00000000000E+00 0. -1.
        -13    1    3    3    0    0 -0.62128041162E+02 -0.59700972973E+02  0.10120240321E+02  0.86755512429E+02  0.00000000000E+00 0.  1.
         13    1    3    3    0    0 -0.41453786747E+02 -0.21209513327E+03  0.52638488522E+02  0.22242655522E+03  0.00000000000E+00 0. -1.
         -2    1    1    2    0  502  0.34897233362E+02  0.86274054921E+01  0.15498859062E+03  0.15910283544E+03  0.00000000000E+00 0.  1.
<scales pt_clust_5="13000.00000" pt_clust_6="13000.00000" pt_clust_7="13000.00000" pt_clust_8="13000.00000" pt_clust_9="35.94787"></scales>
<clustering>
<clus scale="   35.948">  1  9  2 -1</clus>
<clus scale="   83.980">  7  8 -1 -1</clus>
<clus scale="   91.206">  5  6 -1 -1</clus>
<clus scale="  294.786">  2  7  1 -1</clus>
<clus scale="   35.948">  1  5  2 -1</clus>
</clustering>
</event>
<event>
 9    1  0.1636528E-005  0.1014011E+03  0.7546771E-02  0.1277585E+00
         21   -1    0    0  501  502  0.00000000000E+00  0.00000000000E+00  0.67493072382E+02  0.67493072382E+02  0.00000000000E+00 0.  1.
          3   -1    0    0  502    0 -0.00000000000E+00 -0.00000000000E+00 -0.26266903367E+03  0.26266903367E+03  0.00000000000E+00 0. -1.
         23    2    1    2    0    0  0.41990221072E+02 -0.26913867539E+02 -0.88230975027E+02  0.13659708362E+03  0.91577963335E+02 0.  0.
         23    2    1    2    0    0 -0.23511607741E+02  0.18614949316E+02 -0.13229009920E+02  0.97684808537E+02  0.92021753291E+02 0.  0.
        -13    1    4    4    0    0  0.23279458832E+02  0.39237114481E+02 -0.50717429248E+01  0.45904323680E+02  0.00000000000E+00 0. -1.
         13    1    4    4    0    0 -0.46791066573E+02 -0.20622165165E+02 -0.81572669950E+01  0.51780484856E+02  0.00000000000E+00 0.  1.
        -13    1    3    3    0    0 -0.18973780269E+02  0.16192474477E+02 -0.62574339542E+01  0.25716843645E+02  0.00000000000E+00 0.  1.
         13    1    3    3    0    0  0.60964001342E+02 -0.43106342016E+02 -0.81973541073E+02  0.11088023998E+03  0.00000000000E+00 0. -1.
          3    1    1    2  501    0 -0.18478613331E+02  0.82989182235E+01 -0.93715976337E+02  0.95880213887E+02  0.00000000000E+00 0. -1.
<scales pt_clust_5="13000.00000" pt_clust_6="13000.00000" pt_clust_7="13000.00000" pt_clust_8="13000.00000" pt_clust_9="20.25664"></scales>
<clustering>
<clus scale="   20.257">  1  9  2 -1</clus>
<clus scale="   91.578">  7  8 -1 -1</clus>
<clus scale="   92.022">  5  6 -1 -1</clus>
<clus scale="  100.999">  2  7  1 -1</clus>
<clus scale="   20.257">  1  5  2 -1</clus>
</clustering>
</event>
<event>
 9    1  0.1636528E-005  0.2404436E+03  0.7546771E-02  0.1157257E+00
         21   -1    0    0  501  502  0.00000000000E+00  0.00000000000E+00  0.45097514683E+03  0.45097514683E+03  0.00000000000E+00 0. -1.
          1   -1    0    0  502    0 -0.00000000000E+00 -0.00000000000E+00 -0.32731183235E+03  0.32731183235E+03  0.00000000000E+00 0. -1.
         23    2    1    2    0    0  0.25000310527E+02  0.17090581498E+02 -0.62757535537E+02  0.11505007148E+03  0.91547294761E+02 0.  0.
         23    2    1    2    0    0 -0.24246578989E+03  0.10176444682E+02 -0.12070134036E+03  0.28593230230E+03  0.91078255598E+02 0.  0.
        -11    1    4    4    0    0 -0.36608636947E+02  0.68099016747E+01  0.14129140552E+02  0.39827122324E+02  0.00000000000E+00 0.  1.
         11    1    4    4    0    0 -0.20585715294E+03  0.33665430077E+01 -0.13483048091E+03  0.24610517998E+03  0.00000000000E+00 0. -1.
        -13    1    3    3    0    0  0.43373805634E+02 -0.17588835262E+02 -0.59452160370E+02  0.75665140677E+02  0.00000000000E+00 0.  1.
         13    1    3    3    0    0 -0.18373495106E+02  0.34679416760E+02 -0.33053751667E+01  0.39384930801E+02  0.00000000000E+00 0. -1.
          1    1    1    2  501    0  0.21746547936E+03 -0.27267026180E+02  0.30712219037E+03  0.37730460539E+03  0.00000000000E+00 0. -1.
<scales pt_clust_5="13000.00000" pt_clust_6="13000.00000" pt_clust_7="13000.00000" pt_clust_8="13000.00000" pt_clust_9="222.52610"></scales>
<clustering>
<clus scale="   91.078">  5  6 -1 -1</clus>
<clus scale="   91.547">  7  8 -1 -1</clus>
<clus scale="   96.426">  2  7  1 -1</clus>
<clus scale="  222.526">  1  9  2 -1</clus>
<clus scale="  222.526">  1  5  2 -1</clus>
</clustering>
</event>
<event>
 9    1  0.1636528E-005  0.1138508E+03  0.7546771E-02  0.1254369E+00
         21   -1    0    0  501  502  0.00000000000E+00  0.00000000000E+00  0.13754349248E+03  0.13754349248E+03  0.00000000000E+00 0.  1.
          1   -1    0    0  502    0 -0.00000000000E+00 -0.00000000000E+00 -0.16435196277E+03  0.16435196277E+03  0.00000000000E+00 0. -1.
         23    2    1    2    0    0 -0.38909090669E+02 -0.61115019970E+02 -0.49646606237E+02  0.12694473440E+03  0.91658153366E+02 0.  0.
         23    2    1    2    0    0  0.12734513553E+02  0.63356658426E+02 -0.31321282681E+02  0.11475623558E+03  0.89508306057E+02 0.  0.
        -11    1    4    4    0    0  0.35858474012E+02 -0.13707514680E+01  0.62484847483E+01  0.36424616398E+02  0.00000000000E+00 0.  1.
         11    1    4    4    0    0 -0.23123960460E+02  0.64727409894E+02 -0.37569767429E+02  0.78331619182E+02  0.00000000000E+00 0. -1.
        -13    1    3    3    0    0 -0.22400461480E+02 -0.23013672682E+02  0.25553851909E+02  0.41041553969E+02  0.00000000000E+00 0.  1.
         13    1    3    3    0    0 -0.16508629189E+02 -0.38101347289E+02 -0.75200458146E+02  0.85903180432E+02  0.00000000000E+00 0. -1.
          1    1    1    2  501    0  0.26174577117E+02 -0.22416384560E+01  0.54159418626E+02  0.60194485264E+02  0.00000000000E+00 0. -1.
<scales pt_clust_5="13000.00000" pt_clust_6="13000.00000" pt_clust_7="13000.00000" pt_clust_8="13000.00000" pt_clust_9="26.27039"></scales>
<clustering>
<clus scale="   26.270">  1  9  2 -1</clus>
<clus scale="   89.508">  5  6 -1 -1</clus>
<clus scale="   91.658">  7  8 -1 -1</clus>
<clus scale="  112.127">  1  5  2 -1</clus>
<clus scale="   26.270">  1  5  2 -1</clus>
</clustering>
</event>
<event>
 9    1  0.1636528E-005  0.1728782E+03  0.7546771E-02  0.1174901E+00
          2   -1    0    0  502    0 -0.00000000000E+00  0.00000000000E+00  0.55348642083E+03  0.55348642083E+03  0.00000000000E+00 0. -1.
         21   -1    0    0  501  502  0.00000000000E+00 -0.00000000000E+00 -0.28598906957E+03  0.28598906957E+03  0.00000000000E+00 0.  1.
         23    2    1    2    0    0  0.10931863198E+03  0.10193001631E+03  0.48551921605E+03  0.51614948426E+03  0.91329564890E+02 0.  0.
         23    2    1    2    0    0 -0.12614450377E+03 -0.41301971685E+02 -0.99922164057E+02  0.18951117486E+03  0.91168842425E+02 0.  0.
        -11    1    4    4    0    0 -0.54326865817E+02 -0.27176405145E+02  0.56945169295E+01  0.61011415892E+02  0.00000000000E+00 0. -1.
         11    1    4    4    0    0 -0.71817637957E+02 -0.14125566539E+02 -0.10561668099E+03  0.12849975897E+03  0.00000000000E+00 0.  1.
        -13    1    3    3    0    0  0.49758934251E+02  0.96278168329E+02  0.23818103865E+03  0.26167851346E+03  0.00000000000E+00 0.  1.
         13    1    3    3    0    0  0.59559697726E+02  0.56518479838E+01  0.24733817740E+03  0.25447097080E+03  0.00000000000E+00 0. -1.
          2    1    1    2  501    0  0.16825871797E+02 -0.60628044628E+02 -0.11809970074E+03  0.13381483128E+03  0.00000000000E+00 0. -1.
<scales pt_clust_5="13000.00000" pt_clust_6="13000.00000" pt_clust_7="13000.00000" pt_clust_8="13000.00000" pt_clust_9="62.91955"></scales>
<clustering>
<clus scale="   62.920">  2  9  1 -1</clus>
<clus scale="   91.169">  5  6 -1 -1</clus>
<clus scale="   91.330">  7  8 -1 -1</clus>
<clus scale="  172.793">  2  5  1 -1</clus>
<clus scale="   62.920">  2  5  1 -1</clus>
</clustering>
</event>
<event>
 9    1  0.1636528E-005  0.1123995E+03  0.7546771E-02  0.1258083E+00
          2   -1    0    0  502    0 -0.00000000000E+00  0.00000000000E+00  0.37511353030E+03  0.37511353030E+03  0.00000000000E+00 0. -1.
         21   -1    0    0  501  502  0.00000000000E+00 -0.00000000000E+00 -0.88019506327E+02  0.88019506327E+02  0.00000000000E+00 0. -1.
         23    2    1    2    0    0  0.56745737056E+02 -0.36329728465E+02  0.22496441197E+03  0.24999548207E+03  0.85725297088E+02 0.  0.
         23    2    1    2    0    0 -0.41751243209E+02  0.51117646137E+02  0.11223760991E+03  0.15878381680E+03  0.90878156577E+02 0.  0.
        -13    1    3    3    0    0  0.38335974514E+02  0.18137499073E+02  0.14781624660E+03  0.15377990302E+03  0.00000000000E+00 0. -1.
         13    1    3    3    0    0  0.18409762542E+02 -0.54467227538E+02  0.77148165364E+02  0.96215579048E+02  0.00000000000E+00 0.  1.
        -13    1    4    4    0    0 -0.55684641175E+02 -0.34557282973E+01  0.51107734657E+02  0.75661891746E+02  0.00000000000E+00 0.  1.
         13    1    4    4    0    0  0.13933397966E+02  0.54573374434E+02  0.61129875254E+02  0.83121925054E+02  0.00000000000E+00 0. -1.
          2    1    1    2  501    0 -0.14994493847E+02 -0.14787917672E+02 -0.50107997900E+02  0.54353737759E+02  0.00000000000E+00 0. -1.
<scales pt_clust_5="13000.00000" pt_clust_6="13000.00000" pt_clust_7="13000.00000" pt_clust_8="13000.00000" pt_clust_9="21.05985"></scales>
<clustering>
<clus scale="   21.060">  2  9  1 -1</clus>
<clus scale="   85.725">  5  6 -1 -1</clus>
<clus scale="   90.878">  7  8 -1 -1</clus>
<clus scale="  108.276">  1  5  2 -1</clus>
<clus scale="   21.060">  2  5  1 -1</clus>
</clustering>
</event>
<event>
 9    1  0.1636528E-005  0.1702010E+03  0.7546771E-02  0.1180729E+00
          3   -1    0    0  502    0 -0.00000000000E+00  0.00000000000E+00  0.43159992235E+03  0.43159992235E+03  0.00000000000E+00 0. -1.
         21   -1    0    0  501  502  0.00000000000E+00 -0.00000000000E+00 -0.39678166791E+03  0.39678166791E+03  0.00000000000E+00 0. -1.
         23    2    1    2    0    0  0.89286936156E+02 -0.27772781498E+02  0.14605246590E+03  0.20361849966E+03  0.10670373119E+03 0.  0.
         23    2    1    2    0    0 -0.18676938889E+03  0.55344137627E+02  0.20301357412E+03  0.29458938023E+03  0.87307579703E+02 0.  0.
        -11    1    3    3    0    0 -0.18702355977E+02  0.16497426591E+02  0.30257212041E+02  0.39210229325E+02  0.00000000000E+00 0. -1.
         11    1    3    3    0    0  0.10798929213E+03 -0.44270208089E+02  0.11579525386E+03  0.16440827034E+03  0.00000000000E+00 0.  1.
        -13    1    4    4    0    0 -0.39215648828E+02  0.36682010248E+02  0.16787209023E+02  0.56260531242E+02  0.00000000000E+00 0.  1.
         13    1    4    4    0    0 -0.14755374006E+03  0.18662127378E+02  0.18622636510E+03  0.23832884899E+03  0.00000000000E+00 0. -1.
          3    1    1    2  501    0  0.97482452734E+02 -0.27571356128E+02 -0.31424778558E+03  0.33017371036E+03  0.00000000000E+00 0. -1.
<scales pt_clust_5="13000.00000" pt_clust_6="13000.00000" pt_clust_7="13000.00000" pt_clust_8="13000.00000" pt_clust_9="101.30651"></scales>
<clustering>
<clus scale="   87.308">  7  8 -1 -1</clus>
<clus scale="  101.307">  2  9  1 -1</clus>
<clus scale="  106.704">  5  6 -1 -1</clus>
<clus scale="  158.762">  2  7  1 -1</clus>
<clus scale="  101.307">  2  5  1 -1</clus>
</clustering>
</event>
<event>
 9    1  0.1636528E-005  0.1355275E+03  0.7546771E-02  0.1219718E+00
         -1   -1    0    0    0  501 -0.00000000000E+00  0.00000000000E+00  0.61535473707E+02  0.61535473707E+02  0.00000000000E+00 0.  1.
         21   -1    0    0  501  502  0.00000000000E+00 -0.00000000000E+00 -0.62791623970E+03  0.62791623970E+03  0.00000000000E+00 0.  1.
         23    2    1    2    0    0 -0.68138607884E+02 -0.16473145576E+02 -0.13879103041E+03  0.18025567536E+03  0.91186204918E+02 0.  0.
         23    2    1    2    0    0  0.11892445961E+03  0.59763365494E+02 -0.14024376635E+03  0.21420289929E+03  0.92194799838E+02 0.  0.
        -11    1    3    3    0    0  0.14736992806E+02 -0.24611966243E+02 -0.19167205471E+02  0.34500863828E+02  0.00000000000E+00 0. -1.
         11    1    3    3    0    0 -0.82875600689E+02  0.81388206668E+01 -0.11962382494E+03  0.14575481153E+03  0.00000000000E+00 0.  1.
        -13    1    4    4    0    0  0.76981938475E+02  0.83324174440E+02 -0.10488534694E+03  0.15449942686E+03  0.00000000000E+00 0.  1.
         13    1    4    4    0    0  0.41942521136E+02 -0.23560808947E+02 -0.35358419408E+02  0.59703472432E+02  0.00000000000E+00 0. -1.
         -1    1    1    2    0  502 -0.50785851727E+02 -0.43290219918E+02 -0.28734596923E+03  0.29499313875E+03  0.00000000000E+00 0.  1.
<scales pt_clust_5="13000.00000" pt_clust_6="13000.00000" pt_clust_7="13000.00000" pt_clust_8="13000.00000" pt_clust_9="66.73264"></scales>
<clustering>
<clus scale="   66.733">  2  9  1 -1</clus>
<clus scale="   91.186">  5  6 -1 -1</clus>
<clus scale="   92.195">  7  8 -1 -1</clus>
<clus scale="  134.843">  1  5  2 -1</clus>
<clus scale="   66.733">  2  5  1 -1</clus>
</clustering>
</event>
<event>
 9    1  0.1636528E-005  0.1199518E+03  0.7546771E-02  0.1250841E+00
          2   -1    0    0  502    0 -0.00000000000E+00  0.00000000000E+00  0.60243521714E+02  0.60243521714E+02  0.00000000000E+00 0.  1.
         21   -1    0    0  501  502  0.00000000000E+00 -0.00000000000E+00 -0.42965370963E+03  0.42965370963E+03  0.00000000000E+00 0.  1.
         23    2    1    2    0    0  0.62932502392E+00  0.48380613621E+02 -0.66728684225E+02  0.12259545523E+03  0.90751575863E+02 0.  0.
         23    2    1    2    0    0 -0.75244537454E+01  0.54371438539E+02 -0.14717171115E+03  0.18078415603E+03  0.89501551808E+02 0.  0.
        -11    1    4    4    0    0 -0.43122974456E+02  0.38866196890E+02 -0.12026659125E+03  0.13354484325E+03  0.00000000000E+00 0.  1.
         11    1    4    4    0    0  0.35598520710E+02  0.15505241649E+02 -0.26905119892E+02  0.47239312778E+02  0.00000000000E+00 0. -1.
        -11    1    3    3    0    0  0.26575903896E+02  0.59003064387E+02 -0.68838349037E+02  0.94479408196E+02  0.00000000000E+00 0.  1.
         11    1    3    3    0    0 -0.25946578872E+02 -0.10622450766E+02  0.21096648117E+01  0.28116047039E+02  0.00000000000E+00 0. -1.
          2    1    1    2  501    0  0.68951287214E+01 -0.10275205216E+03 -0.15550979254E+03  0.18651762008E+03  0.00000000000E+00 0.  1.
<scales pt_clust_5="13000.00000" pt_clust_6="13000.00000" pt_clust_7="13000.00000" pt_clust_8="13000.00000" pt_clust_9="79.86177"></scales>
<clustering>
<clus scale="   89.502">  5  6 -1 -1</clus>
<clus scale="   90.752">  7  8 -1 -1</clus>
<clus scale="  102.844">  1  7  2 -1</clus>
<clus scale="   79.862">  2  9  1 -1</clus>
<clus scale="   79.862">  2  5  1 -1</clus>
</clustering>
</event>
<event>
 9    1  0.1636528E-005  0.1170388E+03  0.7546771E-02  0.1249111E+00
         21   -1    0    0  501  502  0.00000000000E+00  0.00000000000E+00  0.24081158808E+03  0.24081158808E+03  0.00000000000E+00 0. -1.
          1   -1    0    0  502    0 -0.00000000000E+00 -0.00000000000E+00 -0.62386441286E+03  0.62386441286E+03  0.00000000000E+00 0. -1.
         23    2    1    2    0    0  0.23877084330E+02  0.62387544278E+02 -0.36496973480E+03  0.38237807794E+03  0.92454130965E+02 0.  0.
         23    2    1    2    0    0 -0.64211062538E+02 -0.57549448678E+02 -0.23275880233E+03  0.26381245794E+03  0.89360804094E+02 0.  0.
        -11    1    3    3    0    0  0.21769376733E+02 -0.28107319499E+01 -0.15497027131E+02  0.26869384573E+02  0.00000000000E+00 0.  1.
         11    1    3    3    0    0  0.21077075969E+01  0.65198276227E+02 -0.34947270767E+03  0.35550869337E+03  0.00000000000E+00 0. -1.
        -13    1    4    4    0    0 -0.64429455284E+02  0.18444048271E+01 -0.13069235569E+03  0.14572250469E+03  0.00000000000E+00 0.  1.
         13    1    4    4    0    0  0.21839274519E+00 -0.59393853505E+02 -0.10206644665E+03  0.11808995326E+03  0.00000000000E+00 0. -1.
          1    1    1    2  501    0  0.40333978209E+02 -0.48380955995E+01  0.21467571235E+03  0.21848546506E+03  0.00000000000E+00 0. -1.
<scales pt_clust_5="13000.00000" pt_clust_6="13000.00000" pt_clust_7="13000.00000" pt_clust_8="13000.00000" pt_clust_9="40.62311"></scales>
<clustering>
<clus scale="   40.623">  1  9  2 -1</clus>
<clus scale="   89.361">  7  8 -1 -1</clus>
<clus scale="   92.454">  5  6 -1 -1</clus>
<clus scale="  114.611">  1  7  2 -1</clus>
<clus scale="   40.623">  1  5  2 -1</clus>
</clustering>
</event>
<event>
 9    1  0.1636528E-005  0.2756990E+03  0.7546771E-02  0.1119841E+00
          1   -1    0    0  502    0 -0.00000000000E+00  0.00000000000E+00  0.49058966302E+03  0.49058966302E+03  0.00000000000E+00 0. -1.
         21   -1    0    0  501  502  0.00000000000E+00 -0.00000000000E+00 -0.36390930568E+03  0.36390930568E+03  0.00000000000E+00 0. -1.
         23    2    1    2    0    0  0.24422044464E+01  0.12864517759E+03  0.18356198671E+02  0.15919373581E+03  0.91924694257E+02 0.  0.
         23    2    1    2    0    0 -0.26174307383E+03 -0.98101161142E+02  0.26054495004E+03  0.39307841883E+03  0.92161259980E+02 0.  0.
        -11    1    4    4    0    0 -0.17979061226E+03 -0.56554676316E+02  0.22750920852E+03  0.29543787102E+03  0.00000000000E+00 0. -1.
         11    1    4    4    0    0 -0.81952461571E+02 -0.41546484825E+02  0.33035741521E+02  0.97640547810E+02  0.00000000000E+00 0.  1.
        -13    1    3    3    0    0  0.29714588609E+02  0.11593798123E+02  0.22339288279E+02  0.38941195821E+02  0.00000000000E+00 0.  1.
         13    1    3    3    0    0 -0.27272384163E+02  0.11705137946E+03 -0.39830896082E+01  0.12025253999E+03  0.00000000000E+00 0. -1.
          1    1    1    2  501    0  0.25930086939E+03 -0.30544016444E+02 -0.15222079138E+03  0.30222681405E+03  0.00000000000E+00 0. -1.
<scales pt_clust_5="13000.00000" pt_clust_6="13000.00000" pt_clust_7="13000.00000" pt_clust_8="13000.00000" pt_clust_9="259.83882"></scales>
<clustering>
<clus scale="   91.925">  7  8 -1 -1</clus>
<clus scale="   92.161">  5  6 -1 -1</clus>
<clus scale="  158.132">  1  7  2 -1</clus>
<clus scale="  259.839">  2  9  1 -1</clus>
<clus scale="  259.839">  2  5  1 -1</clus>
</clustering>
</event>
<event>
 9    1  0.1636528E-005  0.9603827E+02  0.7546771E-02  0.1290398E+00
          2   -1    0    0  502    0 -0.00000000000E+00  0.00000000000E+00  0.25316003370E+02  0.25316003370E+02  0.00000000000E+00 0. -1.
         21   -1    0    0  501  502  0.00000000000E+00 -0.00000000000E+00 -0.69659118552E+03  0.69659118552E+03  0.00000000000E+00 0.  1.
         23    2    1    2    0    0 -0.11715591360E+01 -0.17274183965E+02 -0.11789726026E+03  0.15095692634E+03  0.92673942674E+02 0.  0.
         23    2    1    2    0    0  0.26738235652E+02  0.42214884389E+02 -0.36415536416E+03  0.37838632553E+03  0.89833470346E+02 0.  0.
        -11    1    4    4    0    0  0.59756637182E+02  0.20273067074E+02 -0.22936539884E+03  0.23788724035E+03  0.00000000000E+00 0.  1.
         11    1    4    4    0    0 -0.33018401530E+02  0.21941817315E+02 -0.13478996531E+03  0.14049908518E+03  0.00000000000E+00 0. -1.
        -11    1    3    3    0    0  0.16632425188E+02  0.35156169849E+02 -0.47341319195E+02  0.61268216469E+02  0.00000000000E+00 0.  1.
         11    1    3    3    0    0 -0.17803984324E+02 -0.52430353814E+02 -0.70555941068E+02  0.89688709874E+02  0.00000000000E+00 0. -1.
          2    1    1    2  501    0 -0.25566676516E+02 -0.24940700424E+02 -0.18922255773E+03  0.19256393702E+03  0.00000000000E+00 0. -1.
<scales pt_clust_5="13000.00000" pt_clust_6="13000.00000" pt_clust_7="13000.00000" pt_clust_8="13000.00000" pt_clust_9="35.71685"></scales>
<clustering>
<clus scale="   35.717">  2  9  1 -1</clus>
<clus scale="   89.833">  5  6 -1 -1</clus>
<clus scale="   92.674">  7  8 -1 -1</clus>
<clus scale="   93.300">  2  5  1 -1</clus>
<clus scale="   35.717">  2  5  1 -1</clus>
</clustering>
</event>
<event>
 9    1  0.1636528E-005  0.9761661E+02  0.7546771E-02  0.1286096E+00
         21   -1    0    0  501  502  0.00000000000E+00  0.00000000000E+00  0.12488944807E+03  0.12488944807E+03  0.00000000000E+00 0.  1.
         -3   -1    0    0    0  501 -0.00000000000E+00 -0.00000000000E+00 -0.18214070870E+03  0.18214070870E+03  0.00000000000E+00 0.  1.
         23    2    1    2    0    0 -0.27834611304E+02  0.98201162113E+01 -0.87744857682E+02  0.12871345623E+03  0.89424792408E+02 0.  0.
         23    2    1    2    0    0  0.37761846171E+02 -0.30556180883E+02 -0.35102760620E+02  0.10880830889E+03  0.90815235860E+02 0.  0.
        -11    1    4    4    0    0  0.52176297469E+02  0.11175078034E+02 -0.36477473169E+02  0.64636324427E+02  0.00000000000E+00 0.  1.
         11    1    4    4    0    0 -0.14414451297E+02 -0.41731258917E+02  0.13747125494E+01  0.44171984465E+02  0.00000000000E+00 0. -1.
        -13    1    3    3    0    0 -0.20011293594E+02 -0.37543502293E+02 -0.23780964724E+02  0.48739108721E+02  0.00000000000E+00 0. -1.
         13    1    3    3    0    0 -0.78233177095E+01  0.47363618504E+02 -0.63963892959E+02  0.79974347513E+02  0.00000000000E+00 0.  1.
         -3    1    1    2    0  502 -0.99272348674E+01  0.20736064672E+02  0.65596357669E+02  0.69508391648E+02  0.00000000000E+00 0.  1.
<scales pt_clust_5="13000.00000" pt_clust_6="13000.00000" pt_clust_7="13000.00000" pt_clust_8="13000.00000" pt_clust_9="22.98988"></scales>
<clustering>
<clus scale="   22.990">  1  9  2 -1</clus>
<clus scale="   89.425">  7  8 -1 -1</clus>
<clus scale="   90.815">  5  6 -1 -1</clus>
<clus scale="   96.324">  2  7  1 -1</clus>
<clus scale="   22.990">  1  5  2 -1</clus>
</clustering>
</event>
<event>
 9    1  0.1636528E-005  0.1159584E+03  0.7546771E-02  0.1251291E+00
         21   -1    0    0  501  502  0.00000000000E+00  0.00000000000E+00  0.37053347300E+03  0.37053347300E+03  0.00000000000E+00 0.  1.
          1   -1    0    0  502    0 -0.00000000000E+00 -0.00000000000E+00 -0.53642136096E+02  0.53642136096E+02  0.00000000000E+00 0. -1.
         23    2    1    2    0    0 -0.26501942785E+02  0.71303359178E+02  0.75335651566E+02  0.14082818937E+03  0.91490964162E+02 0.  0.
         23    2    1    2    0    0 -0.14556004283E+01 -0.67055114323E+02  0.14149341882E+03  0.17936603203E+03  0.87483019759E+02 0.  0.
        -11    1    4    4    0    0  0.29843028712E+02 -0.11488148515E+02  0.10474415425E+02  0.33649625518E+02  0.00000000000E+00 0. -1.
         11    1    4    4    0    0 -0.31298629140E+02 -0.55566965808E+02  0.13101900340E+03  0.14571640651E+03  0.00000000000E+00 0.  1.
        -13    1    3    3    0    0 -0.59450195557E+02  0.33430081931E+02  0.36478760581E+02  0.77347243669E+02  0.00000000000E+00 0.  1.
         13    1    3    3    0    0  0.32948252773E+02  0.37873277247E+02  0.38856890985E+02  0.63480945702E+02  0.00000000000E+00 0. -1.
          1    1    1    2  501    0  0.27957543213E+02 -0.42482448552E+01  0.10006226652E+03  0.10398138770E+03  0.00000000000E+00 0. -1.
<scales pt_clust_5="13000.00000" pt_clust_6="13000.00000" pt_clust_7="13000.00000" pt_clust_8="13000.00000" pt_clust_9="28.27847"></scales>
<clustering>
<clus scale="   28.278">  1  9  2 -1</clus>
<clus scale="   87.483">  5  6 -1 -1</clus>
<clus scale="   91.491">  7  8 -1 -1</clus>
<clus scale="  112.823">  1  5  2 -1</clus>
<clus scale="   28.278">  1  5  2 -1</clus>
</clustering>
</event>
<event>
 9    1  0.1636528E-005  0.1127843E+03  0.7546771E-02  0.1255707E+00
         21   -1    0    0  501  502  0.00000000000E+00  0.00000000000E+00  0.60461584019E+02  0.60461584019E+02  0.00000000000E+00 0.  1.
         -1   -1    0    0    0  501 -0.00000000000E+00 -0.00000000000E+00 -0.27066588321E+03  0.27066588321E+03  0.00000000000E+00 0.  1.
         23    2    1    2    0    0 -0.15695957943E+02  0.51883701913E+02 -0.89680423440E+02  0.13903539626E+03  0.91378232884E+02 0.  0.
         23    2    1    2    0    0  0.11685181097E+02 -0.78400118561E+02 -0.11031628968E+03  0.16339709761E+03  0.90806418772E+02 0.  0.
        -11    1    4    4    0    0 -0.17526421908E+02 -0.41531284146E+02 -0.17879429817E+01  0.45113410067E+02  0.00000000000E+00 0.  1.
         11    1    4    4    0    0  0.29211603005E+02 -0.36868834414E+02 -0.10852834670E+03  0.11828368754E+03  0.00000000000E+00 0. -1.
        -13    1    3    3    0    0  0.15631704974E+02  0.52419109526E+02 -0.13033328729E+02  0.56231493859E+02  0.00000000000E+00 0.  1.
         13    1    3    3    0    0 -0.31327662917E+02 -0.53540761356E+00 -0.76647094711E+02  0.82803902401E+02  0.00000000000E+00 0. -1.
         -1    1    1    2    0  502  0.40107768465E+01  0.26516416648E+02 -0.10207586069E+02  0.28694973360E+02  0.00000000000E+00 0.  1.
<scales pt_clust_5="13000.00000" pt_clust_6="13000.00000" pt_clust_7="13000.00000" pt_clust_8="13000.00000" pt_clust_9="26.81803"></scales>
<clustering>
<clus scale="   26.818">  1  9  2 -1</clus>
<clus scale="   90.806">  5  6 -1 -1</clus>
<clus scale="   91.378">  7  8 -1 -1</clus>
<clus scale="  112.321">  1  5  2 -1</clus>
<clus scale="   26.818">  1  5  2 -1</clus>
</clustering>
</event>
<event>
 9    1  0.1636528E-005  0.9615579E+02  0.7546771E-02  0.1296137E+00
          1   -1    0    0  502    0 -0.00000000000E+00  0.00000000000E+00  0.13605526934E+03  0.13605526934E+03  0.00000000000E+00 0. -1.
         21   -1    0    0  501  502  0.00000000000E+00 -0.00000000000E+00 -0.82917072534E+03  0.82917072534E+03  0.00000000000E+00 0. -1.
         23    2    1    2    0    0 -0.25007491444E+02 -0.55732611063E+01  0.10352590292E+03  0.14193753446E+03  0.93660104882E+02 0.  0.
         23    2    1    2    0    0 -0.36814159206E+02  0.42813355075E+02 -0.20668141296E+03  0.22893042090E+03  0.80645306482E+02 0.  0.
        -11    1    3    3    0    0  0.11123585453E+02  0.31032729374E+02  0.87546624428E+01  0.34108775414E+02  0.00000000000E+00 0.  1.
         11    1    3    3    0    0 -0.36131076897E+02 -0.36605990481E+02  0.94771240472E+02  0.10782875905E+03  0.00000000000E+00 0. -1.
        -13    1    4    4    0    0  0.22424728319E+02  0.22351749279E+02 -0.10322007998E+03  0.10796691182E+03  0.00000000000E+00 0.  1.
         13    1    4    4    0    0 -0.59238887525E+02  0.20461605796E+02 -0.10346133298E+03  0.12096350908E+03  0.00000000000E+00 0. -1.
          1    1    1    2  501    0  0.61821650650E+02 -0.37240093969E+02 -0.58995994595E+03  0.59435803933E+03  0.00000000000E+00 0. -1.
<scales pt_clust_5="13000.00000" pt_clust_6="13000.00000" pt_clust_7="13000.00000" pt_clust_8="13000.00000" pt_clust_9="72.17161"></scales>
<clustering>
<clus scale="   72.172">  2  9  1 -1</clus>
<clus scale="   80.645">  7  8 -1 -1</clus>
<clus scale="   83.531">  2  7  1 -1</clus>
<clus scale="   93.660">  5  6 -1 -1</clus>
<clus scale="   72.172">  2  5  1 -1</clus>
</clustering>
</event>
<event>
 9    1  0.1636528E-005  0.1583809E+03  0.7546771E-02  0.1212799E+00
          2   -1    0    0  502    0 -0.00000000000E+00  0.00000000000E+00  0.64327552730E+03  0.64327552730E+03  0.00000000000E+00 0. -1.
         21   -1    0    0  501  502  0.00000000000E+00 -0.00000000000E+00 -0.88881541367E+02  0.88881541367E+02  0.00000000000E+00 0. -1.
         23    2    1    2    0    0 -0.25158851656E+02 -0.24146491858E+02  0.18011481236E+03  0.20494957761E+03  0.91361714323E+02 0.  0.
         23    2    1    2    0    0  0.41668221728E+02  0.14854998579E+03  0.35854602657E+03  0.40073092992E+03  0.90701080731E+02 0.  0.
        -11    1    3    3    0    0 -0.51967308858E+02  0.68022819385E+01  0.69838558895E+02  0.87317217878E+02  0.00000000000E+00 0.  1.
         11    1    3    3    0    0  0.26808457202E+02 -0.30948773797E+02  0.11027625346E+03  0.11763235973E+03  0.00000000000E+00 0. -1.
        -11    1    4    4    0    0  0.36866895448E+02  0.50670006562E+02  0.60953539082E+02  0.87418255940E+02  0.00000000000E+00 0.  1.
         11    1    4    4    0    0  0.48013262796E+01  0.97879979229E+02  0.29759248749E+03  0.31331267398E+03  0.00000000000E+00 0. -1.
          2    1    1    2  501    0 -0.16509370072E+02 -0.12440349393E+03  0.15733147003E+02  0.12647656114E+03  0.00000000000E+00 0. -1.
<scales pt_clust_5="13000.00000" pt_clust_6="13000.00000" pt_clust_7="13000.00000" pt_clust_8="13000.00000" pt_clust_9="129.83770"></scales>
<clustering>
<clus scale="   90.701">  7  8 -1 -1</clus>
<clus scale="   91.362">  5  6 -1 -1</clus>
<clus scale="   97.791">  1  5  2 -1</clus>
<clus scale="  129.838">  2  9  1 -1</clus>
<clus scale="  129.838">  2  5  1 -1</clus>
</clustering>
</event>
<event>
 9    1  0.1636528E-005  0.1102258E+03  0.7546771E-02  0.1260392E+00
         21   -1    0    0  501  502  0.00000000000E+00  0.00000000000E+00  0.74670880963E+02  0.74670880963E+02  0.00000000000E+00 0. -1.
          2   -1    0    0  502    0 -0.00000000000E+00 -0.00000000000E+00 -0.53141337250E+03  0.53141337250E+03  0.00000000000E+00 0. -1.
         23    2    1    2    0    0 -0.58847799393E+02  0.19307667903E+02 -0.45731575640E+03  0.47050885608E+03  0.91678967402E+02 0.  0.
         23    2    1    2    0    0  0.43805813731E+02 -0.40304109554E+02  0.68301441169E+01  0.10899983657E+03  0.91054615148E+02 0.  0.
        -11    1    4    4    0    0  0.29059156305E+01  0.21554685357E+02 -0.20576024509E+02  0.29940300451E+02  0.00000000000E+00 0.  1.
         11    1    4    4    0    0  0.40899898101E+02 -0.61858794910E+02  0.27406168626E+02  0.79059536118E+02  0.00000000000E+00 0. -1.
        -13    1    3    3    0    0 -0.59901630175E+02  0.50953510199E+02 -0.30892304721E+03  0.31877564932E+03  0.00000000000E+00 0.  1.
         13    1    3    3    0    0  0.10538307826E+01 -0.31645842295E+02 -0.14839270919E+03  0.15173320677E+03  0.00000000000E+00 0. -1.
          2    1    1    2  501    0  0.15041985661E+02  0.20996441650E+02 -0.62568792524E+01  0.26575560814E+02  0.00000000000E+00 0. -1.
<scales pt_clust_5="13000.00000" pt_clust_6="13000.00000" pt_clust_7="13000.00000" pt_clust_8="13000.00000" pt_clust_9="25.82851"></scales>
<clustering>
<clus scale="   25.829">  1  9  2 -1</clus>
<clus scale="   91.055">  5  6 -1 -1</clus>
<clus scale="   91.679">  7  8 -1 -1</clus>
<clus scale="  109.707">  1  5  2 -1</clus>
<clus scale="   25.829">  1  5  2 -1</clus>
</clustering>
</event>
<event>
 9    1  0.1636528E-005  0.2305972E+03  0.7546771E-02  0.1126348E+00
         21   -1    0    0  501  502  0.00000000000E+00  0.00000000000E+00  0.16430074198E+03  0.16430074198E+03  0.00000000000E+00 0. -1.
          1   -1    0    0  502    0 -0.00000000000E+00 -0.00000000000E+00 -0.55278559558E+03  0.55278559558E+03  0.00000000000E+00 0. -1.
         23    2    1    2    0    0  0.22967611349E+03  0.23125951520E+02 -0.36763759024E+03  0.44388726325E+03  0.92696159480E+02 0.  0.
         23    2    1    2    0    0 -0.16244196692E+03 -0.56693466676E+02 -0.32120901862E+02  0.19721023655E+03  0.90876747770E+02 0.  0.
        -11    1    4    4    0    0 -0.92638193988E+02  0.54765041171E+01  0.12487242524E+02  0.93636308709E+02  0.00000000000E+00 0.  1.
         11    1    4    4    0    0 -0.69803772928E+02 -0.62169970793E+02 -0.44608144386E+02  0.10357392784E+03  0.00000000000E+00 0. -1.
        -11    1    3    3    0    0  0.17569355030E+03  0.54606540311E+02 -0.29892927612E+03  0.35101112515E+03  0.00000000000E+00 0. -1.
         11    1    3    3    0    0  0.53982563189E+02 -0.31480588791E+02 -0.68708314119E+02  0.92876138100E+02  0.00000000000E+00 0.  1.
          1    1    1    2  501    0 -0.67234146570E+02  0.33567515156E+02  0.11273638503E+02  0.75988837759E+02  0.00000000000E+00 0. -1.
<scales pt_clust_5="13000.00000" pt_clust_6="13000.00000" pt_clust_7="13000.00000" pt_clust_8="13000.00000" pt_clust_9="75.14791"></scales>
<clustering>
<clus scale="   75.148">  1  9  2 -1</clus>
<clus scale="   90.877">  5  6 -1 -1</clus>
<clus scale="   92.696">  7  8 -1 -1</clus>
<clus scale="  229.872">  1  5  2 -1</clus>
<clus scale="   75.148">  1  5  2 -1</clus>
</clustering>
</event>
<event>
 9    1  0.1636528E-005  0.1052048E+03  0.7546771E-02  0.1269824E+00
          3   -1    0    0  502    0 -0.00000000000E+00  0.00000000000E+00  0.37997756226E+03  0.37997756226E+03  0.00000000000E+00 0. -1.
         21   -1    0    0  501  502  0.00000000000E+00 -0.00000000000E+00 -0.76883779790E+02  0.76883779790E+02  0.00000000000E+00 0.  1.
         23    2    1    2    0    0 -0.40585588866E+02  0.22689742991E+02  0.29975594762E+03  0.31723560775E+03  0.92858969576E+02 0.  0.
         23    2    1    2    0    0  0.57228536339E+02 -0.39267385346E+02 -0.10103348363E+01  0.11573614438E+03  0.92611022113E+02 0.  0.
        -11    1    4    4    0    0  0.59344280699E+02  0.15100511380E+02 -0.27786413298E+01  0.61298368194E+02  0.00000000000E+00 0.  1.
         11    1    4    4    0    0 -0.21157443600E+01 -0.54367896726E+02  0.17683064935E+01  0.54437776189E+02  0.00000000000E+00 0. -1.
        -11    1    3    3    0    0  0.18759595886E+02  0.35361708031E+02  0.83051067358E+02  0.92194645300E+02  0.00000000000E+00 0.  1.
         11    1    3    3    0    0 -0.59345184752E+02 -0.12671965041E+02  0.21670488027E+03  0.22504096245E+03  0.00000000000E+00 0. -1.
          3    1    1    2  501    0 -0.16642947473E+02  0.16577642355E+02  0.43481696840E+01  0.23889589914E+02  0.00000000000E+00 0. -1.
<scales pt_clust_5="13000.00000" pt_clust_6="13000.00000" pt_clust_7="13000.00000" pt_clust_8="13000.00000" pt_clust_9="23.49055"></scales>
<clustering>
<clus scale="   23.491">  2  9  1 -1</clus>
<clus scale="   92.611">  5  6 -1 -1</clus>
<clus scale="   92.859">  7  8 -1 -1</clus>
<clus scale="  104.986">  2  5  1 -1</clus>
<clus scale="   23.491">  2  5  1 -1</clus>
</clustering>
</event>
<event>
 9    1  0.1636528E-005  0.9347891E+02  0.7546771E-02  0.1295149E+00
         -1   -1    0    0    0  501 -0.00000000000E+00  0.00000000000E+00  0.19141654586E+03  0.19141654586E+03  0.00000000000E+00 0.  1.
         21   -1    0    0  501  502  0.00000000000E+00 -0.00000000000E+00 -0.15450456970E+03  0.15450456970E+03  0.00000000000E+00 0. -1.
         23    2    1    2    0    0  0.99321982139E+01  0.14640353019E+01  0.10275256558E+03  0.13907075970E+03  0.93176147762E+02 0.  0.
         23    2    1    2    0    0  0.40172701584E+02 -0.12990483631E+02  0.23129780752E+02  0.10409293878E+03  0.92291681797E+02 0.  0.
        -11    1    3    3    0    0 -0.25942369171E+02  0.35280723653E+02  0.56366171572E+02  0.71378437062E+02  0.00000000000E+00 0.  1.
         11    1    3    3    0    0  0.35874567385E+02 -0.33816688352E+02  0.46386394003E+02  0.67692322643E+02  0.00000000000E+00 0. -1.
        -13    1    4    4    0    0  0.43266216871E+02 -0.46907276723E+02  0.28003762437E+02  0.69688369492E+02  0.00000000000E+00 0. -1.
         13    1    4    4    0    0 -0.30935152872E+01  0.33916793092E+02 -0.48739816851E+01  0.34404569289E+02  0.00000000000E+00 0.  1.
         -1    1    1    2    0  502 -0.50104899797E+02  0.11526448329E+02 -0.88970370174E+02  0.10275741707E+03  0.00000000000E+00 0.  1.
<scales pt_clust_5="13000.00000" pt_clust_6="13000.00000" pt_clust_7="13000.00000" pt_clust_8="13000.00000" pt_clust_9="51.41362"></scales>
<clustering>
<clus scale="   51.414">  2  9  1 -1</clus>
<clus scale="   92.292">  7  8 -1 -1</clus>
<clus scale="   92.597">  2  7  1 -1</clus>
<clus scale="   93.176">  5  6 -1 -1</clus>
<clus scale="   51.414">  2  5  1 -1</clus>
</clustering>
</event>
<event>
 9    1  0.1636528E-005  0.1299862E+03  0.7546771E-02  0.1244518E+00
          2   -1    0    0  502    0 -0.00000000000E+00  0.00000000000E+00  0.24168252245E+03  0.24168252245E+03  0.00000000000E+00 0. -1.
         21   -1    0    0  501  502  0.00000000000E+00 -0.00000000000E+00 -0.10333600500E+03  0.10333600500E+03  0.00000000000E+00 0. -1.
         23    2    1    2    0    0  0.81844880056E+01  0.40063838031E+01  0.45593058326E+02  0.10244863949E+03  0.91290524211E+02 0.  0.
         23    2    1    2    0    0  0.77878341060E+02  0.42250400570E+02  0.57963141884E+02  0.13885457172E+03  0.89837263514E+02 0.  0.
        -11    1    3    3    0    0 -0.34467917632E+02 -0.76291407642E+01 -0.45549671262E+01  0.35594786981E+02  0.00000000000E+00 0.  1.
         11    1    3    3    0    0  0.42652405637E+02  0.11635524567E+02  0.50148025452E+02  0.66853852509E+02  0.00000000000E+00 0. -1.
        -13    1    4    4    0    0  0.87249856686E+00  0.47306629381E+02  0.33224187287E+02  0.57814574789E+02  0.00000000000E+00 0.  1.
         13    1    4    4    0    0  0.77005842493E+02 -0.50562288111E+01  0.24738954597E+02  0.81039996930E+02  0.00000000000E+00 0. -1.
          2    1    1    2  501    0 -0.86062829066E+02 -0.46256784373E+02  0.34790317239E+02  0.10371531623E+03  0.00000000000E+00 0. -1.
<scales pt_clust_5="13000.00000" pt_clust_6="13000.00000" pt_clust_7="13000.00000" pt_clust_8="13000.00000" pt_clust_9="93.94510"></scales>
<clustering>
<clus scale="   89.837">  7  8 -1 -1</clus>
<clus scale="   91.291">  5  6 -1 -1</clus>
<clus scale="   91.744">  1  5  2 -1</clus>
<clus scale="   93.945">  2  9  1 -1</clus>
<clus scale="   93.945">  2  5  1 -1</clus>
</clustering>
</event>
<event>
 9    1  0.1636528E-005  0.9390193E+02  0.7546771E-02  0.1313758E+00
         -3   -1    0    0    0  501 -0.00000000000E+00  0.00000000000E+00  0.51190032937E+03  0.51190032937E+03  0.00000000000E+00 0.  1.
         21   -1    0    0  501  502  0.00000000000E+00 -0.00000000000E+00 -0.49645457716E+02  0.49645457716E+02  0.00000000000E+00 0. -1.
         23    2    1    2    0    0  0.14613574479E+02 -0.24051978752E+02  0.36660202948E+03  0.37926111958E+03  0.93004809349E+02 0.  0.
         23    2    1    2    0    0  0.28258284820E+02 -0.54178284686E+01  0.10817149106E+03  0.12877595394E+03  0.63673317090E+02 0.  0.
        -11    1    4    4    0    0  0.48834642664E+02 -0.61620157358E+01  0.73778216909E+02  0.88690574766E+02  0.00000000000E+00 0. -1.
         11    1    4    4    0    0 -0.20576357845E+02  0.74418726718E+00  0.34393274154E+02  0.40085379178E+02  0.00000000000E+00 0.  1.
        -13    1    3    3    0    0 -0.16033772022E+02 -0.48722383127E+02  0.13648464004E+03  0.14580469619E+03  0.00000000000E+00 0.  1.
         13    1    3    3    0    0  0.30647346501E+02  0.24670404375E+02  0.23011738944E+03  0.23345642339E+03  0.00000000000E+00 0. -1.
         -3    1    1    2    0  502 -0.42871859299E+02  0.29469807221E+02 -0.12518648890E+02  0.53508713565E+02  0.00000000000E+00 0.  1.
<scales pt_clust_5="13000.00000" pt_clust_6="13000.00000" pt_clust_7="13000.00000" pt_clust_8="13000.00000" pt_clust_9="52.02370"></scales>
<clustering>
<clus scale="   52.024">  2  9  1 -1</clus>
<clus scale="   63.673">  5  6 -1 -1</clus>
<clus scale="   64.977">  2  5  1 -1</clus>
<clus scale="   93.005">  7  8 -1 -1</clus>
<clus scale="   52.024">  2  5  1 -1</clus>
</clustering>
</event>
<event>
 9    1  0.1636528E-005  0.1320613E+03  0.7546771E-02  0.1226327E+00
         21   -1    0    0  501  502  0.00000000000E+00  0.00000000000E+00  0.13116724810E+03  0.13116724810E+03  0.00000000000E+00 0.  1.
          1   -1    0    0  502    0 -0.00000000000E+00 -0.00000000000E+00 -0.29038455394E+03  0.29038455394E+03  0.00000000000E+00 0. -1.
         23    2    1    2    0    0 -0.31925425971E+02  0.52871369640E+02 -0.10484847152E+03  0.15720370394E+03  0.99524810976E+02 0.  0.
         23    2    1    2    0    0  0.62970986560E+02 -0.80446189285E+02 -0.11780237367E+03  0.18853245708E+03  0.10597241911E+03 0.  0.
        -11    1    4    4    0    0  0.70625421924E+02 -0.22012419017E+02 -0.24034577906E+02  0.77782759967E+02  0.00000000000E+00 0.  1.
         11    1    4    4    0    0 -0.76544353640E+01 -0.58433770268E+02 -0.93767795759E+02  0.11074969711E+03  0.00000000000E+00 0. -1.
        -13    1    3    3    0    0  0.19278312354E+02  0.85586331833E+01 -0.83618576572E+02  0.86237868000E+02  0.00000000000E+00 0.  1.
         13    1    3    3    0    0 -0.51203738325E+02  0.44312736457E+02 -0.21229894952E+02  0.70965835938E+02  0.00000000000E+00 0. -1.
          1    1    1    2  501    0 -0.31045560589E+02  0.27574819645E+02  0.63433539347E+02  0.75815641030E+02  0.00000000000E+00 0. -1.
<scales pt_clust_5="13000.00000" pt_clust_6="13000.00000" pt_clust_7="13000.00000" pt_clust_8="13000.00000" pt_clust_9="41.52346"></scales>
<clustering>
<clus scale="   41.523">  1  9  2 -1</clus>
<clus scale="   99.525">  7  8 -1 -1</clus>
<clus scale="  105.972">  5  6 -1 -1</clus>
<clus scale="  126.946">  2  7  1 -1</clus>
<clus scale="   41.523">  1  5  2 -1</clus>
</clustering>
</event>
<event>
 9    1  0.1636528E-005  0.1401197E+03  0.7546771E-02  0.1215151E+00
         21   -1    0    0  501  502  0.00000000000E+00  0.00000000000E+00  0.37530516754E+03  0.37530516754E+03  0.00000000000E+00 0. -1.
         -1   -1    0    0    0  501 -0.00000000000E+00 -0.00000000000E+00 -0.90832494005E+02  0.90832494005E+02  0.00000000000E+00 0.  1.
         23    2    1    2    0    0  0.91798160827E+02  0.50951541970E+02  0.52764544240E+00  0.13984788472E+03  0.92380682451E+02 0.  0.
         23    2    1    2    0    0 -0.68023461941E+02 -0.32464827635E+02  0.19152039016E+03  0.22908222254E+03  0.10058552792E+03 0.  0.
        -13    1    4    4    0    0 -0.52992474446E+02 -0.58826496297E+02  0.17996333996E+03  0.19661017965E+03  0.00000000000E+00 0. -1.
         13    1    4    4    0    0 -0.15030987495E+02  0.26361668662E+02  0.11557050206E+02  0.32472042886E+02  0.00000000000E+00 0.  1.
        -13    1    3    3    0    0  0.21741046416E+02  0.64619899325E+02 -0.42390928026E+01  0.68310865869E+02  0.00000000000E+00 0.  1.
         13    1    3    3    0    0  0.70057114411E+02 -0.13668357354E+02  0.47667382450E+01  0.71537018850E+02  0.00000000000E+00 0. -1.
         -1    1    1    2    0  502 -0.23774698886E+02 -0.18486714335E+02  0.92424637934E+02  0.97207554291E+02  0.00000000000E+00 0.  1.
<scales pt_clust_5="13000.00000" pt_clust_6="13000.00000" pt_clust_7="13000.00000" pt_clust_8="13000.00000" pt_clust_9="30.11636"></scales>
<clustering>
<clus scale="   30.116">  1  9  2 -1</clus>
<clus scale="   92.381">  7  8 -1 -1</clus>
<clus scale="  100.586">  5  6 -1 -1</clus>
<clus scale="  134.351">  2  7  1 -1</clus>
<clus scale="   30.116">  1  5  2 -1</clus>
</clustering>
</event>
<event>
 9    1  0.1636528E-005  0.1016877E+03  0.7546771E-02  0.1280091E+00
         21   -1    0    0  501  502  0.00000000000E+00  0.00000000000E+00  0.25757017371E+03  0.25757017371E+03  0.00000000000E+00 0.  1.
          3   -1    0    0  502    0 -0.00000000000E+00 -0.00000000000E+00 -0.99413267843E+02  0.99413267843E+02  0.00000000000E+00 0. -1.
         23    2    1    2    0    0  0.25353488555E+02 -0.11022384256E+02 -0.92887164791E+01  0.10247523830E+03  0.98237476934E+02 0.  0.
         23    2    1    2    0    0  0.28333391829E+02  0.61469098454E+02  0.12612272307E+03  0.17004084800E+03  0.91791707449E+02 0.  0.
        -11    1    3    3    0    0 -0.90526407729E+01 -0.22781275831E+02  0.36523497124E+02  0.43987528637E+02  0.00000000000E+00 0. -1.
         11    1    3    3    0    0  0.34406129328E+02  0.11758891575E+02 -0.45812213603E+02  0.58487709664E+02  0.00000000000E+00 0.  1.
        -13    1    4    4    0    0  0.51379037541E+02  0.58326536881E+02  0.12443994428E+03  0.14672113051E+03  0.00000000000E+00 0.  1.
         13    1    4    4    0    0 -0.23045645712E+02  0.31425615728E+01  0.16827787854E+01  0.23319717494E+02  0.00000000000E+00 0. -1.
          3    1    1    2  501    0 -0.53686880384E+02 -0.50446714199E+02  0.41322899276E+02  0.84467355253E+02  0.00000000000E+00 0. -1.
<scales pt_clust_5="13000.00000" pt_clust_6="13000.00000" pt_clust_7="13000.00000" pt_clust_8="13000.00000" pt_clust_9="73.66921"></scales>
<clustering>
<clus scale="   73.669">  1  9  2 -1</clus>
<clus scale="   91.792">  7  8 -1 -1</clus>
<clus scale="   95.475">  1  7  2 -1</clus>
<clus scale="   98.237">  5  6 -1 -1</clus>
<clus scale="   73.669">  1  5  2 -1</clus>
</clustering>
</event>
<event>
 9    1  0.1636528E-005  0.9395218E+02  0.7546771E-02  0.1294088E+00
          3   -1    0    0  502    0 -0.00000000000E+00  0.00000000000E+00  0.24242756877E+03  0.24242756877E+03  0.00000000000E+00 0. -1.
         21   -1    0    0  501  502  0.00000000000E+00 -0.00000000000E+00 -0.77730251508E+02  0.77730251508E+02  0.00000000000E+00 0.  1.
         23    2    1    2    0    0 -0.25404328892E+02  0.14019534401E+02  0.16331131383E+03  0.18853139867E+03  0.89619059302E+02 0.  0.
         23    2    1    2    0    0  0.37420444785E+00 -0.22607584206E+02  0.24463905174E+02  0.96514439629E+02  0.90583174530E+02 0.  0.
        -13    1    3    3    0    0 -0.45075088388E+02 -0.48078432766E+01  0.15273612063E+03  0.15932106419E+03  0.00000000000E+00 0. -1.
         13    1    3    3    0    0  0.19670759496E+02  0.18827377677E+02  0.10575193199E+02  0.29210334482E+02  0.00000000000E+00 0.  1.
        -13    1    4    4    0    0 -0.40788113165E+02 -0.18054522979E+02  0.31366529785E+02  0.54529764040E+02  0.00000000000E+00 0. -1.
         13    1    4    4    0    0  0.41162317613E+02 -0.45530612277E+01 -0.69026246113E+01  0.41984675589E+02  0.00000000000E+00 0.  1.
          3    1    1    2  501    0  0.25030124445E+02  0.85880498055E+01 -0.23077901743E+02  0.35111981972E+02  0.00000000000E+00 0. -1.
<scales pt_clust_5="13000.00000" pt_clust_6="13000.00000" pt_clust_7="13000.00000" pt_clust_8="13000.00000" pt_clust_9="26.46246"></scales>
<clustering>
<clus scale="   26.462">  2  9  1 -1</clus>
<clus scale="   89.619">  5  6 -1 -1</clus>
<clus scale="   90.583">  7  8 -1 -1</clus>
<clus scale="   93.023">  1  5  2 -1</clus>
<clus scale="   26.462">  2  5  1 -1</clus>
</clustering>
</event>
<event>
 9    1  0.1636528E-005  0.1117316E+03  0.7546771E-02  0.1257808E+00
         21   -1    0    0  501  502  0.00000000000E+00  0.00000000000E+00  0.40572442391E+03  0.40572442391E+03  0.00000000000E+00 0. -1.
          4   -1    0    0  502    0 -0.00000000000E+00 -0.00000000000E+00 -0.61782311742E+02  0.61782311742E+02  0.00000000000E+00 0. -1.
         23    2    1    2    0    0  0.60056929034E+02 -0.57630666228E+02  0.72032232416E+02  0.14266659005E+03  0.90757837103E+02 0.  0.
         23    2    1    2    0    0 -0.50753589314E+02 -0.36488620289E+01  0.11295091266E+03  0.15422453690E+03  0.91858903153E+02 0.  0.
        -11    1    3    3    0    0  0.27588046186E+02 -0.17316113197E+02  0.83517075367E+02  0.89644017907E+02  0.00000000000E+00 0.  1.
         11    1    3    3    0    0  0.32468882847E+02 -0.40314553031E+02 -0.11484842951E+02  0.53022572146E+02  0.00000000000E+00 0. -1.
        -13    1    4    4    0    0 -0.74151993504E+02 -0.98774679976E+01  0.59635882813E+02  0.95668809095E+02  0.00000000000E+00 0.  1.
         13    1    4    4    0    0  0.23398404190E+02  0.62286059687E+01  0.53315029850E+02  0.58555727806E+02  0.00000000000E+00 0. -1.
          4    1    1    2  501    0 -0.93033397198E+01  0.61279528257E+02  0.15895896709E+03  0.17061560870E+03  0.00000000000E+00 0. -1.
<scales pt_clust_5="13000.00000" pt_clust_6="13000.00000" pt_clust_7="13000.00000" pt_clust_8="13000.00000" pt_clust_9="61.98171"></scales>
<clustering>
<clus scale="   61.982">  1  9  2 -1</clus>
<clus scale="   90.758">  5  6 -1 -1</clus>
<clus scale="   91.859">  7  8 -1 -1</clus>
<clus scale="  110.828">  2  5  1 -1</clus>
<clus scale="   61.982">  1  5  2 -1</clus>
</clustering>
</event>
<event>
 9    1  0.1636528E-005  0.1521295E+03  0.7546771E-02  0.1222016E+00
         21   -1    0    0  501  502  0.00000000000E+00  0.00000000000E+00  0.52550093959E+02  0.52550093959E+02  0.00000000000E+00 0. -1.
          2   -1    0    0  502    0 -0.00000000000E+00 -0.00000000000E+00 -0.64966969228E+03  0.64966969228E+03  0.00000000000E+00 0. -1.
         23    2    1    2    0    0 -0.57811561614E+01 -0.10513109469E+01 -0.10377549260E+03  0.13792742931E+03  0.90664744369E+02 0.  0.
         23    2    1    2    0    0 -0.11792102079E+03  0.11660195837E+02 -0.26397036852E+03  0.30347232637E+03  0.91508306223E+02 0.  0.
        -11    1    3    3    0    0 -0.37767242398E+02 -0.29495907192E+02 -0.51120507206E+02  0.70069104436E+02  0.00000000000E+00 0. -1.
         11    1    3    3    0    0  0.31986086237E+02  0.28444596246E+02 -0.52654985392E+02  0.67858324876E+02  0.00000000000E+00 0.  1.
        -13    1    4    4    0    0 -0.90901218583E+02 -0.25315332756E+02 -0.12159586912E+03  0.15391378431E+03  0.00000000000E+00 0.  1.
         13    1    4    4    0    0 -0.27019802202E+02  0.36975528593E+02 -0.14237449940E+03  0.14955854207E+03  0.00000000000E+00 0. -1.
          2    1    1    2  501    0  0.12370217695E+03 -0.10608884890E+02 -0.22937373721E+03  0.26082003056E+03  0.00000000000E+00 0. -1.
<scales pt_clust_5="13000.00000" pt_clust_6="13000.00000" pt_clust_7="13000.00000" pt_clust_8="13000.00000" pt_clust_9="121.53040"></scales>
<clustering>
<clus scale="   90.665">  5  6 -1 -1</clus>
<clus scale="   90.855">  2  5  1 -1</clus>
<clus scale="   91.508">  7  8 -1 -1</clus>
<clus scale="  121.530">  1  9  2 -1</clus>
<clus scale="  121.530">  1  5  2 -1</clus>
</clustering>
</event>
<event>
 9    1  0.1636528E-005  0.1319932E+03  0.7546771E-02  0.1226373E+00
          2   -1    0    0  502    0 -0.00000000000E+00  0.00000000000E+00  0.79272952935E+03  0.79272952935E+03  0.00000000000E+00 0. -1.
         21   -1    0    0  501  502  0.00000000000E+00 -0.00000000000E+00 -0.22803115552E+03  0.22803115552E+03  0.00000000000E+00 0. -1.
         23    2    1    2    0    0 -0.39656247456E+02 -0.55919778097E+02  0.36836450023E+03  0.38562762673E+03  0.91195514812E+02 0.  0.
         23    2    1    2    0    0  0.47929552705E+01  0.14379001609E+03  0.38587624207E+03  0.42332433000E+03  0.98002413377E+02 0.  0.
        -11    1    3    3    0    0 -0.29961123685E+02  0.15158944939E+02  0.57435609124E+02  0.66530532386E+02  0.00000000000E+00 0. -1.
         11    1    3    3    0    0 -0.96951237710E+01 -0.71078723036E+02  0.31092889111E+03  0.31909709434E+03  0.00000000000E+00 0.  1.
        -13    1    4    4    0    0 -0.29893994994E+02  0.57285367917E+02  0.76103328519E+02  0.99834768121E+02  0.00000000000E+00 0.  1.
         13    1    4    4    0    0  0.34686950264E+02  0.86504648172E+02  0.30977291355E+03  0.32348956188E+03  0.00000000000E+00 0. -1.
          2    1    1    2  501    0  0.34863292185E+02 -0.87870237992E+02 -0.18954236848E+03  0.21180872814E+03  0.00000000000E+00 0. -1.
<scales pt_clust_5="13000.00000" pt_clust_6="13000.00000" pt_clust_7="13000.00000" pt_clust_8="13000.00000" pt_clust_9="94.53374"></scales>
<clustering>
<clus scale="   91.196">  5  6 -1 -1</clus>
<clus scale="   94.534">  2  9  1 -1</clus>
<clus scale="   98.002">  7  8 -1 -1</clus>
<clus scale="  127.021">  1  5  2 -1</clus>
<clus scale="   94.534">  2  5  1 -1</clus>
</clustering>
</event>
<event>
 9    1  0.1636528E-005  0.1236098E+03  0.7546771E-02  0.1237318E+00
          1   -1    0    0  502    0 -0.00000000000E+00  0.00000000000E+00  0.55058808484E+03  0.55058808484E+03  0.00000000000E+00 0. -1.
         21   -1    0    0  501  502  0.00000000000E+00 -0.00000000000E+00 -0.59361432219E+02  0.59361432219E+02  0.00000000000E+00 0.  1.
         23    2    1    2    0    0 -0.77951564793E+02 -0.46417211836E+02  0.35380759179E+03  0.37650913731E+03  0.91369111072E+02 0.  0.
         23    2    1    2    0    0  0.58441523243E+02  0.40787811365E+02  0.16355082628E+03  0.20034655803E+03  0.91163662411E+02 0.  0.
        -11    1    3    3    0    0 -0.78358902048E+02  0.26082329605E+01  0.24313365774E+03  0.25546212231E+03  0.00000000000E+00 0.  1.
         11    1    3    3    0    0  0.40733725462E+00 -0.49025444797E+02  0.11067393405E+03  0.12104701500E+03  0.00000000000E+00 0. -1.
        -13    1    4    4    0    0  0.25809100182E+02  0.20965449879E+02  0.15836099922E+03  0.16181429422E+03  0.00000000000E+00 0. -1.
         13    1    4    4    0    0  0.32632423061E+02  0.19822361486E+02  0.51898270631E+01  0.38532263814E+02  0.00000000000E+00 0.  1.
          1    1    1    2  501    0  0.19510041550E+02  0.56294004711E+01 -0.26131765446E+02  0.33093821723E+02  0.00000000000E+00 0. -1.
<scales pt_clust_5="13000.00000" pt_clust_6="13000.00000" pt_clust_7="13000.00000" pt_clust_8="13000.00000" pt_clust_9="20.30596"></scales>
<clustering>
<clus scale="   20.306">  2  9  1 -1</clus>
<clus scale="   91.164">  7  8 -1 -1</clus>
<clus scale="   91.369">  5  6 -1 -1</clus>
<clus scale="  123.458">  2  7  1 -1</clus>
<clus scale="   20.306">  2  5  1 -1</clus>
</clustering>
</event>
<event>
 9    1  0.1636528E-005  0.9797017E+02  0.7546771E-02  0.1286184E+00
          2   -1    0    0  502    0 -0.00000000000E+00  0.00000000000E+00  0.78205485237E+03  0.78205485237E+03  0.00000000000E+00 0. -1.
         21   -1    0    0  501  502  0.00000000000E+00 -0.00000000000E+00 -0.40326929721E+02  0.40326929721E+02  0.00000000000E+00 0. -1.
         23    2    1    2    0    0 -0.28342555394E+02  0.30172885190E+02  0.43552324149E+03  0.44644214262E+03  0.88974093864E+02 0.  0.
         23    2    1    2    0    0 -0.27701801684E+02 -0.37478318093E+02  0.30215886831E+03  0.31927653056E+03  0.92008190538E+02 0.  0.
        -11    1    4    4    0    0  0.11221122068E+02 -0.58035237917E+02  0.17541746768E+03  0.18510886092E+03  0.00000000000E+00 0.  1.
         11    1    4    4    0    0 -0.38922923752E+02  0.20556919824E+02  0.12674140063E+03  0.13416766965E+03  0.00000000000E+00 0. -1.
        -11    1    3    3    0    0 -0.53025273550E+02 -0.70213001915E+01  0.23983087527E+03  0.24572306979E+03  0.00000000000E+00 0.  1.
         11    1    3    3    0    0  0.24682718156E+02  0.37194185382E+02  0.19569236622E+03  0.20071907283E+03  0.00000000000E+00 0. -1.
          2    1    1    2  501    0  0.56044357077E+02  0.73054329029E+01  0.40458128492E+01  0.56663108913E+02  0.00000000000E+00 0. -1.
<scales pt_clust_5="13000.00000" pt_clust_6="13000.00000" pt_clust_7="13000.00000" pt_clust_8="13000.00000" pt_clust_9="56.51849"></scales>
<clustering>
<clus scale="   56.518">  2  9  1 -1</clus>
<clus scale="   88.974">  7  8 -1 -1</clus>
<clus scale="   92.008">  5  6 -1 -1</clus>
<clus scale="   95.126">  1  7  2 -1</clus>
<clus scale="   56.518">  2  5  1 -1</clus>
</clustering>
</event>
<event>
 9    1  0.1636528E-005  0.1251404E+03  0.7546771E-02  0.1240888E+00
          1   -1    0    0  502    0 -0.00000000000E+00  0.00000000000E+00  0.21456609168E+03  0.21456609168E+03  0.00000000000E+00 0. -1.
         21   -1    0    0  501  502  0.00000000000E+00 -0.00000000000E+00 -0.15495385649E+03  0.15495385649E+03  0.00000000000E+00 0.  1.
         23    2    1    2    0    0  0.23518867408E+02  0.44867802862E+02  0.91804573883E+02  0.15134814232E+03  0.10914175892E+03 0.  0.
         23    2    1    2    0    0 -0.26701970920E+02 -0.70374392651E+02  0.52204787208E+02  0.12994713169E+03  0.92170314281E+02 0.  0.
        -11    1    3    3    0    0  0.32189969440E+02 -0.83228694479E+01  0.91607894657E+02  0.97454967302E+02  0.00000000000E+00 0. -1.
         11    1    3    3    0    0 -0.86711020314E+01  0.53190672310E+02  0.19667922602E+00  0.53893175021E+02  0.00000000000E+00 0.  1.
        -13    1    4    4    0    0 -0.57666963515E+02 -0.23684956008E+02  0.34168131325E+02  0.71090906735E+02  0.00000000000E+00 0.  1.
         13    1    4    4    0    0  0.30964992595E+02 -0.46689436643E+02  0.18036655883E+02  0.58856224954E+02  0.00000000000E+00 0. -1.
          1    1    1    2  501    0  0.31831035121E+01  0.25506589789E+02 -0.84397125896E+02  0.88224674157E+02  0.00000000000E+00 0. -1.
<scales pt_clust_5="13000.00000" pt_clust_6="13000.00000" pt_clust_7="13000.00000" pt_clust_8="13000.00000" pt_clust_9="25.70444"></scales>
<clustering>
<clus scale="   25.704">  2  9  1 -1</clus>
<clus scale="   92.170">  7  8 -1 -1</clus>
<clus scale="  109.142">  5  6 -1 -1</clus>
<clus scale="  110.651">  2  7  1 -1</clus>
<clus scale="   25.704">  2  5  1 -1</clus>
</clustering>
</event>
<event>
 9    1  0.1636528E-005  0.1080303E+03  0.7546771E-02  0.1264749E+00
         -3   -1    0    0    0  501 -0.00000000000E+00  0.00000000000E+00  0.17132343850E+03  0.17132343850E+03  0.00000000000E+00 0.  1.
         21   -1    0    0  501  502  0.00000000000E+00 -0.00000000000E+00 -0.19860887911E+03  0.19860887911E+03  0.00000000000E+00 0.  1.
         23    2    1    2    0    0 -0.55041011363E+02 -0.23928629319E+02  0.10613810820E+03  0.15148100830E+03  0.89883845208E+02 0.  0.
         23    2    1    2    0    0  0.34232793681E+02  0.46809231802E+02 -0.32320009916E+02  0.11272321716E+03  0.91098585619E+02 0.  0.
        -11    1    4    4    0    0  0.61701161424E+02  0.27494172855E+02 -0.39686407763E+02  0.78345222082E+02  0.00000000000E+00 0. -1.
         11    1    4    4    0    0 -0.27468367743E+02  0.19315058947E+02  0.73663978462E+01  0.34377995082E+02  0.00000000000E+00 0.  1.
        -13    1    3    3    0    0  0.14277124601E+02 -0.22098274243E+02  0.20216553500E+01  0.26386684175E+02  0.00000000000E+00 0.  1.
         13    1    3    3    0    0 -0.69318135964E+02 -0.18303550756E+01  0.10411645285E+03  0.12509432412E+03  0.00000000000E+00 0. -1.
         -3    1    1    2    0  502  0.20808217682E+02 -0.22880602484E+02 -0.10110353889E+03  0.10572809215E+03  0.00000000000E+00 0.  1.
<scales pt_clust_5="13000.00000" pt_clust_6="13000.00000" pt_clust_7="13000.00000" pt_clust_8="13000.00000" pt_clust_9="30.92740"></scales>
<clustering>
<clus scale="   30.927">  2  9  1 -1</clus>
<clus scale="   89.884">  7  8 -1 -1</clus>
<clus scale="   91.099">  5  6 -1 -1</clus>
<clus scale="  107.008">  1  7  2 -1</clus>
<clus scale="   30.927">  2  5  1 -1</clus>
</clustering>
</event>
<event>
 9    1  0.1636528E-005  0.2140767E+03  0.7546771E-02  0.1161796E+00
         -2   -1    0    0    0  501 -0.00000000000E+00  0.00000000000E+00  0.19624638554E+03  0.19624638554E+03  0.00000000000E+00 0.  1.
         21   -1    0    0  501  502  0.00000000000E+00 -0.00000000000E+00 -0.45100480525E+03  0.45100480525E+03  0.00000000000E+00 0.  1.
         23    2    1    2    0    0  0.81221731734E+02  0.25447025381E+02  0.14606727538E+02  0.12377972602E+03  0.88676621938E+02 0.  0.
         23    2    1    2    0    0 -0.15315009044E+03  0.15058766146E+03 -0.60407875672E+02  0.24093820814E+03  0.90942370270E+02 0.  0.
        -13    1    3    3    0    0 -0.12094369766E+02 -0.16570366219E+02  0.38963387353E+01  0.20881385783E+02  0.00000000000E+00 0. -1.
         13    1    3    3    0    0  0.93316101500E+02  0.42017391600E+02  0.10710388802E+02  0.10289834024E+03  0.00000000000E+00 0.  1.
        -13    1    4    4    0    0 -0.13986362779E+03  0.12330182832E+03 -0.15984934581E+02  0.18713816655E+03  0.00000000000E+00 0.  1.
         13    1    4    4    0    0 -0.13286462656E+02  0.27285833144E+02 -0.44422941091E+02  0.53800041593E+02  0.00000000000E+00 0. -1.
         -2    1    1    2    0  502  0.71928358708E+02 -0.17603468684E+03 -0.20895727158E+03  0.28253325663E+03  0.00000000000E+00 0.  1.
<scales pt_clust_5="13000.00000" pt_clust_6="13000.00000" pt_clust_7="13000.00000" pt_clust_8="13000.00000" pt_clust_9="193.79973"></scales>
<clustering>
<clus scale="   88.677">  5  6 -1 -1</clus>
<clus scale="   90.942">  7  8 -1 -1</clus>
<clus scale="  122.915">  1  5  2 -1</clus>
<clus scale="  193.800">  2  9  1 -1</clus>
<clus scale="  193.800">  2  5  1 -1</clus>
</clustering>
</event>
<event>
 9    1  0.1636528E-005  0.1347134E+03  0.7546771E-02  0.1221646E+00
          2   -1    0    0  502    0 -0.00000000000E+00  0.00000000000E+00  0.14285734658E+03  0.14285734658E+03  0.00000000000E+00 0. -1.
         21   -1    0    0  501  502  0.00000000000E+00 -0.00000000000E+00 -0.17208921498E+03  0.17208921498E+03  0.00000000000E+00 0.  1.
         23    2    1    2    0    0 -0.95790060521E+02 -0.24774061916E+02  0.43663336894E+02  0.14433073594E+03  0.95579205429E+02 0.  0.
         23    2    1    2    0    0  0.80403690414E+02  0.37884677467E+02 -0.43191602109E+02  0.13468627417E+03  0.91514347169E+02 0.  0.
        -11    1    3    3    0    0 -0.83989950585E+02  0.11656175178E+02  0.58764465744E+02  0.10316705217E+03  0.00000000000E+00 0.  1.
         11    1    3    3    0    0 -0.11800109936E+02 -0.36430237095E+02 -0.15101128850E+02  0.41163683773E+02  0.00000000000E+00 0. -1.
        -13    1    4    4    0    0  0.61748726256E+02  0.21001536405E+02 -0.71522463398E+02  0.96795828919E+02  0.00000000000E+00 0.  1.
         13    1    4    4    0    0  0.18654964158E+02  0.16883141061E+02  0.28330861289E+02  0.37890445250E+02  0.00000000000E+00 0. -1.
          2    1    1    2  501    0  0.15386370107E+02 -0.13110615550E+02 -0.29703603186E+02  0.35929551450E+02  0.00000000000E+00 0. -1.
<scales pt_clust_5="13000.00000" pt_clust_6="13000.00000" pt_clust_7="13000.00000" pt_clust_8="13000.00000" pt_clust_9="20.21456"></scales>
<clustering>
<clus scale="   20.215">  2  9  1 -1</clus>
<clus scale="   91.514">  7  8 -1 -1</clus>
<clus scale="   95.579">  5  6 -1 -1</clus>
<clus scale="  131.860">  2  7  1 -1</clus>
<clus scale="   20.215">  2  5  1 -1</clus>
</clustering>
</event>
<event>
 9    1  0.1636528E-005  0.9877946E+02  0.7546771E-02  0.1284125E+00
          1   -1    0    0  502    0 -0.00000000000E+00  0.00000000000E+00  0.56697792138E+03  0.56697792138E+03  0.00000000000E+00 0. -1.
         21   -1    0    0  501  502  0.00000000000E+00 -0.00000000000E+00 -0.21467023811E+02  0.21467023811E+02  0.00000000000E+00 0. -1.
         23    2    1    2    0    0 -0.37782462413E+02 -0.21307824633E+02  0.27168601632E+03  0.29037362650E+03  0.92854798727E+02 0.  0.
         23    2    1    2    0    0  0.25279455797E+02  0.10584018308E+01  0.21413339238E+03  0.23381061420E+03  0.90410853775E+02 0.  0.
        -13    1    4    4    0    0 -0.19558934629E+02 -0.18345058114E+02  0.19545716878E+02  0.33183250734E+02  0.00000000000E+00 0.  1.
         13    1    4    4    0    0  0.44838390425E+02  0.19403459945E+02  0.19458767550E+03  0.20062736346E+03  0.00000000000E+00 0. -1.
        -13    1    3    3    0    0  0.14968470185E+02  0.26344679052E+02  0.62904622227E+02  0.69821835493E+02  0.00000000000E+00 0.  1.
         13    1    3    3    0    0 -0.52750932598E+02 -0.47652503684E+02  0.20878139409E+03  0.22055179101E+03  0.00000000000E+00 0. -1.
          1    1    1    2  501    0  0.12503006617E+02  0.20249422802E+02  0.59691488871E+02  0.64260704493E+02  0.00000000000E+00 0. -1.
<scales pt_clust_5="13000.00000" pt_clust_6="13000.00000" pt_clust_7="13000.00000" pt_clust_8="13000.00000" pt_clust_9="23.79842"></scales>
<clustering>
<clus scale="   23.798">  2  9  1 -1</clus>
<clus scale="   90.411">  5  6 -1 -1</clus>
<clus scale="   92.855">  7  8 -1 -1</clus>
<clus scale="   96.486">  2  5  1 -1</clus>
<clus scale="   23.798">  2  5  1 -1</clus>
</clustering>
</event>
<event>
 9    1  0.1636528E-005  0.9976143E+02  0.7546771E-02  0.1282290E+00
         -2   -1    0    0    0  501 -0.00000000000E+00  0.00000000000E+00  0.11521386926E+04  0.11521386926E+04  0.00000000000E+00 0.  1.
         21   -1    0    0  501  502  0.00000000000E+00 -0.00000000000E+00 -0.20021405853E+02  0.20021405853E+02  0.00000000000E+00 0. -1.
         23    2    1    2    0    0 -0.33575009940E+02 -0.48513910860E+02  0.50383072326E+03  0.51539313497E+03  0.91125216247E+02 0.  0.
         23    2    1    2    0    0 -0.38172481877E+02  0.60362297129E+01  0.26061647548E+03  0.27976119483E+03  0.94084028411E+02 0.  0.
        -11    1    3    3    0    0  0.20833423156E+02  0.61678555025E+01  0.43286134942E+02  0.48433082084E+02  0.00000000000E+00 0.  1.
         11    1    3    3    0    0 -0.54408433096E+02 -0.54681766362E+02  0.46054458832E+03  0.46696005289E+03  0.00000000000E+00 0. -1.
        -13    1    4    4    0    0 -0.35941933657E+02  0.47318414266E+02  0.13449510529E+03  0.14703669022E+03  0.00000000000E+00 0.  1.
         13    1    4    4    0    0 -0.22305482201E+01 -0.41282184553E+02  0.12612137019E+03  0.13272450461E+03  0.00000000000E+00 0. -1.
         -2    1    1    2    0  502  0.71747491817E+02  0.42477681147E+02  0.36767008800E+03  0.37700576864E+03  0.00000000000E+00 0.  1.
<scales pt_clust_5="13000.00000" pt_clust_6="13000.00000" pt_clust_7="13000.00000" pt_clust_8="13000.00000" pt_clust_9="83.37903"></scales>
<clustering>
<clus scale="   83.379">  2  9  1 -1</clus>
<clus scale="   91.125">  5  6 -1 -1</clus>
<clus scale="   94.084">  7  8 -1 -1</clus>
<clus scale="   96.976">  1  5  2 -1</clus>
<clus scale="   83.379">  2  5  1 -1</clus>
</clustering>
</event>
<event>
 9    1  0.1636528E-005  0.1809428E+03  0.7546771E-02  0.1196586E+00
         21   -1    0    0  501  502  0.00000000000E+00  0.00000000000E+00  0.20214086705E+03  0.20214086705E+03  0.00000000000E+00 0. -1.
          2   -1    0    0  502    0 -0.00000000000E+00 -0.00000000000E+00 -0.25795218433E+03  0.25795218433E+03  0.00000000000E+00 0. -1.
         23    2    1    2    0    0 -0.14936329345E+02 -0.12018200717E+02 -0.59455197089E+02  0.11038396932E+03  0.91006423611E+02 0.  0.
         23    2    1    2    0    0 -0.13973815013E+03 -0.39987296088E+02 -0.49811585346E+02  0.17799346526E+03  0.89859585971E+02 0.  0.
        -11    1    4    4    0    0 -0.32200138592E+02 -0.22358857764E+02 -0.56553467334E+02  0.68811787604E+02  0.00000000000E+00 0.  1.
         11    1    4    4    0    0 -0.10753801154E+03 -0.17628438324E+02  0.67418819873E+01  0.10918167766E+03  0.00000000000E+00 0. -1.
        -11    1    3    3    0    0  0.36528970476E+02 -0.18741722510E+02 -0.27964682379E+02  0.49675359156E+02  0.00000000000E+00 0.  1.
         11    1    3    3    0    0 -0.51465299821E+02  0.67235217931E+01 -0.31490514710E+02  0.60708610161E+02  0.00000000000E+00 0. -1.
          2    1    1    2  501    0  0.15467447948E+03  0.52005496804E+02  0.53455465155E+02  0.17171561680E+03  0.00000000000E+00 0. -1.
<scales pt_clust_5="13000.00000" pt_clust_6="13000.00000" pt_clust_7="13000.00000" pt_clust_8="13000.00000" pt_clust_9="157.05270"></scales>
<clustering>
<clus scale="   89.860">  5  6 -1 -1</clus>
<clus scale="   91.006">  7  8 -1 -1</clus>
<clus scale="   93.004">  2  7  1 -1</clus>
<clus scale="  157.053">  1  9  2 -1</clus>
<clus scale="  157.053">  1  5  2 -1</clus>
</clustering>
</event>
<event>
 9    1  0.1636528E-005  0.1675968E+03  0.7546771E-02  0.1180834E+00
          2   -1    0    0  502    0 -0.00000000000E+00  0.00000000000E+00  0.68218896526E+03  0.68218896526E+03  0.00000000000E+00 0. -1.
         21   -1    0    0  501  502  0.00000000000E+00 -0.00000000000E+00 -0.95935035397E+02  0.95935035397E+02  0.00000000000E+00 0. -1.
         23    2    1    2    0    0 -0.62695220554E+02 -0.12682044309E+03  0.52633918031E+03  0.55287760158E+03  0.92879460220E+02 0.  0.
         23    2    1    2    0    0  0.64290286024E+01  0.12617545249E+03  0.29669905312E+02  0.16136329511E+03  0.95896989037E+02 0.  0.
        -11    1    3    3    0    0  0.68399648896E+01 -0.65749989615E+02  0.12957527421E+03  0.14546339037E+03  0.00000000000E+00 0.  1.
         11    1    3    3    0    0 -0.69535185444E+02 -0.61070453477E+02  0.39676390611E+03  0.40741421121E+03  0.00000000000E+00 0. -1.
        -11    1    4    4    0    0  0.50511941003E+02  0.81123183147E+02  0.16735421848E+02  0.97018046632E+02  0.00000000000E+00 0.  1.
         11    1    4    4    0    0 -0.44082912401E+02  0.45052269345E+02  0.12934483464E+02  0.64345248475E+02  0.00000000000E+00 0. -1.
          2    1    1    2  501    0  0.56266191952E+02  0.64499059896E+00  0.30244844239E+02  0.63883103969E+02  0.00000000000E+00 0. -1.
<scales pt_clust_5="13000.00000" pt_clust_6="13000.00000" pt_clust_7="13000.00000" pt_clust_8="13000.00000" pt_clust_9="56.26989"></scales>
<clustering>
<clus scale="   56.270">  2  9  1 -1</clus>
<clus scale="   92.879">  5  6 -1 -1</clus>
<clus scale="   95.897">  7  8 -1 -1</clus>
<clus scale="  165.889">  1  5  2 -1</clus>
<clus scale="   56.270">  2  5  1 -1</clus>
</clustering>
</event>
<event>
 9    1  0.1636528E-005  0.1095026E+03  0.7546771E-02  0.1261724E+00
          1   -1    0    0  502    0 -0.00000000000E+00  0.00000000000E+00  0.52809247708E+03  0.52809247708E+03  0.00000000000E+00 0. -1.
         21   -1    0    0  501  502  0.00000000000E+00 -0.00000000000E+00 -0.35572073944E+02  0.35572073944E+02  0.00000000000E+00 0.  1.
         23    2    1    2    0    0  0.39255684248E+02  0.36518797020E+02  0.24611463809E+03  0.26760263656E+03  0.90355546194E+02 0.  0.
         23    2    1    2    0    0 -0.71263362856E+02 -0.25448974242E+02  0.23043638529E+03  0.25861790886E+03  0.89756213939E+02 0.  0.
        -11    1    4    4    0    0  0.63183255102E+01 -0.37982121536E+02  0.67205893757E+02  0.77454470170E+02  0.00000000000E+00 0. -1.
         11    1    4    4    0    0 -0.77581688367E+02  0.12533147294E+02  0.16323049153E+03  0.18116343869E+03  0.00000000000E+00 0.  1.
        -13    1    3    3    0    0  0.30742631777E+02 -0.24272612321E+02  0.60246257869E+02  0.71860146845E+02  0.00000000000E+00 0.  1.
         13    1    3    3    0    0  0.85130524710E+01  0.60791409341E+02  0.18586838022E+03  0.19574248971E+03  0.00000000000E+00 0. -1.
          1    1    1    2  501    0  0.32007678609E+02 -0.11069822778E+02  0.15969379753E+02  0.37444005608E+02  0.00000000000E+00 0. -1.
<scales pt_clust_5="13000.00000" pt_clust_6="13000.00000" pt_clust_7="13000.00000" pt_clust_8="13000.00000" pt_clust_9="33.86787"></scales>
<clustering>
<clus scale="   33.868">  2  9  1 -1</clus>
<clus scale="   89.756">  5  6 -1 -1</clus>
<clus scale="   90.356">  7  8 -1 -1</clus>
<clus scale="  109.009">  2  5  1 -1</clus>
<clus scale="   33.868">  2  5  1 -1</clus>
</clustering>
</event>
<event>
 9    1  0.1636528E-005  0.1011512E+03  0.7546771E-02  0.1279363E+00
         21   -1    0    0  501  502  0.00000000000E+00  0.00000000000E+00  0.15143599318E+03  0.15143599318E+03  0.00000000000E+00 0. -1.
          2   -1    0    0  502    0 -0.00000000000E+00 -0.00000000000E+00 -0.34795826271E+03  0.34795826271E+03  0.00000000000E+00 0. -1.
         23    2    1    2    0    0  0.30897521800E+02  0.29981859754E+02 -0.28607459024E+03  0.30367553392E+03  0.92339536243E+02 0.  0.
         23    2    1    2    0    0 -0.77008329867E+01 -0.36995830783E+02 -0.60182681888E+01  0.97123490731E+02  0.89267903390E+02 0.  0.
        -11    1    3    3    0    0  0.68740641892E+01  0.48440937166E+02 -0.25723813468E+03  0.26184964213E+03  0.00000000000E+00 0. -1.
         11    1    3    3    0    0  0.24023457611E+02 -0.18459077412E+02 -0.28836455557E+02  0.41825891784E+02  0.00000000000E+00 0.  1.
        -13    1    4    4    0    0 -0.35119567367E+02  0.12294619359E+02  0.99246235353E+01  0.38510256160E+02  0.00000000000E+00 0.  1.
         13    1    4    4    0    0  0.27418734380E+02 -0.49290450143E+02 -0.15942891724E+02  0.58613234570E+02  0.00000000000E+00 0. -1.
          2    1    1    2  501    0 -0.23196688813E+02  0.70139710292E+01  0.95570588900E+02  0.98595231245E+02  0.00000000000E+00 0. -1.
<scales pt_clust_5="13000.00000" pt_clust_6="13000.00000" pt_clust_7="13000.00000" pt_clust_8="13000.00000" pt_clust_9="24.23391"></scales>
<clustering>
<clus scale="   24.234">  1  9  2 -1</clus>
<clus scale="   89.268">  7  8 -1 -1</clus>
<clus scale="   92.340">  5  6 -1 -1</clus>
<clus scale="   98.355">  1  7  2 -1</clus>
<clus scale="   24.234">  1  5  2 -1</clus>
</clustering>
</event>
<event>
 9    1  0.1636528E-005  0.1099682E+03  0.7546771E-02  0.1264086E+00
         -1   -1    0    0    0  501 -0.00000000000E+00  0.00000000000E+00  0.82921354336E+02  0.82921354336E+02  0.00000000000E+00 0.  1.
         21   -1    0    0  501  502  0.00000000000E+00 -0.00000000000E+00 -0.39662955717E+03  0.39662955717E+03  0.00000000000E+00 0. -1.
         23    2    1    2    0    0  0.45791075772E+02 -0.13754860302E+02 -0.44539751131E+01  0.10411399355E+03  0.92378931347E+02 0.  0.
         23    2    1    2    0    0 -0.77430553910E+02  0.33455516887E+02 -0.80156169335E+02  0.14332683027E+03  0.83682773047E+02 0.  0.
        -11    1    3    3    0    0 -0.20963759263E+02  0.18072575899E+02  0.86698656871E+01  0.29004547456E+02  0.00000000000E+00 0. -1.
         11    1    3    3    0    0  0.66754835034E+02 -0.31827436201E+02 -0.13123840800E+02  0.75109446097E+02  0.00000000000E+00 0.  1.
        -11    1    4    4    0    0 -0.57445446786E+01  0.36376369265E+02 -0.57140655234E+02  0.67980103818E+02  0.00000000000E+00 0.  1.
         11    1    4    4    0    0 -0.71686009232E+02 -0.29208523788E+01 -0.23015514100E+02  0.75346726455E+02  0.00000000000E+00 0. -1.
         -1    1    1    2    0  502  0.31639478139E+02 -0.19700656585E+02 -0.22909805839E+03  0.23211008768E+03  0.00000000000E+00 0.  1.
<scales pt_clust_5="13000.00000" pt_clust_6="13000.00000" pt_clust_7="13000.00000" pt_clust_8="13000.00000" pt_clust_9="37.27160"></scales>
<clustering>
<clus scale="   37.272">  2  9  1 -1</clus>
<clus scale="   83.683">  7  8 -1 -1</clus>
<clus scale="   92.379">  5  6 -1 -1</clus>
<clus scale="  102.771">  2  7  1 -1</clus>
<clus scale="   37.272">  2  5  1 -1</clus>
</clustering>
</event>
<event>
 9    1  0.1636528E-005  0.9356261E+02  0.7546771E-02  0.1302670E+00
         -1   -1    0    0    0  501 -0.00000000000E+00  0.00000000000E+00  0.22659843023E+03  0.22659843023E+03  0.00000000000E+00 0.  1.
         21   -1    0    0  501  502  0.00000000000E+00 -0.00000000000E+00 -0.53443494637E+02  0.53443494637E+02  0.00000000000E+00 0. -1.
         23    2    1    2    0    0 -0.26187453386E+02  0.21248944865E+01  0.11253336311E+03  0.13975247916E+03  0.78591982596E+02 0.  0.
         23    2    1    2    0    0  0.65276257769E+00  0.17614298263E+01  0.66791915683E+02  0.11373389851E+03  0.92036465254E+02 0.  0.
        -11    1    4    4    0    0 -0.15061987536E+02  0.29919674690E+02  0.73521428151E+02  0.80792640751E+02  0.00000000000E+00 0.  1.
         11    1    4    4    0    0  0.15714750114E+02 -0.28158244864E+02 -0.67295124686E+01  0.32941257763E+02  0.00000000000E+00 0. -1.
        -13    1    3    3    0    0 -0.52497412773E+01 -0.33678949995E+02  0.80262966276E+02  0.87200775292E+02  0.00000000000E+00 0. -1.
         13    1    3    3    0    0 -0.20937712108E+02  0.35803844482E+02  0.32270396833E+02  0.52551703871E+02  0.00000000000E+00 0.  1.
         -1    1    1    2    0  502  0.25534690808E+02 -0.38863243129E+01 -0.61703431984E+01  0.26555547189E+02  0.00000000000E+00 0.  1.
<scales pt_clust_5="13000.00000" pt_clust_6="13000.00000" pt_clust_7="13000.00000" pt_clust_8="13000.00000" pt_clust_9="25.82874"></scales>
<clustering>
<clus scale="   25.829">  2  9  1 -1</clus>
<clus scale="   78.592">  7  8 -1 -1</clus>
<clus scale="   80.374">  1  7  2 -1</clus>
<clus scale="   92.036">  5  6 -1 -1</clus>
<clus scale="   25.829">  2  5  1 -1</clus>
</clustering>
</event>
<event>
 9    1  0.1636528E-005  0.1011146E+03  0.7546771E-02  0.1282702E+00
          3   -1    0    0  502    0 -0.00000000000E+00  0.00000000000E+00  0.39843408999E+02  0.39843408999E+02  0.00000000000E+00 0. -1.
         21   -1    0    0  501  502  0.00000000000E+00 -0.00000000000E+00 -0.70290089568E+03  0.70290089568E+03  0.00000000000E+00 0. -1.
         23    2    1    2    0    0 -0.91836426482E+01  0.33508662924E+01 -0.71723923187E+02  0.11514690163E+03  0.89548423772E+02 0.  0.
         23    2    1    2    0    0  0.11554456569E+02 -0.57633345565E+02 -0.18521413523E+03  0.21785944004E+03  0.98505592431E+02 0.  0.
        -11    1    4    4    0    0 -0.32496501580E+02  0.93909245474E+01 -0.44557069228E+02  0.55942331887E+02  0.00000000000E+00 0.  1.
         11    1    4    4    0    0  0.44050958149E+02 -0.67024270112E+02 -0.14065706600E+03  0.16191710816E+03  0.00000000000E+00 0. -1.
        -11    1    3    3    0    0  0.23192366787E+02  0.35517319161E+02 -0.46733781288E+02  0.63114278504E+02  0.00000000000E+00 0. -1.
         11    1    3    3    0    0 -0.32376009435E+02 -0.32166452869E+02 -0.24990141899E+02  0.52032623125E+02  0.00000000000E+00 0.  1.
          3    1    1    2  501    0 -0.23708139211E+01  0.54282479273E+02 -0.40611942826E+03  0.40973796300E+03  0.00000000000E+00 0. -1.
<scales pt_clust_5="13000.00000" pt_clust_6="13000.00000" pt_clust_7="13000.00000" pt_clust_8="13000.00000" pt_clust_9="54.33423"></scales>
<clustering>
<clus scale="   54.334">  2  9  1 -1</clus>
<clus scale="   89.548">  7  8 -1 -1</clus>
<clus scale="   92.411">  1  7  2 -1</clus>
<clus scale="   98.506">  5  6 -1 -1</clus>
<clus scale="   54.334">  2  5  1 -1</clus>
</clustering>
</event>
<event>
 9    1  0.1636528E-005  0.9190299E+02  0.7546771E-02  0.1299507E+00
         21   -1    0    0  501  502  0.00000000000E+00  0.00000000000E+00  0.38052012994E+03  0.38052012994E+03  0.00000000000E+00 0. -1.
          1   -1    0    0  502    0 -0.00000000000E+00 -0.00000000000E+00 -0.34842823612E+02  0.34842823612E+02  0.00000000000E+00 0. -1.
         23    2    1    2    0    0  0.29791604784E+02 -0.95176089376E-01  0.65960770511E+02  0.11138464693E+03  0.84665031449E+02 0.  0.
         23    2    1    2    0    0 -0.28402170700E+02  0.23756696382E+02  0.20697740709E+03  0.22747484973E+03  0.86799172167E+02 0.  0.
        -11    1    3    3    0    0 -0.69515554163E+01 -0.27905752527E+02 -0.24920150416E+01  0.28866334817E+02  0.00000000000E+00 0.  1.
         11    1    3    3    0    0  0.36743160201E+02  0.27810576438E+02  0.68452785553E+02  0.82518312109E+02  0.00000000000E+00 0. -1.
        -13    1    4    4    0    0  0.27851130478E+02  0.90209356782E+01  0.11490860574E+03  0.11857930014E+03  0.00000000000E+00 0.  1.
         13    1    4    4    0    0 -0.56253301178E+02  0.14735760703E+02  0.92068801354E+02  0.10889554959E+03  0.00000000000E+00 0. -1.
          1    1    1    2  501    0 -0.13894340844E+01 -0.23661520292E+02  0.72739128726E+02  0.76503456898E+02  0.00000000000E+00 0. -1.
<scales pt_clust_5="13000.00000" pt_clust_6="13000.00000" pt_clust_7="13000.00000" pt_clust_8="13000.00000" pt_clust_9="23.70228"></scales>
<clustering>
<clus scale="   23.702">  1  9  2 -1</clus>
<clus scale="   84.665">  5  6 -1 -1</clus>
<clus scale="   86.799">  7  8 -1 -1</clus>
<clus scale="   89.890">  2  5  1 -1</clus>
<clus scale="   23.702">  1  5  2 -1</clus>
</clustering>
</event>
<event>
 9    1  0.1636528E-005  0.1276403E+03  0.7546771E-02  0.1235320E+00
          1   -1    0    0  502    0 -0.00000000000E+00  0.00000000000E+00  0.87931402629E+03  0.87931402629E+03  0.00000000000E+00 0. -1.
         21   -1    0    0  501  502  0.00000000000E+00 -0.00000000000E+00 -0.71202038508E+02  0.71202038508E+02  0.00000000000E+00 0. -1.
         23    2    1    2    0    0 -0.80688345250E+02 -0.15295979210E+02  0.60678359978E+03  0.62006867414E+03  0.97745831832E+02 0.  0.
         23    2    1    2    0    0  0.53025981169E+02  0.10078242181E+03  0.19466477018E+03  0.24034998750E+03  0.83095682910E+02 0.  0.
        -11    1    4    4    0    0  0.11873399831E+02  0.48945887620E+02  0.15548066121E+03  0.16343473789E+03  0.00000000000E+00 0. -1.
         11    1    4    4    0    0  0.41152581338E+02  0.51836534185E+02  0.39184108972E+02  0.76915249613E+02  0.00000000000E+00 0.  1.
        -13    1    3    3    0    0 -0.33950178289E+02 -0.56016596085E+02  0.32800658390E+03  0.33448287359E+03  0.00000000000E+00 0. -1.
         13    1    3    3    0    0 -0.46738166961E+02  0.40720616875E+02  0.27877701588E+03  0.28558580055E+03  0.00000000000E+00 0.  1.
          1    1    1    2  501    0  0.27662364081E+02 -0.85486442595E+02  0.66636178187E+01  0.90097403162E+02  0.00000000000E+00 0. -1.
<scales pt_clust_5="13000.00000" pt_clust_6="13000.00000" pt_clust_7="13000.00000" pt_clust_8="13000.00000" pt_clust_9="89.85064"></scales>
<clustering>
<clus scale="   83.096">  5  6 -1 -1</clus>
<clus scale="   89.851">  2  9  1 -1</clus>
<clus scale="   97.746">  7  8 -1 -1</clus>
<clus scale="  116.802">  2  5  1 -1</clus>
<clus scale="   89.851">  2  5  1 -1</clus>
</clustering>
</event>
<event>
 9    1  0.1636528E-005  0.1716346E+03  0.7546771E-02  0.1177327E+00
          2   -1    0    0  502    0 -0.00000000000E+00  0.00000000000E+00  0.23675573799E+03  0.23675573799E+03  0.00000000000E+00 0. -1.
         21   -1    0    0  501  502  0.00000000000E+00 -0.00000000000E+00 -0.47081805245E+03  0.47081805245E+03  0.00000000000E+00 0.  1.
         23    2    1    2    0    0  0.42617560865E+02 -0.12484431705E+03  0.12063059772E+03  0.20457520761E+03  0.99483237119E+02 0.  0.
         23    2    1    2    0    0 -0.11833640328E+02  0.16745596991E+03 -0.55314828837E+02  0.19904029704E+03  0.91519247450E+02 0.  0.
        -11    1    4    4    0    0  0.18180688746E+02  0.38938599565E+02  0.19657212667E+02  0.47256301053E+02  0.00000000000E+00 0.  1.
         11    1    4    4    0    0 -0.30014329074E+02  0.12851737034E+03 -0.74972041503E+02  0.15178399598E+03  0.00000000000E+00 0. -1.
        -11    1    3    3    0    0 -0.17540910783E+02 -0.18292944438E+02  0.65759349623E+02  0.70474161437E+02  0.00000000000E+00 0. -1.
         11    1    3    3    0    0  0.60158471648E+02 -0.10655137261E+03  0.54871248097E+02  0.13410104617E+03  0.00000000000E+00 0.  1.
          2    1    1    2  501    0 -0.30783920537E+02 -0.42611652856E+02 -0.29937808334E+03  0.30395828580E+03  0.00000000000E+00 0. -1.
<scales pt_clust_5="13000.00000" pt_clust_6="13000.00000" pt_clust_7="13000.00000" pt_clust_8="13000.00000" pt_clust_9="52.56808"></scales>
<clustering>
<clus scale="   52.568">  2  9  1 -1</clus>
<clus scale="   91.519">  5  6 -1 -1</clus>
<clus scale="   99.483">  7  8 -1 -1</clus>
<clus scale="  167.145">  2  5  1 -1</clus>
<clus scale="   52.568">  2  5  1 -1</clus>
</clustering>
</event>
<event>
 9    1  0.1636528E-005  0.1013513E+03  0.7546771E-02  0.1283680E+00
          1   -1    0    0  502    0 -0.00000000000E+00  0.00000000000E+00  0.25894562764E+03  0.25894562764E+03  0.00000000000E+00 0. -1.
         21   -1    0    0  501  502  0.00000000000E+00 -0.00000000000E+00 -0.20477703793E+03  0.20477703793E+03  0.00000000000E+00 0. -1.
         23    2    1    2    0    0 -0.42459619753E+02  0.15729405206E+02  0.22088352466E+03  0.23889088179E+03  0.78924574361E+02 0.  0.
         23    2    1    2    0    0  0.17588450146E+02 -0.25806600537E+02 -0.57902605215E+02  0.11275927132E+03  0.91578421958E+02 0.  0.
        -13    1    3    3    0    0 -0.53033003503E+01  0.34150364933E+02  0.38004356453E+02  0.51368312500E+02  0.00000000000E+00 0.  1.
         13    1    3    3    0    0 -0.37156319402E+02 -0.18420959727E+02  0.18287916821E+03  0.18752256929E+03  0.00000000000E+00 0. -1.
        -13    1    4    4    0    0 -0.12002971406E+02 -0.54320993902E+02 -0.34727517473E+02  0.65580806421E+02  0.00000000000E+00 0.  1.
         13    1    4    4    0    0  0.29591421552E+02  0.28514393365E+02 -0.23175087743E+02  0.47178464900E+02  0.00000000000E+00 0. -1.
          1    1    1    2  501    0  0.24871169606E+02  0.10077195330E+02 -0.10881232975E+03  0.11207251246E+03  0.00000000000E+00 0. -1.
<scales pt_clust_5="13000.00000" pt_clust_6="13000.00000" pt_clust_7="13000.00000" pt_clust_8="13000.00000" pt_clust_9="26.83514"></scales>
<clustering>
<clus scale="   26.835">  2  9  1 -1</clus>
<clus scale="   78.925">  5  6 -1 -1</clus>
<clus scale="   90.081">  1  5  2 -1</clus>
<clus scale="   91.578">  7  8 -1 -1</clus>
<clus scale="   26.835">  2  5  1 -1</clus>
</clustering>
</event>
<event>
 9    1  0.1636528E-005  0.1457641E+03  0.7546771E-02  0.1207826E+00
         21   -1    0    0  501  502  0.00000000000E+00  0.00000000000E+00  0.23289765473E+03  0.23289765473E+03  0.00000000000E+00 0. -1.
          1   -1    0    0  502    0 -0.00000000000E+00 -0.00000000000E+00 -0.27792618115E+03  0.27792618115E+03  0.00000000000E+00 0. -1.
         23    2    1    2    0    0 -0.35026326566E+02 -0.99258532688E+02 -0.12382209458E+03  0.19045779509E+03  0.99313446913E+02 0.  0.
         23    2    1    2    0    0 -0.46204653193E+00  0.11221298456E+03 -0.74900913454E+02  0.16209653605E+03  0.89850836241E+02 0.  0.
        -11    1    3    3    0    0  0.38370930424E+01 -0.26501976166E+02  0.13711950169E+02  0.30084806816E+02  0.00000000000E+00 0.  1.
         11    1    3    3    0    0 -0.38863419609E+02 -0.72756556522E+02 -0.13753404475E+03  0.16037298827E+03  0.00000000000E+00 0. -1.
        -13    1    4    4    0    0 -0.33204822946E+02  0.10492687514E+03 -0.60543188137E+02  0.12560926329E+03  0.00000000000E+00 0. -1.
         13    1    4    4    0    0  0.32742776414E+02  0.72861094235E+01 -0.14357725316E+02  0.36487272769E+02  0.00000000000E+00 0.  1.
          1    1    1    2  501    0  0.35488373098E+02 -0.12954451874E+02  0.15369448162E+03  0.15826950474E+03  0.00000000000E+00 0. -1.
<scales pt_clust_5="13000.00000" pt_clust_6="13000.00000" pt_clust_7="13000.00000" pt_clust_8="13000.00000" pt_clust_9="37.77886"></scales>
<clustering>
<clus scale="   37.779">  1  9  2 -1</clus>
<clus scale="   89.851">  7  8 -1 -1</clus>
<clus scale="   99.313">  5  6 -1 -1</clus>
<clus scale="  139.489">  1  7  2 -1</clus>
<clus scale="   37.779">  1  5  2 -1</clus>
</clustering>
</event>
<event>
 9    1  0.1636528E-005  0.3909824E+03  0.7546771E-02  0.1047001E+00
          2   -1    0    0  502    0 -0.00000000000E+00  0.00000000000E+00  0.14614824694E+04  0.14614824694E+04  0.00000000000E+00 0. -1.
         21   -1    0    0  501  502  0.00000000000E+00 -0.00000000000E+00 -0.13877646628E+03  0.13877646628E+03  0.00000000000E+00 0.  1.
         23    2    1    2    0    0  0.20376501752E+03  0.32436819097E+03  0.98268791861E+03  0.10586914057E+04  0.91744435808E+02 0.  0.
         23    2    1    2    0    0 -0.17139645010E+03 -0.33181131857E+03  0.28849892318E+03  0.48027031723E+03  0.89176536678E+02 0.  0.
        -11    1    4    4    0    0 -0.51610080823E+01 -0.70803597773E+02  0.30051535662E+02  0.77090078854E+02  0.00000000000E+00 0. -1.
         11    1    4    4    0    0 -0.16623544202E+03 -0.26100772080E+03  0.25844738752E+03  0.40318023837E+03  0.00000000000E+00 0.  1.
        -11    1    3    3    0    0  0.18632287470E+02  0.59210225243E+02  0.90852047974E+02  0.11003230221E+03  0.00000000000E+00 0.  1.
         11    1    3    3    0    0  0.18513273005E+03  0.26515796572E+03  0.89183587064E+03  0.94865910351E+03  0.00000000000E+00 0. -1.
          2    1    1    2  501    0 -0.32368567415E+02  0.74431276027E+01  0.51519161333E+02  0.61297212739E+02  0.00000000000E+00 0. -1.
<scales pt_clust_5="13000.00000" pt_clust_6="13000.00000" pt_clust_7="13000.00000" pt_clust_8="13000.00000" pt_clust_9="33.21333"></scales>
<clustering>
<clus scale="   33.213">  2  9  1 -1</clus>
<clus scale="   89.177">  5  6 -1 -1</clus>
<clus scale="   91.744">  7  8 -1 -1</clus>
<clus scale="  390.388">  2  5  1 -1</clus>
<clus scale="   33.213">  2  5  1 -1</clus>
</clustering>
</event>
<event>
 9    1  0.1636528E-005  0.1087560E+03  0.7546771E-02  0.1264540E+00
         21   -1    0    0  501  502  0.00000000000E+00  0.00000000000E+00  0.44164464009E+03  0.44164464009E+03  0.00000000000E+00 0. -1.
          3   -1    0    0  502    0 -0.00000000000E+00 -0.00000000000E+00 -0.49932656583E+02  0.49932656583E+02  0.00000000000E+00 0. -1.
         23    2    1    2    0    0  0.30029352060E+02 -0.40001673497E+02  0.53637930601E+02  0.11793290570E+03  0.92353921307E+02 0.  0.
         23    2    1    2    0    0 -0.12386176537E+02  0.53526858952E+02  0.16270615715E+03  0.19687303824E+03  0.96266077168E+02 0.  0.
        -11    1    4    4    0    0 -0.45441337075E+02  0.12856013255E+01  0.94209153978E+02  0.10460369295E+03  0.00000000000E+00 0.  1.
         11    1    4    4    0    0  0.33055160538E+02  0.52241257626E+02  0.68497003174E+02  0.92269345291E+02  0.00000000000E+00 0. -1.
        -13    1    3    3    0    0  0.81374294116E+01 -0.46260406023E+02 -0.11982108496E+02  0.48474878513E+02  0.00000000000E+00 0. -1.
         13    1    3    3    0    0  0.21891922648E+02  0.62587325267E+01  0.65620039097E+02  0.69458027190E+02  0.00000000000E+00 0.  1.
          3    1    1    2  501    0 -0.17643175522E+02 -0.13525185455E+02  0.17536789575E+03  0.17677135272E+03  0.00000000000E+00 0. -1.
<scales pt_clust_5="13000.00000" pt_clust_6="13000.00000" pt_clust_7="13000.00000" pt_clust_8="13000.00000" pt_clust_9="22.23089"></scales>
<clustering>
<clus scale="   22.231">  1  9  2 -1</clus>
<clus scale="   92.354">  7  8 -1 -1</clus>
<clus scale="   96.266">  5  6 -1 -1</clus>
<clus scale="  105.309">  2  7  1 -1</clus>
<clus scale="   22.231">  1  5  2 -1</clus>
</clustering>
</event>
<event>
 9    1  0.1636528E-005  0.9220273E+02  0.7546771E-02  0.1298961E+00
         21   -1    0    0  501  502  0.00000000000E+00  0.00000000000E+00  0.23311402234E+03  0.23311402234E+03  0.00000000000E+00 0.  1.
         -3   -1    0    0    0  501 -0.00000000000E+00 -0.00000000000E+00 -0.19962359968E+03  0.19962359968E+03  0.00000000000E+00 0.  1.
         23    2    1    2    0    0 -0.82869420174E+01 -0.25990889864E+01 -0.10629693210E+03  0.13944567238E+03  0.89836680144E+02 0.  0.
         23    2    1    2    0    0 -0.15895450025E+02 -0.15235307028E+02 -0.45854387426E+02  0.10523421860E+03  0.92124025128E+02 0.  0.
        -13    1    4    4    0    0  0.72908561291E+01  0.24217721755E+02 -0.53181874063E+02  0.58889441829E+02  0.00000000000E+00 0.  1.
         13    1    4    4    0    0 -0.23186306154E+02 -0.39453028783E+02  0.73274866368E+01  0.46344776768E+02  0.00000000000E+00 0. -1.
        -13    1    3    3    0    0 -0.15510891763E+02  0.31437889889E+02 -0.97420888438E+02  0.10353626509E+03  0.00000000000E+00 0.  1.
         13    1    3    3    0    0  0.72239497457E+01 -0.34036978875E+02 -0.88760436616E+01  0.35909407290E+02  0.00000000000E+00 0. -1.
         -3    1    1    2    0  502  0.24182392043E+02  0.17834396015E+02  0.18564174218E+03  0.18805773105E+03  0.00000000000E+00 0.  1.
<scales pt_clust_5="13000.00000" pt_clust_6="13000.00000" pt_clust_7="13000.00000" pt_clust_8="13000.00000" pt_clust_9="30.04753"></scales>
<clustering>
<clus scale="   30.048">  1  9  2 -1</clus>
<clus scale="   89.837">  7  8 -1 -1</clus>
<clus scale="   89.917">  2  7  1 -1</clus>
<clus scale="   92.124">  5  6 -1 -1</clus>
<clus scale="   30.048">  1  5  2 -1</clus>
</clustering>
</event>
<event>
 9    1  0.1636528E-005  0.1554552E+03  0.7546771E-02  0.1197813E+00
          3   -1    0    0  502    0 -0.00000000000E+00  0.00000000000E+00  0.14951217074E+03  0.14951217074E+03  0.00000000000E+00 0. -1.
         21   -1    0    0  501  502  0.00000000000E+00 -0.00000000000E+00 -0.43787858250E+03  0.43787858250E+03  0.00000000000E+00 0. -1.
         23    2    1    2    0    0  0.13088626401E+03  0.17300583555E+02  0.53234414393E+02  0.16667832383E+03  0.86701998032E+02 0.  0.
         23    2    1    2    0    0 -0.29951725598E+02 -0.70517124930E+02 -0.19527385925E+03  0.23515553096E+03  0.10628486656E+03 0.  0.
        -11    1    3    3    0    0  0.40196832895E+02  0.65428670592E+01 -0.23827561751E+02  0.47184183612E+02  0.00000000000E+00 0.  1.
         11    1    3    3    0    0  0.90689431114E+02  0.10757716496E+02  0.77061976144E+02  0.11949414022E+03  0.00000000000E+00 0. -1.
        -13    1    4    4    0    0 -0.26113045312E+02 -0.23522056150E+02 -0.18312087630E+03  0.18646295503E+03  0.00000000000E+00 0. -1.
         13    1    4    4    0    0 -0.38386802862E+01 -0.46995068779E+02 -0.12152982945E+02  0.48692575927E+02  0.00000000000E+00 0.  1.
          3    1    1    2  501    0 -0.10093453841E+03  0.53216541374E+02 -0.14632696690E+03  0.18555689845E+03  0.00000000000E+00 0. -1.
<scales pt_clust_5="13000.00000" pt_clust_6="13000.00000" pt_clust_7="13000.00000" pt_clust_8="13000.00000" pt_clust_9="114.10426"></scales>
<clustering>
<clus scale="   86.702">  5  6 -1 -1</clus>
<clus scale="  106.285">  7  8 -1 -1</clus>
<clus scale="  114.104">  2  9  1 -1</clus>
<clus scale="  142.783">  1  5  2 -1</clus>
<clus scale="  114.104">  2  5  1 -1</clus>
</clustering>
</event>
<event>
 9    1  0.1636528E-005  0.1177547E+03  0.7546771E-02  0.1249176E+00
         21   -1    0    0  501  502  0.00000000000E+00  0.00000000000E+00  0.31447635336E+03  0.31447635336E+03  0.00000000000E+00 0.  1.
         -4   -1    0    0    0  501 -0.00000000000E+00 -0.00000000000E+00 -0.10243493624E+03  0.10243493624E+03  0.00000000000E+00 0.  1.
         23    2    1    2    0    0  0.31653274406E+02  0.30666292227E+02  0.33811359771E+02  0.10300558861E+03  0.86744406022E+02 0.  0.
         23    2    1    2    0    0 -0.94079419812E+02 -0.47407132383E+02  0.19173610403E+02  0.14221926392E+03  0.93596571847E+02 0.  0.
        -13    1    4    4    0    0 -0.23272135546E+02  0.14905648726E+02 -0.25725211208E+02  0.37756551068E+02  0.00000000000E+00 0. -1.
         13    1    4    4    0    0 -0.70807284266E+02 -0.62312781109E+02  0.44898821611E+02  0.10446271285E+03  0.00000000000E+00 0.  1.
        -13    1    3    3    0    0  0.48713645436E+02  0.57157238513E+01 -0.97278824465E+01  0.50003204375E+02  0.00000000000E+00 0. -1.
         13    1    3    3    0    0 -0.17060371030E+02  0.24950568376E+02  0.43539242217E+02  0.53002384237E+02  0.00000000000E+00 0.  1.
         -4    1    1    2    0  502  0.62426145406E+02  0.16740840156E+02  0.15905644694E+03  0.17168643707E+03  0.00000000000E+00 0.  1.
<scales pt_clust_5="13000.00000" pt_clust_6="13000.00000" pt_clust_7="13000.00000" pt_clust_8="13000.00000" pt_clust_9="64.63188"></scales>
<clustering>
<clus scale="   64.632">  1  9  2 -1</clus>
<clus scale="   86.744">  7  8 -1 -1</clus>
<clus scale="   93.597">  5  6 -1 -1</clus>
<clus scale="  112.385">  2  7  1 -1</clus>
<clus scale="   64.632">  1  5  2 -1</clus>
</clustering>
</event>
<event>
 9    1  0.1636528E-005  0.9768256E+02  0.7546771E-02  0.1287562E+00
         21   -1    0    0  501  502  0.00000000000E+00  0.00000000000E+00  0.19045231676E+03  0.19045231676E+03  0.00000000000E+00 0.  1.
          1   -1    0    0  502    0 -0.00000000000E+00 -0.00000000000E+00 -0.74881948484E+02  0.74881948484E+02  0.00000000000E+00 0. -1.
         23    2    1    2    0    0 -0.15632567911E+02 -0.18611747074E+02 -0.47748248036E+01  0.93753210338E+02  0.90421740683E+02 0.  0.
         23    2    1    2    0    0 -0.45740411019E+01  0.29533245388E+02  0.97632961425E+02  0.13927886241E+03  0.94727355727E+02 0.  0.
        -11    1    4    4    0    0 -0.27659975995E+02  0.54780047465E+02  0.43421552460E+02  0.75175521883E+02  0.00000000000E+00 0.  1.
         11    1    4    4    0    0  0.23085934893E+02 -0.25246802077E+02  0.54211408965E+02  0.64103340529E+02  0.00000000000E+00 0. -1.
        -13    1    3    3    0    0 -0.49882164696E+02 -0.19046080441E+02  0.13297538639E+02  0.55025521977E+02  0.00000000000E+00 0.  1.
         13    1    3    3    0    0  0.34249596785E+02  0.43433336770E+00 -0.18072363443E+02  0.38727688361E+02  0.00000000000E+00 0. -1.
          1    1    1    2  501    0  0.20206609013E+02 -0.10921498314E+02  0.22712231656E+02  0.32302192496E+02  0.00000000000E+00 0. -1.
<scales pt_clust_5="13000.00000" pt_clust_6="13000.00000" pt_clust_7="13000.00000" pt_clust_8="13000.00000" pt_clust_9="22.96924"></scales>
<clustering>
<clus scale="   22.969">  1  9  2 -1</clus>
<clus scale="   90.422">  7  8 -1 -1</clus>
<clus scale="   93.513">  2  7  1 -1</clus>
<clus scale="   94.727">  5  6 -1 -1</clus>
<clus scale="   22.969">  1  5  2 -1</clus>
</clustering>
</event>
<event>
 9    1  0.1636528E-005  0.9620059E+02  0.7546771E-02  0.1289020E+00
         -1   -1    0    0    0  501 -0.00000000000E+00  0.00000000000E+00  0.11732101163E+03  0.11732101163E+03  0.00000000000E+00 0.  1.
         21   -1    0    0  501  502  0.00000000000E+00 -0.00000000000E+00 -0.45353182502E+03  0.45353182502E+03  0.00000000000E+00 0.  1.
         23    2    1    2    0    0  0.54234510688E+02  0.68312140090E+01  0.44783647826E+02  0.11473528211E+03  0.90391162261E+02 0.  0.
         23    2    1    2    0    0  0.35999967519E+02 -0.25657614294E+02 -0.51225766900E+02  0.11370831671E+03  0.91384852473E+02 0.  0.
        -11    1    3    3    0    0 -0.22797161438E+02 -0.12162959632E+02  0.15694240437E+02  0.30231727366E+02  0.00000000000E+00 0. -1.
         11    1    3    3    0    0  0.77031672126E+02  0.18994173641E+02  0.29089407389E+02  0.84503554748E+02  0.00000000000E+00 0.  1.
        -13    1    4    4    0    0  0.65639782144E+02 -0.10256414164E+02 -0.24077170368E+02  0.70664596259E+02  0.00000000000E+00 0.  1.
         13    1    4    4    0    0 -0.29639814625E+02 -0.15401200129E+02 -0.27148596531E+02  0.43043720449E+02  0.00000000000E+00 0. -1.
         -1    1    1    2    0  502 -0.90234478206E+02  0.18826400285E+02 -0.32976869431E+03  0.34240923783E+03  0.00000000000E+00 0.  1.
<scales pt_clust_5="13000.00000" pt_clust_6="13000.00000" pt_clust_7="13000.00000" pt_clust_8="13000.00000" pt_clust_9="92.17752"></scales>
<clustering>
<clus scale="   90.391">  5  6 -1 -1</clus>
<clus scale="   91.385">  7  8 -1 -1</clus>
<clus scale="   92.178">  2  9  1 -1</clus>
<clus scale="   95.257">  1  5  2 -1</clus>
<clus scale="   92.178">  2  5  1 -1</clus>
</clustering>
</event>
<event>
 9    1  0.1636528E-005  0.1029609E+03  0.7546771E-02  0.1275601E+00
         21   -1    0    0  501  502  0.00000000000E+00  0.00000000000E+00  0.33683346039E+02  0.33683346039E+02  0.00000000000E+00 0.  1.
          3   -1    0    0  502    0 -0.00000000000E+00 -0.00000000000E+00 -0.54025445287E+03  0.54025445287E+03  0.00000000000E+00 0. -1.
         23    2    1    2    0    0 -0.34363680267E+02  0.22428994685E+02 -0.25971106342E+03  0.27887698256E+03  0.92944137058E+02 0.  0.
         23    2    1    2    0    0  0.14793490662E+02 -0.59549831140E+02 -0.12275971229E+03  0.16405760645E+03  0.89888383665E+02 0.  0.
        -11    1    4    4    0    0 -0.24950135352E+02 -0.37789060524E+02 -0.15908060377E+02  0.47995715792E+02  0.00000000000E+00 0.  1.
         11    1    4    4    0    0  0.39743626014E+02 -0.21760770616E+02 -0.10685165192E+03  0.11606189066E+03  0.00000000000E+00 0. -1.
        -11    1    3    3    0    0 -0.66457280452E+02  0.11790613240E+02 -0.18278218757E+03  0.19484587955E+03  0.00000000000E+00 0. -1.
         11    1    3    3    0    0  0.32093600186E+02  0.10638381446E+02 -0.76928875856E+02  0.84031103010E+02  0.00000000000E+00 0.  1.
          3    1    1    2  501    0  0.19570189605E+02  0.37120836455E+02 -0.12410033111E+03  0.13100320990E+03  0.00000000000E+00 0. -1.
<scales pt_clust_5="13000.00000" pt_clust_6="13000.00000" pt_clust_7="13000.00000" pt_clust_8="13000.00000" pt_clust_9="41.96368"></scales>
<clustering>
<clus scale="   41.964">  1  9  2 -1</clus>
<clus scale="   89.888">  5  6 -1 -1</clus>
<clus scale="   92.944">  7  8 -1 -1</clus>
<clus scale="  100.211">  1  5  2 -1</clus>
<clus scale="   41.964">  1  5  2 -1</clus>
</clustering>
</event>
<event>
 9    1  0.1636528E-005  0.9810454E+02  0.7546771E-02  0.1287455E+00
         21   -1    0    0  501  502  0.00000000000E+00  0.00000000000E+00  0.30347453149E+02  0.30347453149E+02  0.00000000000E+00 0.  1.
          1   -1    0    0  502    0 -0.00000000000E+00 -0.00000000000E+00 -0.43337821576E+03  0.43337821576E+03  0.00000000000E+00 0. -1.
         23    2    1    2    0    0 -0.34451704956E+01  0.15632681142E+02 -0.27141634037E+03  0.28884864236E+03  0.97521579422E+02 0.  0.
         23    2    1    2    0    0 -0.11822834387E+02  0.48486406177E-01 -0.98823635496E+02  0.13545309113E+03  0.91878437076E+02 0.  0.
        -13    1    4    4    0    0  0.29885288093E+02 -0.24311443359E+02 -0.68000554369E+02  0.78155307670E+02  0.00000000000E+00 0. -1.
         13    1    4    4    0    0 -0.41708122480E+02  0.24359929765E+02 -0.30823081127E+02  0.57297783458E+02  0.00000000000E+00 0.  1.
        -13    1    3    3    0    0 -0.24298552853E+01  0.51983462251E+02 -0.21869991361E+03  0.22480622046E+03  0.00000000000E+00 0. -1.
         13    1    3    3    0    0 -0.10153152103E+01 -0.36350781110E+02 -0.52716426758E+02  0.64042421897E+02  0.00000000000E+00 0.  1.
          1    1    1    2  501    0  0.15268004883E+02 -0.15681167548E+02 -0.32790786738E+02  0.39423935416E+02  0.00000000000E+00 0. -1.
<scales pt_clust_5="13000.00000" pt_clust_6="13000.00000" pt_clust_7="13000.00000" pt_clust_8="13000.00000" pt_clust_9="21.88632"></scales>
<clustering>
<clus scale="   21.886">  1  9  2 -1</clus>
<clus scale="   91.878">  5  6 -1 -1</clus>
<clus scale="   92.497">  1  5  2 -1</clus>
<clus scale="   97.522">  7  8 -1 -1</clus>
<clus scale="   21.886">  1  5  2 -1</clus>
</clustering>
</event>
<event>
 9    1  0.1636528E-005  0.1218164E+03  0.7546771E-02  0.1240223E+00
         21   -1    0    0  501  502  0.00000000000E+00  0.00000000000E+00  0.32531825765E+03  0.32531825765E+03  0.00000000000E+00 0.  1.
          2   -1    0    0  502    0 -0.00000000000E+00 -0.00000000000E+00 -0.19933053665E+03  0.19933053665E+03  0.00000000000E+00 0. -1.
         23    2    1    2    0    0  0.10839995006E+02  0.81495416583E+02 -0.14903884987E+03  0.19350749515E+03  0.92051960840E+02 0.  0.
         23    2    1    2    0    0 -0.28745788094E+02 -0.41258624431E+02  0.26621013700E+03  0.28622641993E+03  0.92353299877E+02 0.  0.
        -11    1    4    4    0    0 -0.31472690464E+02  0.24087456600E+02  0.10715629228E+03  0.11425063145E+03  0.00000000000E+00 0. -1.
         11    1    4    4    0    0  0.27269023702E+01 -0.65346081031E+02  0.15905384472E+03  0.17197578848E+03  0.00000000000E+00 0.  1.
        -13    1    3    3    0    0  0.11502311815E+02  0.26186746032E+02 -0.13282198842E+03  0.13586658696E+03  0.00000000000E+00 0. -1.
         13    1    3    3    0    0 -0.66231680932E+00  0.55308670550E+02 -0.16216861446E+02  0.57640908188E+02  0.00000000000E+00 0.  1.
          2    1    1    2  501    0  0.17905793088E+02 -0.40236792152E+02  0.88164338698E+01  0.44914879216E+02  0.00000000000E+00 0. -1.
<scales pt_clust_5="13000.00000" pt_clust_6="13000.00000" pt_clust_7="13000.00000" pt_clust_8="13000.00000" pt_clust_9="44.04110"></scales>
<clustering>
<clus scale="   44.041">  1  9  2 -1</clus>
<clus scale="   92.052">  7  8 -1 -1</clus>
<clus scale="   92.353">  5  6 -1 -1</clus>
<clus scale="  121.588">  2  7  1 -1</clus>
<clus scale="   44.041">  1  5  2 -1</clus>
</clustering>
</event>
<event>
 9    1  0.1636528E-005  0.9812666E+02  0.7546771E-02  0.1284945E+00
         -3   -1    0    0    0  501 -0.00000000000E+00  0.00000000000E+00  0.89051059870E+02  0.89051059870E+02  0.00000000000E+00 0.  1.
         21   -1    0    0  501  502  0.00000000000E+00 -0.00000000000E+00 -0.21808327021E+03  0.21808327021E+03  0.00000000000E+00 0. -1.
         23    2    1    2    0    0  0.26057764453E+02 -0.24965727800E+02  0.33171253602E+02  0.10375007350E+03  0.91440970205E+02 0.  0.
         23    2    1    2    0    0 -0.13148810812E+02  0.57667762627E+01 -0.15075443163E+03  0.17757105909E+03  0.92727749004E+02 0.  0.
        -11    1    4    4    0    0 -0.17498363448E+02 -0.33743489264E+02 -0.24536646673E+02  0.45242268080E+02  0.00000000000E+00 0.  1.
         11    1    4    4    0    0  0.43495526362E+01  0.39510265527E+02 -0.12621778496E+03  0.13232879101E+03  0.00000000000E+00 0. -1.
        -11    1    3    3    0    0  0.33932755599E+02 -0.48143161672E+02 -0.42286803217E+01  0.59051483094E+02  0.00000000000E+00 0.  1.
         11    1    3    3    0    0 -0.78749911458E+01  0.23177433872E+02  0.37399933923E+02  0.44698590402E+02  0.00000000000E+00 0. -1.
         -3    1    1    2    0  502 -0.12908953641E+02  0.19198951537E+02 -0.11449032315E+02  0.25813197500E+02  0.00000000000E+00 0.  1.
<scales pt_clust_5="13000.00000" pt_clust_6="13000.00000" pt_clust_7="13000.00000" pt_clust_8="13000.00000" pt_clust_9="23.13527"></scales>
<clustering>
<clus scale="   23.135">  2  9  1 -1</clus>
<clus scale="   91.441">  7  8 -1 -1</clus>
<clus scale="   92.728">  5  6 -1 -1</clus>
<clus scale="   96.912">  1  7  2 -1</clus>
<clus scale="   23.135">  2  5  1 -1</clus>
</clustering>
</event>
<event>
 9    1  0.1636528E-005  0.1563510E+03  0.7546771E-02  0.1193040E+00
         21   -1    0    0  501  502  0.00000000000E+00  0.00000000000E+00  0.19866389446E+03  0.19866389446E+03  0.00000000000E+00 0. -1.
         -3   -1    0    0    0  501 -0.00000000000E+00 -0.00000000000E+00 -0.16606359163E+03  0.16606359163E+03  0.00000000000E+00 0.  1.
         23    2    1    2    0    0  0.78517976452E+02  0.10092213217E+03 -0.56422621896E+02  0.16676994547E+03  0.90985455217E+02 0.  0.
         23    2    1    2    0    0 -0.59656568990E+02 -0.10899704088E+03  0.86930427029E+02  0.17733387973E+03  0.91930107205E+02 0.  0.
        -13    1    3    3    0    0 -0.62923089980E+01  0.38754130104E+02  0.12307652044E+02  0.41145522861E+02  0.00000000000E+00 0. -1.
         13    1    3    3    0    0  0.84810285450E+02  0.62168002070E+02 -0.68730273941E+02  0.12562442261E+03  0.00000000000E+00 0.  1.
        -13    1    4    4    0    0 -0.25137121404E+02 -0.11305709233E+03  0.48628982915E+02  0.12561273414E+03  0.00000000000E+00 0. -1.
         13    1    4    4    0    0 -0.34519447587E+02  0.40600514495E+01  0.38301444114E+02  0.51721145586E+02  0.00000000000E+00 0.  1.
         -3    1    1    2    0  502 -0.18861407462E+02  0.80749087085E+01  0.20924977003E+01  0.20623660895E+02  0.00000000000E+00 0.  1.
<scales pt_clust_5="13000.00000" pt_clust_6="13000.00000" pt_clust_7="13000.00000" pt_clust_8="13000.00000" pt_clust_9="20.51723"></scales>
<clustering>
<clus scale="   20.517">  1  9  2 -1</clus>
<clus scale="   90.985">  5  6 -1 -1</clus>
<clus scale="   91.930">  7  8 -1 -1</clus>
<clus scale="  155.797">  2  5  1 -1</clus>
<clus scale="   20.517">  1  5  2 -1</clus>
</clustering>
</event>
<event>
 9    1  0.1636528E-005  0.1711325E+03  0.7546771E-02  0.1177386E+00
         21   -1    0    0  501  502  0.00000000000E+00  0.00000000000E+00  0.26383330304E+03  0.26383330304E+03  0.00000000000E+00 0. -1.
         -1   -1    0    0    0  501 -0.00000000000E+00 -0.00000000000E+00 -0.32357124064E+03  0.32357124064E+03  0.00000000000E+00 0.  1.
         23    2    1    2    0    0 -0.86293417825E+01 -0.14809792840E+03 -0.13805695444E+03  0.22244611886E+03  0.91733806147E+02 0.  0.
         23    2    1    2    0    0 -0.13064504968E+03  0.12299395410E+03 -0.77003349277E+01  0.19934775330E+03  0.86513524004E+02 0.  0.
        -11    1    4    4    0    0 -0.18640222796E+02 -0.12632404599E+02 -0.65378917146E+01  0.23447378956E+02  0.00000000000E+00 0.  1.
         11    1    4    4    0    0 -0.11200482689E+03  0.13562635870E+03 -0.11624432131E+01  0.17590037434E+03  0.00000000000E+00 0. -1.
        -11    1    3    3    0    0 -0.41275050011E+02 -0.10652574477E+03 -0.12214552763E+03  0.16724501180E+03  0.00000000000E+00 0.  1.
         11    1    3    3    0    0  0.32645708229E+02 -0.41572183630E+02 -0.15911426814E+02  0.55201107062E+02  0.00000000000E+00 0. -1.
         -1    1    1    2    0  502  0.13927439146E+03  0.25103974303E+02  0.86019351762E+02  0.16561067152E+03  0.00000000000E+00 0.  1.
<scales pt_clust_5="13000.00000" pt_clust_6="13000.00000" pt_clust_7="13000.00000" pt_clust_8="13000.00000" pt_clust_9="141.51878"></scales>
<clustering>
<clus scale="   86.514">  5  6 -1 -1</clus>
<clus scale="   91.734">  7  8 -1 -1</clus>
<clus scale="  141.519">  1  9  2 -1</clus>
<clus scale="  168.392">  1  5  2 -1</clus>
<clus scale="  141.519">  1  5  2 -1</clus>
</clustering>
</event>
<event>
 9    1  0.1636528E-005  0.1015095E+03  0.7546771E-02  0.1277288E+00
         21   -1    0    0  501  502  0.00000000000E+00  0.00000000000E+00  0.17612925340E+03  0.17612925340E+03  0.00000000000E+00 0. -1.
          1   -1    0    0  502    0 -0.00000000000E+00 -0.00000000000E+00 -0.19111701680E+03  0.19111701680E+03  0.00000000000E+00 0. -1.
         23    2    1    2    0    0 -0.22795131927E+02 -0.58629824443E+02 -0.10805686263E+03  0.15523721521E+03  0.92006701219E+02 0.  0.
         23    2    1    2    0    0  0.20458743142E+02 -0.76151289430E+01 -0.34692476841E+01  0.94904379660E+02  0.92294394409E+02 0.  0.
        -11    1    3    3    0    0 -0.27603575370E+01  0.22649935715E+02 -0.67017965993E+01  0.23781363276E+02  0.00000000000E+00 0.  1.
         11    1    3    3    0    0 -0.20034774390E+02 -0.81279760158E+02 -0.10135506603E+03  0.13145585193E+03  0.00000000000E+00 0. -1.
        -13    1    4    4    0    0  0.43650406526E+01 -0.42005704237E+02 -0.27102287662E+02  0.50180342415E+02  0.00000000000E+00 0. -1.
         13    1    4    4    0    0  0.16093702490E+02  0.34390575294E+02  0.23633039978E+02  0.44724037245E+02  0.00000000000E+00 0.  1.
          1    1    1    2  501    0  0.23363887844E+01  0.66244953386E+02  0.96538346916E+02  0.11710467534E+03  0.00000000000E+00 0. -1.
<scales pt_clust_5="13000.00000" pt_clust_6="13000.00000" pt_clust_7="13000.00000" pt_clust_8="13000.00000" pt_clust_9="66.28614"></scales>
<clustering>
<clus scale="   66.286">  1  9  2 -1</clus>
<clus scale="   92.007">  5  6 -1 -1</clus>
<clus scale="   92.294">  7  8 -1 -1</clus>
<clus scale="  101.248">  2  5  1 -1</clus>
<clus scale="   66.286">  1  5  2 -1</clus>
</clustering>
</event>
<event>
 9    1  0.1636528E-005  0.9402982E+02  0.7546771E-02  0.1293520E+00
          2   -1    0    0  502    0 -0.00000000000E+00  0.00000000000E+00  0.21211013344E+03  0.21211013344E+03  0.00000000000E+00 0. -1.
         21   -1    0    0  501  502  0.00000000000E+00 -0.00000000000E+00 -0.64205168161E+02  0.64205168161E+02  0.00000000000E+00 0.  1.
         23    2    1    2    0    0  0.26111297347E+01  0.41192563557E+02  0.85503549276E+02  0.13116673304E+03  0.90499776936E+02 0.  0.
         23    2    1    2    0    0 -0.33220983656E+01 -0.29018835602E+01  0.30656716278E+02  0.95405150794E+02  0.90237748638E+02 0.  0.
        -11    1    3    3    0    0 -0.32651393965E+02  0.42370252612E+02  0.20653900629E+02  0.57340521845E+02  0.00000000000E+00 0.  1.
         11    1    3    3    0    0  0.35262523699E+02 -0.11776890545E+01  0.64849648646E+02  0.73826211190E+02  0.00000000000E+00 0. -1.
        -13    1    4    4    0    0 -0.76500402211E+01 -0.36050984674E+02 -0.14171137830E+02  0.39484398928E+02  0.00000000000E+00 0. -1.
         13    1    4    4    0    0  0.43279418555E+01  0.33149101113E+02  0.44827854108E+02  0.55920751866E+02  0.00000000000E+00 0.  1.
          2    1    1    2  501    0  0.71096863093E+00 -0.38290679997E+02  0.31744699724E+02  0.49743417771E+02  0.00000000000E+00 0. -1.
<scales pt_clust_5="13000.00000" pt_clust_6="13000.00000" pt_clust_7="13000.00000" pt_clust_8="13000.00000" pt_clust_9="38.29730"></scales>
<clustering>
<clus scale="   38.297">  2  9  1 -1</clus>
<clus scale="   90.238">  7  8 -1 -1</clus>
<clus scale="   90.500">  5  6 -1 -1</clus>
<clus scale="   93.778">  2  7  1 -1</clus>
<clus scale="   38.297">  2  5  1 -1</clus>
</clustering>
</event>
<event>
 9    1  0.1636528E-005  0.9720988E+02  0.7546771E-02  0.1287911E+00
         21   -1    0    0  501  502  0.00000000000E+00  0.00000000000E+00  0.70371893272E+03  0.70371893272E+03  0.00000000000E+00 0.  1.
          3   -1    0    0  502    0 -0.00000000000E+00 -0.00000000000E+00 -0.17458935599E+02  0.17458935599E+02  0.00000000000E+00 0. -1.
         23    2    1    2    0    0  0.21870834025E+02  0.53518799791E+01  0.26153097417E+03  0.27784108531E+03  0.91050767346E+02 0.  0.
         23    2    1    2    0    0 -0.26251673754E+02  0.14505528462E+02  0.27427408009E+03  0.29151386558E+03  0.94098363879E+02 0.  0.
        -11    1    4    4    0    0  0.26377136248E+02  0.28267997201E+02  0.16473070356E+03  0.16920708519E+03  0.00000000000E+00 0.  1.
         11    1    4    4    0    0 -0.52628810002E+02 -0.13762468739E+02  0.10954337653E+03  0.12230678039E+03  0.00000000000E+00 0. -1.
        -13    1    3    3    0    0  0.17746966316E+02 -0.42008188511E+02  0.11174768488E+03  0.12069460548E+03  0.00000000000E+00 0. -1.
         13    1    3    3    0    0  0.41238677086E+01  0.47360068490E+02  0.14978328929E+03  0.15714647983E+03  0.00000000000E+00 0.  1.
          3    1    1    2  501    0  0.43808397299E+01 -0.19857408441E+02  0.15045494286E+03  0.15182291743E+03  0.00000000000E+00 0. -1.
<scales pt_clust_5="13000.00000" pt_clust_6="13000.00000" pt_clust_7="13000.00000" pt_clust_8="13000.00000" pt_clust_9="20.33491"></scales>
<clustering>
<clus scale="   20.335">  1  9  2 -1</clus>
<clus scale="   91.051">  7  8 -1 -1</clus>
<clus scale="   94.098">  5  6 -1 -1</clus>
<clus scale="   94.263">  2  7  1 -1</clus>
<clus scale="   20.335">  1  5  2 -1</clus>
</clustering>
</event>
<event>
 9    1  0.1636528E-005  0.9676424E+02  0.7546771E-02  0.1289832E+00
         21   -1    0    0  501  502  0.00000000000E+00  0.00000000000E+00  0.21172828141E+03  0.21172828141E+03  0.00000000000E+00 0. -1.
          3   -1    0    0  502    0 -0.00000000000E+00 -0.00000000000E+00 -0.14785797602E+03  0.14785797602E+03  0.00000000000E+00 0. -1.
         23    2    1    2    0    0 -0.20210048154E+02  0.17352920826E+01 -0.10686174027E+03  0.14463460018E+03  0.95332464298E+02 0.  0.
         23    2    1    2    0    0 -0.14043737599E+02 -0.16036098338E+02  0.12868891692E+03  0.15886726037E+03  0.90683990123E+02 0.  0.
        -11    1    4    4    0    0 -0.34148414130E+02 -0.41951448179E+01  0.71901811901E+01  0.35148430025E+02  0.00000000000E+00 0. -1.
         11    1    4    4    0    0  0.20104676532E+02 -0.11840953520E+02  0.12149873573E+03  0.12371883035E+03  0.00000000000E+00 0.  1.
        -13    1    3    3    0    0 -0.43415733069E+02  0.28657907083E+02 -0.92848423617E+02  0.10642852665E+03  0.00000000000E+00 0. -1.
         13    1    3    3    0    0  0.23205684915E+02 -0.26922615000E+02 -0.14013316657E+02  0.38206073530E+02  0.00000000000E+00 0.  1.
          3    1    1    2  501    0  0.34253785753E+02  0.14300806255E+02  0.42043128744E+02  0.56084396872E+02  0.00000000000E+00 0. -1.
<scales pt_clust_5="13000.00000" pt_clust_6="13000.00000" pt_clust_7="13000.00000" pt_clust_8="13000.00000" pt_clust_9="37.11920"></scales>
<clustering>
<clus scale="   37.119">  1  9  2 -1</clus>
<clus scale="   90.684">  5  6 -1 -1</clus>
<clus scale="   92.188">  1  5  2 -1</clus>
<clus scale="   95.332">  7  8 -1 -1</clus>
<clus scale="   37.119">  1  5  2 -1</clus>
</clustering>
</event>
<event>
 9    1  0.1636528E-005  0.1386487E+03  0.7546771E-02  0.1216193E+00
         21   -1    0    0  501  502  0.00000000000E+00  0.00000000000E+00  0.67742717705E+02  0.67742717705E+02  0.00000000000E+00 0.  1.
          1   -1    0    0  502    0 -0.00000000000E+00 -0.00000000000E+00 -0.50805204634E+03  0.50805204634E+03  0.00000000000E+00 0. -1.
         23    2    1    2    0    0 -0.82443969460E+02  0.48745425675E+02 -0.23103397193E+03  0.26751991397E+03  0.94958325394E+02 0.  0.
         23    2    1    2    0    0  0.10373598075E+03 -0.31013777728E+02 -0.23259293479E+03  0.27206061902E+03  0.90523472052E+02 0.  0.
        -11    1    3    3    0    0 -0.57093199434E+02  0.71943180760E+02 -0.11891865652E+03  0.15025678537E+03  0.00000000000E+00 0. -1.
         11    1    3    3    0    0 -0.25350770027E+02 -0.23197755084E+02 -0.11211531540E+03  0.11726312860E+03  0.00000000000E+00 0.  1.
        -13    1    4    4    0    0  0.94156341584E+01 -0.23008380062E+02 -0.47142548914E+01  0.25303436898E+02  0.00000000000E+00 0.  1.
         13    1    4    4    0    0  0.94320346591E+02 -0.80053976668E+01 -0.22787867990E+03  0.24675718212E+03  0.00000000000E+00 0. -1.
          1    1    1    2  501    0 -0.21292011289E+02 -0.17731647947E+02  0.23317578083E+02  0.36214231061E+02  0.00000000000E+00 0. -1.
<scales pt_clust_5="13000.00000" pt_clust_6="13000.00000" pt_clust_7="13000.00000" pt_clust_8="13000.00000" pt_clust_9="27.70850"></scales>
<clustering>
<clus scale="   27.709">  1  9  2 -1</clus>
<clus scale="   90.523">  7  8 -1 -1</clus>
<clus scale="   94.958">  5  6 -1 -1</clus>
<clus scale="  135.650">  1  7  2 -1</clus>
<clus scale="   27.709">  1  5  2 -1</clus>
</clustering>
</event>
<event>
 9    1  0.1636528E-005  0.1647543E+03  0.7546771E-02  0.1184931E+00
         21   -1    0    0  501  502  0.00000000000E+00  0.00000000000E+00  0.52801109818E+03  0.52801109818E+03  0.00000000000E+00 0. -1.
          2   -1    0    0  502    0 -0.00000000000E+00 -0.00000000000E+00 -0.10911144056E+03  0.10911144056E+03  0.00000000000E+00 0. -1.
         23    2    1    2    0    0  0.10816142762E+03  0.11619763636E+03  0.67503858362E+02  0.19766408627E+03  0.96506657738E+02 0.  0.
         23    2    1    2    0    0 -0.11258561326E+03 -0.30846836075E+02  0.10726394500E+03  0.18079903394E+03  0.86923467286E+02 0.  0.
        -13    1    4    4    0    0 -0.42247248126E+02 -0.20770690439E+02  0.98541407594E+02  0.10920925128E+03  0.00000000000E+00 0.  1.
         13    1    4    4    0    0 -0.70338365138E+02 -0.10076145636E+02  0.87225374058E+01  0.71589782651E+02  0.00000000000E+00 0. -1.
        -13    1    3    3    0    0  0.11811649298E+03  0.67543737699E+02  0.51543849410E+02  0.14550062140E+03  0.00000000000E+00 0.  1.
         13    1    3    3    0    0 -0.99550653639E+01  0.48653898661E+02  0.15960008953E+02  0.52163464868E+02  0.00000000000E+00 0. -1.
          2    1    1    2  501    0  0.44241856461E+01 -0.85350800285E+02  0.24413185426E+03  0.25865941853E+03  0.00000000000E+00 0. -1.
<scales pt_clust_5="13000.00000" pt_clust_6="13000.00000" pt_clust_7="13000.00000" pt_clust_8="13000.00000" pt_clust_9="85.46539"></scales>
<clustering>
<clus scale="   85.465">  1  9  2 -1</clus>
<clus scale="   86.923">  5  6 -1 -1</clus>
<clus scale="   96.507">  7  8 -1 -1</clus>
<clus scale="  159.330">  1  5  2 -1</clus>
<clus scale="   85.465">  1  5  2 -1</clus>
</clustering>
</event>
<event>
 9    1  0.1636528E-005  0.9328841E+02  0.7546771E-02  0.1295710E+00
         21   -1    0    0  501  502  0.00000000000E+00  0.00000000000E+00  0.71214312016E+02  0.71214312016E+02  0.00000000000E+00 0. -1.
          1   -1    0    0  502    0 -0.00000000000E+00 -0.00000000000E+00 -0.38153257876E+03  0.38153257876E+03  0.00000000000E+00 0. -1.
         23    2    1    2    0    0 -0.34616947383E+02  0.78758621489E+01 -0.25739669650E+03  0.27542001164E+03  0.91338716842E+02 0.  0.
         23    2    1    2    0    0 -0.27273904498E+02  0.10375841721E+02 -0.60304991955E+02  0.11237984566E+03  0.90227566177E+02 0.  0.
        -11    1    4    4    0    0 -0.44875974756E+02  0.38371086153E+02 -0.51015856896E+02  0.78030833763E+02  0.00000000000E+00 0. -1.
         11    1    4    4    0    0  0.17602070258E+02 -0.27995244433E+02 -0.92891350588E+01  0.34349011898E+02  0.00000000000E+00 0.  1.
        -13    1    3    3    0    0 -0.62967169078E+02 -0.10977405634E+02 -0.16456791427E+03  0.17654451627E+03  0.00000000000E+00 0.  1.
         13    1    3    3    0    0  0.28350221695E+02  0.18853267783E+02 -0.92828782224E+02  0.98875495374E+02  0.00000000000E+00 0. -1.
          1    1    1    2  501    0  0.61890851881E+02 -0.18251703870E+02  0.73834217082E+01  0.64947033472E+02  0.00000000000E+00 0. -1.
<scales pt_clust_5="13000.00000" pt_clust_6="13000.00000" pt_clust_7="13000.00000" pt_clust_8="13000.00000" pt_clust_9="64.52598"></scales>
<clustering>
<clus scale="   64.526">  1  9  2 -1</clus>
<clus scale="   90.228">  5  6 -1 -1</clus>
<clus scale="   91.339">  7  8 -1 -1</clus>
<clus scale="   92.201">  1  5  2 -1</clus>
<clus scale="   64.526">  1  5  2 -1</clus>
</clustering>
</event>
<event>
 9    1  0.1636528E-005  0.1372827E+03  0.7546771E-02  0.1217845E+00
         21   -1    0    0  501  502  0.00000000000E+00  0.00000000000E+00  0.44004528773E+02  0.44004528773E+02  0.00000000000E+00 0. -1.
          1   -1    0    0  502    0 -0.00000000000E+00 -0.00000000000E+00 -0.81592431790E+03  0.81592431790E+03  0.00000000000E+00 0. -1.
         23    2    1    2    0    0 -0.96359372855E+02 -0.50307015721E+01 -0.43752385799E+03  0.45729258266E+03  0.91536567290E+02 0.  0.
         23    2    1    2    0    0  0.10804047358E+03  0.29930926907E+02 -0.34490587026E+03  0.37319262029E+03  0.88000387395E+02 0.  0.
        -11    1    4    4    0    0  0.58129714762E+02  0.47275151915E+02 -0.11472434484E+03  0.13702437384E+03  0.00000000000E+00 0.  1.
         11    1    4    4    0    0  0.49910758819E+02 -0.17344225007E+02 -0.23018152542E+03  0.23616824645E+03  0.00000000000E+00 0. -1.
        -11    1    3    3    0    0 -0.11074685415E+01 -0.33412564941E+02 -0.10008911418E+03  0.10552467370E+03  0.00000000000E+00 0. -1.
         11    1    3    3    0    0 -0.95251904314E+02  0.28381863369E+02 -0.33743474381E+03  0.35176790896E+03  0.00000000000E+00 0.  1.
          1    1    1    2  501    0 -0.11681100725E+02 -0.24900225335E+02  0.10509939115E+02  0.29443643730E+02  0.00000000000E+00 0. -1.
<scales pt_clust_5="13000.00000" pt_clust_6="13000.00000" pt_clust_7="13000.00000" pt_clust_8="13000.00000" pt_clust_9="27.50399"></scales>
<clustering>
<clus scale="   27.504">  1  9  2 -1</clus>
<clus scale="   88.000">  5  6 -1 -1</clus>
<clus scale="   91.537">  7  8 -1 -1</clus>
<clus scale="  134.951">  1  5  2 -1</clus>
<clus scale="   27.504">  1  5  2 -1</clus>
</clustering>
</event>
<event>
 9    1  0.1636528E-005  0.1079887E+03  0.7546771E-02  0.1264552E+00
         21   -1    0    0  501  502  0.00000000000E+00  0.00000000000E+00  0.11215813372E+03  0.11215813372E+03  0.00000000000E+00 0.  1.
          3   -1    0    0  502    0 -0.00000000000E+00 -0.00000000000E+00 -0.15483025292E+03  0.15483025292E+03  0.00000000000E+00 0. -1.
         23    2    1    2    0    0 -0.41600231872E+02  0.22559367794E+02 -0.49481690034E+02  0.11388365573E+03  0.91002994607E+02 0.  0.
         23    2    1    2    0    0  0.60138008532E+02 -0.42502404444E+02 -0.14718704881E+02  0.11839391805E+03  0.91528384141E+02 0.  0.
        -11    1    3    3    0    0 -0.11341166293E+02 -0.25530912554E+02  0.11789795328E+02  0.30322414525E+02  0.00000000000E+00 0.  1.
         11    1    3    3    0    0 -0.30259065579E+02  0.48090280348E+02 -0.61271485363E+02  0.83561241208E+02  0.00000000000E+00 0. -1.
        -11    1    4    4    0    0  0.39698114540E+02 -0.69544266805E+02  0.30227205278E+01  0.80134151165E+02  0.00000000000E+00 0.  1.
         11    1    4    4    0    0  0.20439893992E+02  0.27041862361E+02 -0.17741425409E+02  0.38259766883E+02  0.00000000000E+00 0. -1.
          3    1    1    2  501    0 -0.18537776660E+02  0.19943036650E+02  0.21528275708E+02  0.34710812858E+02  0.00000000000E+00 0. -1.
<scales pt_clust_5="13000.00000" pt_clust_6="13000.00000" pt_clust_7="13000.00000" pt_clust_8="13000.00000" pt_clust_9="27.22818"></scales>
<clustering>
<clus scale="   27.228">  1  9  2 -1</clus>
<clus scale="   91.003">  5  6 -1 -1</clus>
<clus scale="   91.528">  7  8 -1 -1</clus>
<clus scale="  107.544">  2  5  1 -1</clus>
<clus scale="   27.228">  1  5  2 -1</clus>
</clustering>
</event>
<event>
 9    1  0.1636528E-005  0.9295479E+02  0.7546771E-02  0.1296604E+00
          1   -1    0    0  502    0 -0.00000000000E+00  0.00000000000E+00  0.31681280707E+03  0.31681280707E+03  0.00000000000E+00 0. -1.
         21   -1    0    0  501  502  0.00000000000E+00 -0.00000000000E+00 -0.51664869703E+02  0.51664869703E+02  0.00000000000E+00 0.  1.
         23    2    1    2    0    0 -0.19964996480E+02 -0.14461058979E+02  0.17465730184E+03  0.19813144793E+03  0.90239538231E+02 0.  0.
         23    2    1    2    0    0  0.17043792881E+01  0.41786030419E+01  0.10897728957E+03  0.14240100711E+03  0.91551250954E+02 0.  0.
        -11    1    3    3    0    0 -0.42464491407E+02  0.23598109252E+02  0.78843165134E+02  0.92608576704E+02  0.00000000000E+00 0.  1.
         11    1    3    3    0    0  0.22499494927E+02 -0.38059168231E+02  0.95814136710E+02  0.10552287123E+03  0.00000000000E+00 0. -1.
        -13    1    4    4    0    0  0.36520895505E+02 -0.37377049418E+01  0.98608711776E+02  0.10522083579E+03  0.00000000000E+00 0. -1.
         13    1    4    4    0    0 -0.34816516216E+02  0.79163079837E+01  0.10368577792E+02  0.37180171315E+02  0.00000000000E+00 0.  1.
          1    1    1    2  501    0  0.18260617192E+02  0.10282455938E+02 -0.18486654042E+02  0.27945221738E+02  0.00000000000E+00 0. -1.
<scales pt_clust_5="13000.00000" pt_clust_6="13000.00000" pt_clust_7="13000.00000" pt_clust_8="13000.00000" pt_clust_9="20.95660"></scales>
<clustering>
<clus scale="   20.957">  2  9  1 -1</clus>
<clus scale="   90.240">  5  6 -1 -1</clus>
<clus scale="   91.551">  7  8 -1 -1</clus>
<clus scale="   91.663">  1  5  2 -1</clus>
<clus scale="   20.957">  2  5  1 -1</clus>
</clustering>
</event>
<event>
 9    1  0.1636528E-005  0.9495096E+02  0.7546771E-02  0.1293012E+00
         21   -1    0    0  501  502  0.00000000000E+00  0.00000000000E+00  0.14977536657E+03  0.14977536657E+03  0.00000000000E+00 0. -1.
          4   -1    0    0  502    0 -0.00000000000E+00 -0.00000000000E+00 -0.13209971527E+03  0.13209971527E+03  0.00000000000E+00 0. -1.
         23    2    1    2    0    0 -0.25341666526E+02 -0.34715871984E+02 -0.47707760635E+02  0.11255363212E+03  0.92438616654E+02 0.  0.
         23    2    1    2    0    0 -0.29625200465E+01 -0.20718293776E+02  0.24932318116E+02  0.95089618933E+02  0.89344227123E+02 0.  0.
        -11    1    3    3    0    0 -0.32753068758E+02  0.24084641236E+02 -0.30550466129E+02  0.50854345313E+02  0.00000000000E+00 0. -1.
         11    1    3    3    0    0  0.74114022319E+01 -0.58800513219E+02 -0.17157294507E+02  0.61699286809E+02  0.00000000000E+00 0.  1.
        -13    1    4    4    0    0  0.32743457384E+02 -0.21262364728E+02  0.40392691698E+02  0.56176433652E+02  0.00000000000E+00 0. -1.
         13    1    4    4    0    0 -0.35705977431E+02  0.54407095123E+00 -0.15460373581E+02  0.38913185281E+02  0.00000000000E+00 0.  1.
          4    1    1    2  501    0  0.28304186573E+02  0.55434165760E+02  0.40451093822E+02  0.74231830790E+02  0.00000000000E+00 0. -1.
<scales pt_clust_5="13000.00000" pt_clust_6="13000.00000" pt_clust_7="13000.00000" pt_clust_8="13000.00000" pt_clust_9="62.24206"></scales>
<clustering>
<clus scale="   62.242">  1  9  2 -1</clus>
<clus scale="   89.344">  7  8 -1 -1</clus>
<clus scale="   91.941">  1  7  2 -1</clus>
<clus scale="   92.439">  5  6 -1 -1</clus>
<clus scale="   62.242">  1  5  2 -1</clus>
</clustering>
</event>
<event>
 9    1  0.1636528E-005  0.1261922E+03  0.7546771E-02  0.1233447E+00
         21   -1    0    0  501  502  0.00000000000E+00  0.00000000000E+00  0.20734954312E+03  0.20734954312E+03  0.00000000000E+00 0.  1.
         -1   -1    0    0    0  501 -0.00000000000E+00 -0.00000000000E+00 -0.23373869667E+03  0.23373869667E+03  0.00000000000E+00 0.  1.
         23    2    1    2    0    0  0.11234633810E+03  0.70896611284E+01 -0.14868176043E+03  0.20843019902E+03  0.93085546671E+02 0.  0.
         23    2    1    2    0    0 -0.32872137380E+02  0.61941818711E-01  0.15241987713E+02  0.99139768366E+02  0.92281061056E+02 0.  0.
        -13    1    4    4    0    0 -0.17715082618E+02  0.36660492523E+02 -0.20677951115E+02  0.45666109167E+02  0.00000000000E+00 0.  1.
         13    1    4    4    0    0 -0.15157054763E+02 -0.36598550704E+02  0.35919938828E+02  0.53473659199E+02  0.00000000000E+00 0. -1.
        -13    1    3    3    0    0  0.67845827518E+02  0.28078154252E+02 -0.14053188791E+03  0.15855803536E+03  0.00000000000E+00 0.  1.
         13    1    3    3    0    0  0.44500510582E+02 -0.20988493124E+02 -0.81498725160E+01  0.49872163655E+02  0.00000000000E+00 0. -1.
         -1    1    1    2    0  502 -0.79474200719E+02 -0.71516029471E+01  0.10705061916E+03  0.13351827241E+03  0.00000000000E+00 0.  1.
<scales pt_clust_5="13000.00000" pt_clust_6="13000.00000" pt_clust_7="13000.00000" pt_clust_8="13000.00000" pt_clust_9="79.79533"></scales>
<clustering>
<clus scale="   79.795">  1  9  2 -1</clus>
<clus scale="   92.281">  5  6 -1 -1</clus>
<clus scale="   93.086">  7  8 -1 -1</clus>
<clus scale="  125.600">  1  5  2 -1</clus>
<clus scale="   79.795">  1  5  2 -1</clus>
</clustering>
</event>
<event>
 9    1  0.1636528E-005  0.1244648E+03  0.7546771E-02  0.1236624E+00
         21   -1    0    0  501  502  0.00000000000E+00  0.00000000000E+00  0.13002756591E+03  0.13002756591E+03  0.00000000000E+00 0. -1.
         -3   -1    0    0    0  501 -0.00000000000E+00 -0.00000000000E+00 -0.21367923322E+03  0.21367923322E+03  0.00000000000E+00 0.  1.
         23    2    1    2    0    0 -0.68626256299E+02  0.21386315370E+01 -0.56590997513E+02  0.12696235958E+03  0.90569105954E+02 0.  0.
         23    2    1    2    0    0  0.97039191705E+02 -0.61268196760E+02 -0.31338875284E+02  0.15100325440E+03  0.93002478864E+02 0.  0.
        -11    1    4    4    0    0  0.62257410720E+02 -0.77657410812E+02 -0.46263361139E+02  0.10975863168E+03  0.00000000000E+00 0. -1.
         11    1    4    4    0    0  0.34781780985E+02  0.16389214052E+02  0.14924485855E+02  0.41244622725E+02  0.00000000000E+00 0.  1.
        -11    1    3    3    0    0 -0.61822643873E+02 -0.36748787965E+02 -0.24154894596E+02  0.75868120085E+02  0.00000000000E+00 0. -1.
         11    1    3    3    0    0 -0.68036124260E+01  0.38887419502E+02 -0.32436102917E+02  0.51094239499E+02  0.00000000000E+00 0.  1.
         -3    1    1    2    0  502 -0.28412935406E+02  0.59129565223E+02  0.42782054821E+01  0.65741185143E+02  0.00000000000E+00 0.  1.
<scales pt_clust_5="13000.00000" pt_clust_6="13000.00000" pt_clust_7="13000.00000" pt_clust_8="13000.00000" pt_clust_9="65.60183"></scales>
<clustering>
<clus scale="   65.602">  1  9  2 -1</clus>
<clus scale="   90.569">  7  8 -1 -1</clus>
<clus scale="   93.002">  5  6 -1 -1</clus>
<clus scale="  122.657">  2  7  1 -1</clus>
<clus scale="   65.602">  1  5  2 -1</clus>
</clustering>
</event>
<event>
 9    1  0.1636528E-005  0.9454961E+02  0.7546771E-02  0.1292619E+00
         21   -1    0    0  501  502  0.00000000000E+00  0.00000000000E+00  0.95423753763E+02  0.95423753763E+02  0.00000000000E+00 0.  1.
          1   -1    0    0  502    0 -0.00000000000E+00 -0.00000000000E+00 -0.29654427255E+03  0.29654427255E+03  0.00000000000E+00 0. -1.
         23    2    1    2    0    0 -0.27040539822E+02  0.48478489974E+01 -0.23967359562E+03  0.25758159936E+03  0.90278211427E+02 0.  0.
         23    2    1    2    0    0  0.36213674488E+01 -0.25217417340E+02  0.41398953155E+02  0.10321791783E+03  0.91055108584E+02 0.  0.
        -13    1    3    3    0    0 -0.53276191636E+02 -0.17632018455E+02 -0.18091044389E+03  0.18941443814E+03  0.00000000000E+00 0.  1.
         13    1    3    3    0    0  0.26235651815E+02  0.22479867452E+02 -0.58763151730E+02  0.68167161214E+02  0.00000000000E+00 0. -1.
        -13    1    4    4    0    0 -0.21034024553E+02 -0.53198247159E+02  0.26739754224E+02  0.63146640018E+02  0.00000000000E+00 0.  1.
         13    1    4    4    0    0  0.24655392002E+02  0.27980829819E+02  0.14659198931E+02  0.40071277811E+02  0.00000000000E+00 0. -1.
          1    1    1    2  501    0  0.23419172373E+02  0.20369568342E+02 -0.28458763259E+01  0.31168509126E+02  0.00000000000E+00 0. -1.
<scales pt_clust_5="13000.00000" pt_clust_6="13000.00000" pt_clust_7="13000.00000" pt_clust_8="13000.00000" pt_clust_9="31.03831"></scales>
<clustering>
<clus scale="   31.038">  1  9  2 -1</clus>
<clus scale="   90.278">  5  6 -1 -1</clus>
<clus scale="   91.055">  7  8 -1 -1</clus>
<clus scale="   93.802">  2  5  1 -1</clus>
<clus scale="   31.038">  1  5  2 -1</clus>
</clustering>
</event>
<event>
 9    1  0.1636528E-005  0.1549053E+03  0.7546771E-02  0.1195222E+00
          1   -1    0    0  502    0 -0.00000000000E+00  0.00000000000E+00  0.39914054539E+03  0.39914054539E+03  0.00000000000E+00 0. -1.
         21   -1    0    0  501  502  0.00000000000E+00 -0.00000000000E+00 -0.85532954287E+02  0.85532954287E+02  0.00000000000E+00 0.  1.
         23    2    1    2    0    0 -0.63610221772E+02  0.95340672808E+02  0.18962343583E+03  0.24617672305E+03  0.10728386343E+03 0.  0.
         23    2    1    2    0    0  0.32587995147E+02 -0.10596113193E+03  0.13556420630E+03  0.20372221296E+03  0.10409297344E+03 0.  0.
        -13    1    4    4    0    0  0.88102589283E+01 -0.66347245137E+02  0.72233080133E+01  0.67318301956E+02  0.00000000000E+00 0.  1.
         13    1    4    4    0    0  0.23777736218E+02 -0.39613886789E+02  0.12834089828E+03  0.13640391101E+03  0.00000000000E+00 0. -1.
        -13    1    3    3    0    0 -0.48770189718E+02 -0.42605707003E+01  0.29917794882E+02  0.57373846990E+02  0.00000000000E+00 0.  1.
         13    1    3    3    0    0 -0.14840032054E+02  0.99601243508E+02  0.15970564094E+03  0.18880287606E+03  0.00000000000E+00 0. -1.
          1    1    1    2  501    0  0.31022226625E+02  0.10620459118E+02 -0.11580051014E+02  0.34774563666E+02  0.00000000000E+00 0. -1.
<scales pt_clust_5="13000.00000" pt_clust_6="13000.00000" pt_clust_7="13000.00000" pt_clust_8="13000.00000" pt_clust_9="32.78983"></scales>
<clustering>
<clus scale="   32.790">  2  9  1 -1</clus>
<clus scale="  104.093">  5  6 -1 -1</clus>
<clus scale="  107.284">  7  8 -1 -1</clus>
<clus scale="  152.713">  2  5  1 -1</clus>
<clus scale="   32.790">  2  5  1 -1</clus>
</clustering>
</event>
<event>
 9    1  0.1636528E-005  0.1352405E+03  0.7546771E-02  0.1234595E+00
         -3   -1    0    0    0  501 -0.00000000000E+00  0.00000000000E+00  0.23800249517E+03  0.23800249517E+03  0.00000000000E+00 0.  1.
         21   -1    0    0  501  502  0.00000000000E+00 -0.00000000000E+00 -0.13916729752E+03  0.13916729752E+03  0.00000000000E+00 0. -1.
         23    2    1    2    0    0 -0.38409057155E+02  0.97920133034E+01  0.47130839420E+02  0.11024683353E+03  0.91443474801E+02 0.  0.
         23    2    1    2    0    0  0.81041255138E+01  0.99435091261E+02 -0.17957515557E+02  0.13387512598E+03  0.87447485771E+02 0.  0.
        -11    1    4    4    0    0 -0.27615588822E+01  0.60865148789E+02  0.32808663048E+02  0.69199717598E+02  0.00000000000E+00 0. -1.
         11    1    4    4    0    0  0.10865684396E+02  0.38569942472E+02 -0.50766178606E+02  0.64675408386E+02  0.00000000000E+00 0.  1.
        -13    1    3    3    0    0  0.46759997239E+01 -0.21043543756E+02  0.52732922384E+02  0.56968910911E+02  0.00000000000E+00 0.  1.
         13    1    3    3    0    0 -0.43085056879E+02  0.30835557060E+02 -0.56020829645E+01  0.53277922622E+02  0.00000000000E+00 0. -1.
         -3    1    1    2    0  502  0.30304931641E+02 -0.10922710456E+03  0.69661873778E+02  0.13304783317E+03  0.00000000000E+00 0.  1.
<scales pt_clust_5="13000.00000" pt_clust_6="13000.00000" pt_clust_7="13000.00000" pt_clust_8="13000.00000" pt_clust_9="103.16460"></scales>
<clustering>
<clus scale="   87.447">  5  6 -1 -1</clus>
<clus scale="   91.443">  7  8 -1 -1</clus>
<clus scale="   99.665">  1  7  2 -1</clus>
<clus scale="  103.165">  2  9  1 -1</clus>
<clus scale="  103.165">  2  5  1 -1</clus>
</clustering>
</event>
<event>
 9    1  0.1636528E-005  0.9987403E+02  0.7546771E-02  0.1284350E+00
          4   -1    0    0  502    0 -0.00000000000E+00  0.00000000000E+00  0.22504036673E+03  0.22504036673E+03  0.00000000000E+00 0. -1.
         21   -1    0    0  501  502  0.00000000000E+00 -0.00000000000E+00 -0.23205348674E+03  0.23205348674E+03  0.00000000000E+00 0. -1.
         23    2    1    2    0    0 -0.22933329185E+02  0.17912930636E+02  0.16173132087E+03  0.19092536861E+03  0.97204246610E+02 0.  0.
         23    2    1    2    0    0  0.84132413641E+01  0.35042689168E+01  0.48395140763E+01  0.90666579435E+02  0.90077440011E+02 0.  0.
        -11    1    4    4    0    0  0.20047949581E+02  0.44027140797E+02  0.24302684995E+01  0.48437749887E+02  0.00000000000E+00 0. -1.
         11    1    4    4    0    0 -0.11634708217E+02 -0.40522871880E+02  0.24092455769E+01  0.42228829548E+02  0.00000000000E+00 0.  1.
        -11    1    3    3    0    0 -0.36508976192E+02  0.52628122030E+02  0.10700583130E+03  0.12471115629E+03  0.00000000000E+00 0. -1.
         11    1    3    3    0    0  0.13575647007E+02 -0.34715191394E+02  0.54725489569E+02  0.66214212324E+02  0.00000000000E+00 0.  1.
          4    1    1    2  501    0  0.14520087821E+02 -0.21417199553E+02 -0.17358395495E+03  0.17550190541E+03  0.00000000000E+00 0. -1.
<scales pt_clust_5="13000.00000" pt_clust_6="13000.00000" pt_clust_7="13000.00000" pt_clust_8="13000.00000" pt_clust_9="25.87527"></scales>
<clustering>
<clus scale="   25.875">  2  9  1 -1</clus>
<clus scale="   90.077">  5  6 -1 -1</clus>
<clus scale="   92.952">  2  5  1 -1</clus>
<clus scale="   97.204">  7  8 -1 -1</clus>
<clus scale="   25.875">  2  5  1 -1</clus>
</clustering>
</event>
<event>
 9    1  0.1636528E-005  0.1319762E+03  0.7546771E-02  0.1225162E+00
         -1   -1    0    0    0  501 -0.00000000000E+00  0.00000000000E+00  0.92199791431E+02  0.92199791431E+02  0.00000000000E+00 0.  1.
         21   -1    0    0  501  502  0.00000000000E+00 -0.00000000000E+00 -0.32902528498E+03  0.32902528498E+03  0.00000000000E+00 0.  1.
         23    2    1    2    0    0  0.98210290656E+01 -0.80329179737E+02 -0.20820608766E+02  0.12341153745E+03  0.90816739082E+02 0.  0.
         23    2    1    2    0    0 -0.31029158114E+02  0.12016021160E+03 -0.13790474018E+03  0.20761415745E+03  0.93191393941E+02 0.  0.
        -11    1    4    4    0    0 -0.14512044487E+02  0.13301351763E+03 -0.12445963072E+03  0.18273859742E+03  0.00000000000E+00 0.  1.
         11    1    4    4    0    0 -0.16517113627E+02 -0.12853306031E+02 -0.13445109462E+02  0.24875560032E+02  0.00000000000E+00 0. -1.
        -13    1    3    3    0    0 -0.33229437576E+02 -0.67806756448E+02 -0.43128011472E+01  0.75634330798E+02  0.00000000000E+00 0.  1.
         13    1    3    3    0    0  0.43050466642E+02 -0.12522423289E+02 -0.16507807619E+02  0.47777206652E+02  0.00000000000E+00 0. -1.
         -1    1    1    2    0  502  0.21208129048E+02 -0.39831031867E+02 -0.78100144602E+02  0.90199381506E+02  0.00000000000E+00 0.  1.
<scales pt_clust_5="13000.00000" pt_clust_6="13000.00000" pt_clust_7="13000.00000" pt_clust_8="13000.00000" pt_clust_9="45.12533"></scales>
<clustering>
<clus scale="   45.125">  2  9  1 -1</clus>
<clus scale="   90.817">  7  8 -1 -1</clus>
<clus scale="   93.191">  5  6 -1 -1</clus>
<clus scale="  130.310">  1  7  2 -1</clus>
<clus scale="   45.125">  2  5  1 -1</clus>
</clustering>
</event>
<event>
 9    1  0.1636528E-005  0.1107334E+03  0.7546771E-02  0.1259799E+00
         21   -1    0    0  501  502  0.00000000000E+00  0.00000000000E+00  0.94384462544E+02  0.94384462544E+02  0.00000000000E+00 0.  1.
          2   -1    0    0  502    0 -0.00000000000E+00 -0.00000000000E+00 -0.54558220292E+03  0.54558220292E+03  0.00000000000E+00 0. -1.
         23    2    1    2    0    0 -0.57613058376E+02  0.12343517480E+01 -0.46473955754E+03  0.47719324389E+03  0.91704675741E+02 0.  0.
         23    2    1    2    0    0  0.77621846336E+02 -0.11163957898E+02 -0.19025073401E+02  0.12328227022E+03  0.93202895604E+02 0.  0.
        -11    1    4    4    0    0  0.20754062046E+02 -0.81732266107E+01  0.37124061286E+02  0.43309683109E+02  0.00000000000E+00 0.  1.
         11    1    4    4    0    0  0.56867784290E+02 -0.29907312873E+01 -0.56149134687E+02  0.79972587114E+02  0.00000000000E+00 0. -1.
        -13    1    3    3    0    0 -0.59225312067E+02  0.38356444947E+02 -0.27999822742E+03  0.28875224989E+03  0.00000000000E+00 0. -1.
         13    1    3    3    0    0  0.16122536903E+01 -0.37122093199E+02 -0.18474133012E+03  0.18844099400E+03  0.00000000000E+00 0.  1.
          2    1    1    2  501    0 -0.20008787959E+02  0.99296061500E+01  0.32566890565E+02  0.39491151350E+02  0.00000000000E+00 0. -1.
<scales pt_clust_5="13000.00000" pt_clust_6="13000.00000" pt_clust_7="13000.00000" pt_clust_8="13000.00000" pt_clust_9="22.33716"></scales>
<clustering>
<clus scale="   22.337">  1  9  2 -1</clus>
<clus scale="   91.705">  7  8 -1 -1</clus>
<clus scale="   93.203">  5  6 -1 -1</clus>
<clus scale="  109.475">  2  7  1 -1</clus>
<clus scale="   22.337">  1  5  2 -1</clus>
</clustering>
</event>
<event>
 9    1  0.1636528E-005  0.1428878E+03  0.7546771E-02  0.1210511E+00
          2   -1    0    0  502    0 -0.00000000000E+00  0.00000000000E+00  0.35042917105E+03  0.35042917105E+03  0.00000000000E+00 0. -1.
         21   -1    0    0  501  502  0.00000000000E+00 -0.00000000000E+00 -0.13494655953E+03  0.13494655953E+03  0.00000000000E+00 0.  1.
         23    2    1    2    0    0 -0.90067147600E+02 -0.17181278854E+02  0.15296189465E+03  0.20257229013E+03  0.96077594122E+02 0.  0.
         23    2    1    2    0    0  0.16065771775E+03 -0.17693899487E+02  0.58650394264E+01  0.18580255156E+03  0.91456072116E+02 0.  0.
        -11    1    4    4    0    0  0.16239007140E+03  0.45100658633E+01 -0.11359273517E+01  0.16245665980E+03  0.00000000000E+00 0.  1.
         11    1    4    4    0    0 -0.17323536420E+01 -0.22203965351E+02  0.70009667782E+01  0.23345891764E+02  0.00000000000E+00 0. -1.
        -13    1    3    3    0    0  0.57334397252E+01 -0.32388980052E+02  0.21887123599E+02  0.39509043766E+02  0.00000000000E+00 0.  1.
         13    1    3    3    0    0 -0.95800587325E+02  0.15207701198E+02  0.13107477105E+03  0.16306324636E+03  0.00000000000E+00 0. -1.
          2    1    1    2  501    0 -0.70590570155E+02  0.34875178341E+02  0.56655677443E+02  0.97000888891E+02  0.00000000000E+00 0. -1.
<scales pt_clust_5="13000.00000" pt_clust_6="13000.00000" pt_clust_7="13000.00000" pt_clust_8="13000.00000" pt_clust_9="78.73572"></scales>
<clustering>
<clus scale="   78.736">  2  9  1 -1</clus>
<clus scale="   91.456">  5  6 -1 -1</clus>
<clus scale="   96.078">  7  8 -1 -1</clus>
<clus scale="  139.822">  2  5  1 -1</clus>
<clus scale="   78.736">  2  5  1 -1</clus>
</clustering>
</event>
<event>
 9    1  0.1636528E-005  0.2561954E+03  0.7546771E-02  0.1147470E+00
         -1   -1    0    0    0  501 -0.00000000000E+00  0.00000000000E+00  0.28475303246E+03  0.28475303246E+03  0.00000000000E+00 0.  1.
         21   -1    0    0  501  502  0.00000000000E+00 -0.00000000000E+00 -0.49805814320E+03  0.49805814320E+03  0.00000000000E+00 0.  1.
         23    2    1    2    0    0  0.42336498659E+02 -0.14848399409E+02  0.83197656418E+02  0.13040508882E+03  0.89837537100E+02 0.  0.
         23    2    1    2    0    0  0.20149268057E+03  0.64119931564E+02  0.40784149828E+02  0.23330846470E+03  0.89770969005E+02 0.  0.
        -13    1    4    4    0    0  0.28024689888E+02 -0.40165966154E+01 -0.22842144898E+02  0.36376914042E+02  0.00000000000E+00 0. -1.
         13    1    4    4    0    0  0.17346799068E+03  0.68136528179E+02  0.63626294726E+02  0.19693155065E+03  0.00000000000E+00 0.  1.
        -13    1    3    3    0    0 -0.22384612300E+02 -0.11371692877E+00 -0.19182125968E+01  0.22466938797E+02  0.00000000000E+00 0. -1.
         13    1    3    3    0    0  0.64721110959E+02 -0.14734682481E+02  0.85115869015E+02  0.10793815002E+03  0.00000000000E+00 0.  1.
         -1    1    1    2    0  502 -0.24382917923E+03 -0.49271532154E+02 -0.33728691699E+03  0.41909762215E+03  0.00000000000E+00 0.  1.
<scales pt_clust_5="13000.00000" pt_clust_6="13000.00000" pt_clust_7="13000.00000" pt_clust_8="13000.00000" pt_clust_9="239.95262"></scales>
<clustering>
<clus scale="   89.771">  5  6 -1 -1</clus>
<clus scale="   89.838">  7  8 -1 -1</clus>
<clus scale="  100.417">  1  7  2 -1</clus>
<clus scale="  239.953">  2  9  1 -1</clus>
<clus scale="  239.953">  2  5  1 -1</clus>
</clustering>
</event>
<event>
 9    1  0.1636528E-005  0.1159985E+03  0.7546771E-02  0.1252093E+00
          1   -1    0    0  502    0 -0.00000000000E+00  0.00000000000E+00  0.86892361424E+02  0.86892361424E+02  0.00000000000E+00 0. -1.
         21   -1    0    0  501  502  0.00000000000E+00 -0.00000000000E+00 -0.32970296047E+03  0.32970296047E+03  0.00000000000E+00 0. -1.
         23    2    1    2    0    0  0.19706556087E+02  0.75731425705E+02 -0.11544136500E+01  0.11619866410E+03  0.85890626236E+02 0.  0.
         23    2    1    2    0    0 -0.19780093105E+02 -0.52737910885E+02 -0.73755189942E+02  0.13092851505E+03  0.92357504741E+02 0.  0.
        -11    1    4    4    0    0  0.16545609465E+02  0.17273383538E+02 -0.15076727711E+01  0.23966644500E+02  0.00000000000E+00 0. -1.
         11    1    4    4    0    0 -0.36325702570E+02 -0.70011294423E+02 -0.72247517171E+02  0.10696187055E+03  0.00000000000E+00 0.  1.
        -13    1    3    3    0    0  0.24486456799E+02 -0.93576544575E+01  0.13876776995E+02  0.29660027028E+02  0.00000000000E+00 0.  1.
         13    1    3    3    0    0 -0.47799007126E+01  0.85089080163E+02 -0.15031190645E+02  0.86538637070E+02  0.00000000000E+00 0. -1.
          1    1    1    2  501    0  0.73537017956E-01 -0.22993514820E+02 -0.16790099546E+03  0.16946814275E+03  0.00000000000E+00 0. -1.
<scales pt_clust_5="13000.00000" pt_clust_6="13000.00000" pt_clust_7="13000.00000" pt_clust_8="13000.00000" pt_clust_9="22.99363"></scales>
<clustering>
<clus scale="   22.994">  2  9  1 -1</clus>
<clus scale="   85.891">  7  8 -1 -1</clus>
<clus scale="   92.358">  5  6 -1 -1</clus>
<clus scale="  110.919">  1  7  2 -1</clus>
<clus scale="   22.994">  2  5  1 -1</clus>
</clustering>
</event>
<event>
 9    1  0.1636528E-005  0.9889741E+02  0.7546771E-02  0.1282657E+00
          1   -1    0    0  502    0 -0.00000000000E+00  0.00000000000E+00  0.86399857970E+02  0.86399857970E+02  0.00000000000E+00 0. -1.
         21   -1    0    0  501  502  0.00000000000E+00 -0.00000000000E+00 -0.29020685529E+03  0.29020685529E+03  0.00000000000E+00 0.  1.
         23    2    1    2    0    0  0.30264960424E+02  0.30265962187E+02  0.29645818085E+02  0.10479073816E+03  0.90940793804E+02 0.  0.
         23    2    1    2    0    0 -0.35991717377E+02  0.75011388366E+01 -0.14055816330E+03  0.17137412100E+03  0.90889060262E+02 0.  0.
        -11    1    4    4    0    0 -0.36483679437E+02  0.44591074668E+02 -0.62818504117E+02  0.85238414256E+02  0.00000000000E+00 0.  1.
         11    1    4    4    0    0  0.49196206082E+00 -0.37089935832E+02 -0.77739659186E+02  0.86135706748E+02  0.00000000000E+00 0. -1.
        -13    1    3    3    0    0  0.30400060649E+02  0.58066963883E+02  0.19857258954E+01  0.65573463302E+02  0.00000000000E+00 0.  1.
         13    1    3    3    0    0 -0.13510022476E+00 -0.27801001696E+02  0.27660092190E+02  0.39217274859E+02  0.00000000000E+00 0. -1.
          1    1    1    2  501    0  0.57267569527E+01 -0.37767101024E+02 -0.92894652106E+02  0.10044185410E+03  0.00000000000E+00 0. -1.
<scales pt_clust_5="13000.00000" pt_clust_6="13000.00000" pt_clust_7="13000.00000" pt_clust_8="13000.00000" pt_clust_9="38.19882"></scales>
<clustering>
<clus scale="   38.199">  2  9  1 -1</clus>
<clus scale="   90.889">  5  6 -1 -1</clus>
<clus scale="   90.941">  7  8 -1 -1</clus>
<clus scale="   98.850">  2  5  1 -1</clus>
<clus scale="   38.199">  2  5  1 -1</clus>
</clustering>
</event>
<event>
 9    1  0.1636528E-005  0.9645418E+02  0.7546771E-02  0.1288327E+00
         21   -1    0    0  501  502  0.00000000000E+00  0.00000000000E+00  0.66352314686E+02  0.66352314686E+02  0.00000000000E+00 0.  1.
          1   -1    0    0  502    0 -0.00000000000E+00 -0.00000000000E+00 -0.30225659993E+03  0.30225659993E+03  0.00000000000E+00 0. -1.
         23    2    1    2    0    0 -0.32140962775E+02 -0.24894525584E+01 -0.16530335097E+03  0.19064986908E+03  0.89347276833E+02 0.  0.
         23    2    1    2    0    0  0.23505794768E+02  0.52901446822E+02 -0.67758253273E+02  0.12673389422E+03  0.90106678959E+02 0.  0.
        -11    1    4    4    0    0  0.34915453586E+02 -0.14531638319E+02 -0.32097765282E+02  0.49603668689E+02  0.00000000000E+00 0. -1.
         11    1    4    4    0    0 -0.11409658818E+02  0.67433085141E+02 -0.35660487992E+02  0.77130225527E+02  0.00000000000E+00 0.  1.
        -11    1    3    3    0    0  0.19980941738E+02  0.25853459091E+02 -0.37444791364E+02  0.49696597268E+02  0.00000000000E+00 0.  1.
         11    1    3    3    0    0 -0.52121904513E+02 -0.28342911650E+02 -0.12785855961E+03  0.14095327182E+03  0.00000000000E+00 0. -1.
          1    1    1    2  501    0  0.86351680067E+01 -0.50411994263E+02 -0.28426810002E+01  0.51225151316E+02  0.00000000000E+00 0. -1.
<scales pt_clust_5="13000.00000" pt_clust_6="13000.00000" pt_clust_7="13000.00000" pt_clust_8="13000.00000" pt_clust_9="51.14621"></scales>
<clustering>
<clus scale="   51.146">  1  9  2 -1</clus>
<clus scale="   89.347">  7  8 -1 -1</clus>
<clus scale="   90.107">  5  6 -1 -1</clus>
<clus scale="   95.745">  2  7  1 -1</clus>
<clus scale="   51.146">  1  5  2 -1</clus>
</clustering>
</event>
<event>
 9    1  0.1636528E-005  0.1112976E+03  0.7546771E-02  0.1258743E+00
         -1   -1    0    0    0  501 -0.00000000000E+00  0.00000000000E+00  0.11195435757E+03  0.11195435757E+03  0.00000000000E+00 0.  1.
         21   -1    0    0  501  502  0.00000000000E+00 -0.00000000000E+00 -0.20734265607E+03  0.20734265607E+03  0.00000000000E+00 0. -1.
         23    2    1    2    0    0  0.30251138866E+02 -0.57141609301E+02 -0.82868784911E+01  0.11185998223E+03  0.90904831303E+02 0.  0.
         23    2    1    2    0    0 -0.75860017749E+02  0.10515387585E+02 -0.38231092128E+02  0.12593559994E+03  0.92373390421E+02 0.  0.
        -13    1    3    3    0    0  0.43953999919E+01 -0.63406828674E+02 -0.36326607808E+02  0.73207703819E+02  0.00000000000E+00 0. -1.
         13    1    3    3    0    0  0.25855738874E+02  0.62652193735E+01  0.28039729317E+02  0.38652278415E+02  0.00000000000E+00 0.  1.
        -13    1    4    4    0    0 -0.24262545623E+02 -0.26814046119E+02  0.18524558471E+02  0.40630326800E+02  0.00000000000E+00 0. -1.
         13    1    4    4    0    0 -0.51597472126E+02  0.37329433703E+02 -0.56755650599E+02  0.85305273139E+02  0.00000000000E+00 0.  1.
         -1    1    1    2    0  502  0.45608878883E+02  0.46626221716E+02 -0.48870327877E+02  0.81501431467E+02  0.00000000000E+00 0.  1.
<scales pt_clust_5="13000.00000" pt_clust_6="13000.00000" pt_clust_7="13000.00000" pt_clust_8="13000.00000" pt_clust_9="65.22403"></scales>
<clustering>
<clus scale="   65.224">  2  9  1 -1</clus>
<clus scale="   90.905">  5  6 -1 -1</clus>
<clus scale="   92.373">  7  8 -1 -1</clus>
<clus scale="  110.082">  1  5  2 -1</clus>
<clus scale="   65.224">  2  5  1 -1</clus>
</clustering>
</event>
<event>
 9    1  0.1636528E-005  0.9348561E+02  0.7546771E-02  0.1296684E+00
         21   -1    0    0  501  502  0.00000000000E+00  0.00000000000E+00  0.29602842977E+03  0.29602842977E+03  0.00000000000E+00 0.  1.
          1   -1    0    0  502    0 -0.00000000000E+00 -0.00000000000E+00 -0.37783149461E+02  0.37783149461E+02  0.00000000000E+00 0. -1.
         23    2    1    2    0    0 -0.15493446118E+02 -0.64771081959E+01  0.10840675650E+03  0.14401192914E+03  0.93302792435E+02 0.  0.
         23    2    1    2    0    0 -0.99017819555E+01  0.38581295960E+01  0.10875211732E+03  0.14142745296E+03  0.89787365359E+02 0.  0.
        -11    1    4    4    0    0 -0.16808612732E+02  0.39703384982E+02  0.91294453692E+02  0.10096318892E+03  0.00000000000E+00 0.  1.
         11    1    4    4    0    0  0.69068307765E+01 -0.35845255386E+02  0.17457663630E+02  0.40464264042E+02  0.00000000000E+00 0. -1.
        -13    1    3    3    0    0 -0.39587019262E+02  0.10190238471E+02  0.11052950479E+02  0.42345492894E+02  0.00000000000E+00 0.  1.
         13    1    3    3    0    0  0.24093573144E+02 -0.16667346667E+02  0.97353806026E+02  0.10166643625E+03  0.00000000000E+00 0. -1.
          1    1    1    2  501    0  0.25395228073E+02  0.26189785999E+01  0.41086406487E+02  0.48372197137E+02  0.00000000000E+00 0. -1.
<scales pt_clust_5="13000.00000" pt_clust_6="13000.00000" pt_clust_7="13000.00000" pt_clust_8="13000.00000" pt_clust_9="25.52992"></scales>
<clustering>
<clus scale="   25.530">  1  9  2 -1</clus>
<clus scale="   89.787">  5  6 -1 -1</clus>
<clus scale="   89.977">  1  5  2 -1</clus>
<clus scale="   93.303">  7  8 -1 -1</clus>
<clus scale="   25.530">  1  5  2 -1</clus>
</clustering>
</event>
<event>
 9    1  0.1636528E-005  0.1057619E+03  0.7546771E-02  0.1270803E+00
          2   -1    0    0  502    0 -0.00000000000E+00  0.00000000000E+00  0.36576724397E+03  0.36576724397E+03  0.00000000000E+00 0. -1.
         21   -1    0    0  501  502  0.00000000000E+00 -0.00000000000E+00 -0.80122700147E+02  0.80122700147E+02  0.00000000000E+00 0.  1.
         23    2    1    2    0    0 -0.50695336909E+02 -0.11151344731E+02  0.24109317160E+03  0.26268475873E+03  0.90459910485E+02 0.  0.
         23    2    1    2    0    0  0.27674424529E+02  0.22016100739E+02  0.86929962496E+02  0.13376886025E+03  0.95324221096E+02 0.  0.
        -11    1    3    3    0    0 -0.44403237054E+02  0.22884144932E+02  0.58888398759E+02  0.77221597099E+02  0.00000000000E+00 0. -1.
         11    1    3    3    0    0 -0.62920998546E+01 -0.34035489663E+02  0.18220477284E+03  0.18546316163E+03  0.00000000000E+00 0.  1.
        -13    1    4    4    0    0  0.47693615778E+02  0.15463606198E+02  0.64179576067E+01  0.50546951268E+02  0.00000000000E+00 0.  1.
         13    1    4    4    0    0 -0.20019191249E+02  0.65524945409E+01  0.80512004890E+02  0.83221908980E+02  0.00000000000E+00 0. -1.
          2    1    1    2  501    0  0.23020912380E+02 -0.10864756008E+02 -0.42378590270E+02  0.49436325138E+02  0.00000000000E+00 0. -1.
<scales pt_clust_5="13000.00000" pt_clust_6="13000.00000" pt_clust_7="13000.00000" pt_clust_8="13000.00000" pt_clust_9="25.45595"></scales>
<clustering>
<clus scale="   25.456">  2  9  1 -1</clus>
<clus scale="   90.460">  5  6 -1 -1</clus>
<clus scale="   95.324">  7  8 -1 -1</clus>
<clus scale="  101.400">  1  5  2 -1</clus>
<clus scale="   25.456">  2  5  1 -1</clus>
</clustering>
</event>
<event>
 9    1  0.1636528E-005  0.1349111E+03  0.7546771E-02  0.1222028E+00
         21   -1    0    0  501  502  0.00000000000E+00  0.00000000000E+00  0.17256309327E+03  0.17256309327E+03  0.00000000000E+00 0. -1.
         -2   -1    0    0    0  501 -0.00000000000E+00 -0.00000000000E+00 -0.20906428093E+03  0.20906428093E+03  0.00000000000E+00 0.  1.
         23    2    1    2    0    0 -0.61275434945E+02  0.11303152107E+03 -0.98517551646E+02  0.18816418701E+03  0.95756198785E+02 0.  0.
         23    2    1    2    0    0  0.24621428923E+02 -0.39852803918E+02  0.25242373041E+02  0.10373600506E+03  0.89047855715E+02 0.  0.
        -11    1    3    3    0    0  0.87942559691E+00  0.21747656912E+02  0.17545102946E+02  0.27956477030E+02  0.00000000000E+00 0. -1.
         11    1    3    3    0    0 -0.62154860542E+02  0.91283864163E+02 -0.11606265459E+03  0.16020770998E+03  0.00000000000E+00 0.  1.
        -13    1    4    4    0    0 -0.27463051493E+02 -0.21565007023E+02 -0.12251530192E+02  0.37004982330E+02  0.00000000000E+00 0.  1.
         13    1    4    4    0    0  0.52084480415E+02 -0.18287796895E+02  0.37493903233E+02  0.66731022734E+02  0.00000000000E+00 0. -1.
         -2    1    1    2    0  502  0.36654006022E+02 -0.73178717157E+02  0.36773990952E+02  0.89727182129E+02  0.00000000000E+00 0.  1.
<scales pt_clust_5="13000.00000" pt_clust_6="13000.00000" pt_clust_7="13000.00000" pt_clust_8="13000.00000" pt_clust_9="81.84522"></scales>
<clustering>
<clus scale="   81.845">  1  9  2 -1</clus>
<clus scale="   89.048">  7  8 -1 -1</clus>
<clus scale="   95.756">  5  6 -1 -1</clus>
<clus scale="  130.235">  1  7  2 -1</clus>
<clus scale="   81.845">  1  5  2 -1</clus>
</clustering>
</event>
<event>
 9    1  0.1636528E-005  0.1769195E+03  0.7546771E-02  0.1195144E+00
         21   -1    0    0  501  502  0.00000000000E+00  0.00000000000E+00  0.79171190056E+02  0.79171190056E+02  0.00000000000E+00 0. -1.
         -2   -1    0    0    0  501 -0.00000000000E+00 -0.00000000000E+00 -0.85333264292E+03  0.85333264292E+03  0.00000000000E+00 0.  1.
         23    2    1    2    0    0 -0.43166367605E+02  0.21224877899E+02 -0.16370578132E+02  0.10397754914E+03  0.90716614585E+02 0.  0.
         23    2    1    2    0    0 -0.11595907924E+03  0.42135663804E+02 -0.46264697810E+03  0.48728533408E+03  0.90459097040E+02 0.  0.
        -11    1    3    3    0    0 -0.11927880746E+02  0.49663283951E+02  0.12781846090E+02  0.52650657178E+02  0.00000000000E+00 0. -1.
         11    1    3    3    0    0 -0.31238486859E+02 -0.28438406051E+02 -0.29152424222E+02  0.51326891957E+02  0.00000000000E+00 0.  1.
        -13    1    4    4    0    0  0.11420903836E+02  0.17273328897E+02 -0.99811572473E+02  0.10193701455E+03  0.00000000000E+00 0. -1.
         13    1    4    4    0    0 -0.12737998307E+03  0.24862334907E+02 -0.36283540563E+03  0.38534831953E+03  0.00000000000E+00 0.  1.
         -2    1    1    2    0  502  0.15912544684E+03 -0.63360541703E+02 -0.29514389663E+03  0.34124094976E+03  0.00000000000E+00 0.  1.
<scales pt_clust_5="13000.00000" pt_clust_6="13000.00000" pt_clust_7="13000.00000" pt_clust_8="13000.00000" pt_clust_9="152.04493"></scales>
<clustering>
<clus scale="   90.459">  7  8 -1 -1</clus>
<clus scale="   90.717">  5  6 -1 -1</clus>
<clus scale="  102.681">  2  5  1 -1</clus>
<clus scale="  152.045">  1  9  2 -1</clus>
<clus scale="  152.045">  1  5  2 -1</clus>
</clustering>
</event>
<event>
 9    1  0.1636528E-005  0.1038651E+03  0.7546771E-02  0.1274704E+00
          1   -1    0    0  502    0 -0.00000000000E+00  0.00000000000E+00  0.61929144032E+02  0.61929144032E+02  0.00000000000E+00 0. -1.
         21   -1    0    0  501  502  0.00000000000E+00 -0.00000000000E+00 -0.25369091373E+03  0.25369091373E+03  0.00000000000E+00 0.  1.
         23    2    1    2    0    0  0.13866696656E+02 -0.38007293368E+02 -0.25396600805E+02  0.10008179702E+03  0.87946228670E+02 0.  0.
         23    2    1    2    0    0 -0.42623582152E+01  0.60386297871E+02 -0.12216203236E+03  0.16507064302E+03  0.93059563547E+02 0.  0.
        -11    1    3    3    0    0 -0.33011762688E+02 -0.32802360203E+01  0.61791193631E+01  0.33744895024E+02  0.00000000000E+00 0.  1.
         11    1    3    3    0    0  0.46878459343E+02 -0.34727057348E+02 -0.31575720168E+02  0.66336901997E+02  0.00000000000E+00 0. -1.
        -13    1    4    4    0    0  0.33973586343E+02  0.57401883474E+02 -0.50041279139E+02  0.83386512178E+02  0.00000000000E+00 0. -1.
         13    1    4    4    0    0 -0.38235944558E+02  0.29844143963E+01 -0.72120753226E+02  0.81684130842E+02  0.00000000000E+00 0.  1.
          1    1    1    2  501    0 -0.96043384403E+01 -0.22379004503E+02 -0.44203136532E+02  0.50467617723E+02  0.00000000000E+00 0. -1.
<scales pt_clust_5="13000.00000" pt_clust_6="13000.00000" pt_clust_7="13000.00000" pt_clust_8="13000.00000" pt_clust_9="24.35289"></scales>
<clustering>
<clus scale="   24.353">  2  9  1 -1</clus>
<clus scale="   87.946">  5  6 -1 -1</clus>
<clus scale="   93.060">  7  8 -1 -1</clus>
<clus scale="   99.310">  1  5  2 -1</clus>
<clus scale="   24.353">  2  5  1 -1</clus>
</clustering>
</event>
<event>
 9    1  0.1636528E-005  0.9585692E+02  0.7546771E-02  0.1290411E+00
         21   -1    0    0  501  502  0.00000000000E+00  0.00000000000E+00  0.12047769137E+03  0.12047769137E+03  0.00000000000E+00 0. -1.
          1   -1    0    0  502    0 -0.00000000000E+00 -0.00000000000E+00 -0.32560655584E+03  0.32560655584E+03  0.00000000000E+00 0. -1.
         23    2    1    2    0    0 -0.21751562146E+02  0.30228644200E+02 -0.18683178415E+03  0.21180049276E+03  0.92555020269E+02 0.  0.
         23    2    1    2    0    0  0.48365721594E+01 -0.70640196276E+01 -0.10740887963E+03  0.14066949542E+03  0.90432000507E+02 0.  0.
        -11    1    3    3    0    0 -0.37932097340E+02  0.45935832168E+02 -0.66113590412E+02  0.88994109484E+02  0.00000000000E+00 0. -1.
         11    1    3    3    0    0  0.16180535195E+02 -0.15707187968E+02 -0.12071819374E+03  0.12280638327E+03  0.00000000000E+00 0.  1.
        -11    1    4    4    0    0 -0.28024234638E+02  0.22525496236E+02 -0.82317249528E+02  0.89826974109E+02  0.00000000000E+00 0. -1.
         11    1    4    4    0    0  0.32860806797E+02 -0.29589515864E+02 -0.25091630102E+02  0.50842521314E+02  0.00000000000E+00 0.  1.
          1    1    1    2  501    0  0.16914989986E+02 -0.23164624572E+02  0.89111799306E+02  0.93614259028E+02  0.00000000000E+00 0. -1.
<scales pt_clust_5="13000.00000" pt_clust_6="13000.00000" pt_clust_7="13000.00000" pt_clust_8="13000.00000" pt_clust_9="28.68304"></scales>
<clustering>
<clus scale="   28.683">  1  9  2 -1</clus>
<clus scale="   90.432">  7  8 -1 -1</clus>
<clus scale="   92.555">  5  6 -1 -1</clus>
<clus scale="   93.809">  1  7  2 -1</clus>
<clus scale="   28.683">  1  5  2 -1</clus>
</clustering>
</event>
<event>
 9    1  0.1636528E-005  0.9887514E+02  0.7546771E-02  0.1283029E+00
          2   -1    0    0  502    0 -0.00000000000E+00  0.00000000000E+00  0.18838570713E+03  0.18838570713E+03  0.00000000000E+00 0. -1.
         21   -1    0    0  501  502  0.00000000000E+00 -0.00000000000E+00 -0.11863876643E+03  0.11863876643E+03  0.00000000000E+00 0. -1.
         23    2    1    2    0    0  0.10302466215E+02  0.23303443142E+02  0.50533325726E+02  0.10632575802E+03  0.90013102035E+02 0.  0.
         23    2    1    2    0    0 -0.69926970861E+02 -0.36320420237E+01  0.56397004003E+02  0.12772851617E+03  0.90724741941E+02 0.  0.
        -11    1    3    3    0    0  0.26942565004E+02  0.50242207959E+02  0.15450398162E+02  0.59066877968E+02  0.00000000000E+00 0.  1.
         11    1    3    3    0    0 -0.16640098788E+02 -0.26938764817E+02  0.35082927565E+02  0.47258880055E+02  0.00000000000E+00 0. -1.
        -11    1    4    4    0    0 -0.34946801145E+01  0.27323916315E+02 -0.95307431689E+01  0.29148657898E+02  0.00000000000E+00 0.  1.
         11    1    4    4    0    0 -0.66432290747E+02 -0.30955958339E+02  0.65927747172E+02  0.98579858276E+02  0.00000000000E+00 0. -1.
          2    1    1    2  501    0  0.59624504646E+02 -0.19671401118E+02 -0.37183389030E+02  0.72970199369E+02  0.00000000000E+00 0. -1.
<scales pt_clust_5="13000.00000" pt_clust_6="13000.00000" pt_clust_7="13000.00000" pt_clust_8="13000.00000" pt_clust_9="62.78571"></scales>
<clustering>
<clus scale="   62.786">  2  9  1 -1</clus>
<clus scale="   90.013">  5  6 -1 -1</clus>
<clus scale="   90.725">  7  8 -1 -1</clus>
<clus scale="   98.223">  1  5  2 -1</clus>
<clus scale="   62.786">  2  5  1 -1</clus>
</clustering>
</event>
<event>
 9    1  0.1636528E-005  0.1764352E+03  0.7546771E-02  0.1174679E+00
         21   -1    0    0  501  502  0.00000000000E+00  0.00000000000E+00  0.15712138608E+03  0.15712138608E+03  0.00000000000E+00 0. -1.
          2   -1    0    0  502    0 -0.00000000000E+00 -0.00000000000E+00 -0.43690255183E+03  0.43690255183E+03  0.00000000000E+00 0. -1.
         23    2    1    2    0    0 -0.82522251101E+02  0.12727887757E+03 -0.33712471859E+03  0.38284570887E+03  0.99538566956E+02 0.  0.
         23    2    1    2    0    0  0.38934373981E+02 -0.12209010357E+03  0.12586330559E+02  0.14848823500E+03  0.73949045617E+02 0.  0.
        -11    1    4    4    0    0  0.24818897454E+02 -0.28274014388E+01 -0.88384961048E+01  0.26496997625E+02  0.00000000000E+00 0.  1.
         11    1    4    4    0    0  0.14115476527E+02 -0.11926270213E+03  0.21424826664E+02  0.12199123737E+03  0.00000000000E+00 0. -1.
        -13    1    3    3    0    0  0.86454887278E+01  0.37638858515E+02 -0.26221997632E+02  0.46679988276E+02  0.00000000000E+00 0.  1.
         13    1    3    3    0    0 -0.91167739829E+02  0.89640019059E+02 -0.31090272096E+03  0.33616572059E+03  0.00000000000E+00 0. -1.
          2    1    1    2  501    0  0.43587877120E+02 -0.51887740009E+01  0.44757222277E+02  0.62689994045E+02  0.00000000000E+00 0. -1.
<scales pt_clust_5="13000.00000" pt_clust_6="13000.00000" pt_clust_7="13000.00000" pt_clust_8="13000.00000" pt_clust_9="43.89563"></scales>
<clustering>
<clus scale="   43.896">  1  9  2 -1</clus>
<clus scale="   73.949">  5  6 -1 -1</clus>
<clus scale="   99.539">  7  8 -1 -1</clus>
<clus scale="  163.371">  1  5  2 -1</clus>
<clus scale="   43.896">  1  5  2 -1</clus>
</clustering>
</event>
<event>
 9    1  0.1636528E-005  0.1441949E+03  0.7546771E-02  0.1227743E+00
          3   -1    0    0  502    0 -0.00000000000E+00  0.00000000000E+00  0.21320631677E+03  0.21320631677E+03  0.00000000000E+00 0. -1.
         21   -1    0    0  501  502  0.00000000000E+00 -0.00000000000E+00 -0.16314792839E+03  0.16314792839E+03  0.00000000000E+00 0. -1.
         23    2    1    2    0    0  0.30719481700E+01  0.25206216332E+02  0.70278975207E+02  0.11792611934E+03  0.91228532049E+02 0.  0.
         23    2    1    2    0    0 -0.11892861369E+02  0.96649344511E+02  0.63490911180E+01  0.13339799343E+03  0.90951513165E+02 0.  0.
        -11    1    3    3    0    0  0.14829074341E+02  0.55448362929E+02  0.61897369226E+02  0.84413901192E+02  0.00000000000E+00 0.  1.
         11    1    3    3    0    0 -0.11757126171E+02 -0.30242146597E+02  0.83816059804E+01  0.33512218151E+02  0.00000000000E+00 0. -1.
        -13    1    4    4    0    0  0.24848925485E+02 -0.48164913196E+01  0.21606631177E+01  0.25403467313E+02  0.00000000000E+00 0.  1.
         13    1    4    4    0    0 -0.36741786854E+02  0.10146583583E+03  0.41884280003E+01  0.10799452612E+03  0.00000000000E+00 0. -1.
          3    1    1    2  501    0  0.88209131989E+01 -0.12185556084E+03 -0.26569677939E+02  0.12503013238E+03  0.00000000000E+00 0. -1.
<scales pt_clust_5="13000.00000" pt_clust_6="13000.00000" pt_clust_7="13000.00000" pt_clust_8="13000.00000" pt_clust_9="111.89277"></scales>
<clustering>
<clus scale="   90.952">  7  8 -1 -1</clus>
<clus scale="   91.229">  5  6 -1 -1</clus>
<clus scale="   94.697">  1  5  2 -1</clus>
<clus scale="  111.893">  2  9  1 -1</clus>
<clus scale="  111.893">  2  5  1 -1</clus>
</clustering>
</event>
<event>
 9    1  0.1636528E-005  0.1133344E+03  0.7546771E-02  0.1255060E+00
         21   -1    0    0  501  502  0.00000000000E+00  0.00000000000E+00  0.25090199990E+03  0.25090199990E+03  0.00000000000E+00 0. -1.
          1   -1    0    0  502    0 -0.00000000000E+00 -0.00000000000E+00 -0.18174587977E+03  0.18174587977E+03  0.00000000000E+00 0. -1.
         23    2    1    2    0    0  0.60119211516E+02  0.15728605762E+02 -0.81368302476E+02  0.13623155376E+03  0.89869499604E+02 0.  0.
         23    2    1    2    0    0 -0.85359463846E+02  0.96437506287E+01 -0.17652719448E+02  0.12447337631E+03  0.88333249183E+02 0.  0.
        -11    1    3    3    0    0 -0.23205679586E+02 -0.34495726961E+01 -0.13506346264E+02  0.27070731542E+02  0.00000000000E+00 0.  1.
         11    1    3    3    0    0  0.83324891101E+02  0.19178178458E+02 -0.67861956212E+02  0.10916082222E+03  0.00000000000E+00 0. -1.
        -13    1    4    4    0    0  0.12546700983E+02  0.20497045530E+02 -0.87118019709E+01  0.25562552193E+02  0.00000000000E+00 0.  1.
         13    1    4    4    0    0 -0.97906164829E+02 -0.10853294901E+02 -0.89409174769E+01  0.98910824115E+02  0.00000000000E+00 0. -1.
          1    1    1    2  501    0  0.25240252330E+02 -0.25372356390E+02  0.16817714206E+03  0.17194294960E+03  0.00000000000E+00 0. -1.
<scales pt_clust_5="13000.00000" pt_clust_6="13000.00000" pt_clust_7="13000.00000" pt_clust_8="13000.00000" pt_clust_9="35.78864"></scales>
<clustering>
<clus scale="   35.789">  1  9  2 -1</clus>
<clus scale="   88.333">  7  8 -1 -1</clus>
<clus scale="   89.869">  5  6 -1 -1</clus>
<clus scale="  112.120">  1  7  2 -1</clus>
<clus scale="   35.789">  1  5  2 -1</clus>
</clustering>
</event>
<event>
 9    1  0.1636528E-005  0.1162286E+03  0.7546771E-02  0.1250718E+00
         21   -1    0    0  501  502  0.00000000000E+00  0.00000000000E+00  0.18867573153E+03  0.18867573153E+03  0.00000000000E+00 0. -1.
          2   -1    0    0  502    0 -0.00000000000E+00 -0.00000000000E+00 -0.26493041804E+03  0.26493041804E+03  0.00000000000E+00 0. -1.
         23    2    1    2    0    0  0.21193105762E+02 -0.61809780624E+02 -0.21227679461E+03  0.24230827202E+03  0.96862089816E+02 0.  0.
         23    2    1    2    0    0 -0.47920671080E+02  0.43088361099E+02  0.59478741330E+02  0.12808885584E+03  0.93359716913E+02 0.  0.
        -11    1    3    3    0    0 -0.24452087648E+02 -0.44687519684E+02 -0.17101254643E+03  0.17843814066E+03  0.00000000000E+00 0. -1.
         11    1    3    3    0    0  0.45645193410E+02 -0.17122260940E+02 -0.41264248180E+02  0.63870131352E+02  0.00000000000E+00 0.  1.
        -13    1    4    4    0    0  0.98635317543E+01  0.49660391349E+02  0.45964452251E+02  0.68382560630E+02  0.00000000000E+00 0.  1.
         13    1    4    4    0    0 -0.57784202834E+02 -0.65720302492E+01  0.13514289079E+02  0.59706295214E+02  0.00000000000E+00 0. -1.
          2    1    1    2  501    0  0.26727565318E+02  0.18721419524E+02  0.76543366777E+02  0.83209021713E+02  0.00000000000E+00 0. -1.
<scales pt_clust_5="13000.00000" pt_clust_6="13000.00000" pt_clust_7="13000.00000" pt_clust_8="13000.00000" pt_clust_9="32.63211"></scales>
<clustering>
<clus scale="   32.632">  1  9  2 -1</clus>
<clus scale="   93.360">  7  8 -1 -1</clus>
<clus scale="   96.862">  5  6 -1 -1</clus>
<clus scale="  113.326">  1  7  2 -1</clus>
<clus scale="   32.632">  1  5  2 -1</clus>
</clustering>
</event>
<event>
 9    1  0.1636528E-005  0.9367413E+02  0.7546771E-02  0.1294863E+00
         -1   -1    0    0    0  501 -0.00000000000E+00  0.00000000000E+00  0.95407878683E+02  0.95407878683E+02  0.00000000000E+00 0.  1.
         21   -1    0    0  501  502  0.00000000000E+00 -0.00000000000E+00 -0.31859500537E+03  0.31859500537E+03  0.00000000000E+00 0.  1.
         23    2    1    2    0    0  0.10834930253E+02 -0.26087131797E+02  0.24848176653E+02  0.97861643002E+02  0.90341215008E+02 0.  0.
         23    2    1    2    0    0  0.28947021761E+02  0.71319773584E+01 -0.41280935603E+02  0.10474287265E+03  0.91532281497E+02 0.  0.
        -11    1    3    3    0    0 -0.32076272676E+02 -0.38317431179E+02  0.11340031512E+02  0.51241673623E+02  0.00000000000E+00 0. -1.
         11    1    3    3    0    0  0.42911202929E+02  0.12230299382E+02  0.13508145141E+02  0.46619969380E+02  0.00000000000E+00 0.  1.
        -13    1    4    4    0    0  0.62112083049E+02  0.79189377265E+01 -0.21970490003E+02  0.66357538128E+02  0.00000000000E+00 0.  1.
         13    1    4    4    0    0 -0.33165061288E+02 -0.78696036814E+00 -0.19310445600E+02  0.38385334519E+02  0.00000000000E+00 0. -1.
         -1    1    1    2    0  502 -0.39781952014E+02  0.18955154439E+02 -0.20675436774E+03  0.21139836841E+03  0.00000000000E+00 0.  1.
<scales pt_clust_5="13000.00000" pt_clust_6="13000.00000" pt_clust_7="13000.00000" pt_clust_8="13000.00000" pt_clust_9="44.06701"></scales>
<clustering>
<clus scale="   44.067">  2  9  1 -1</clus>
<clus scale="   90.341">  5  6 -1 -1</clus>
<clus scale="   91.532">  7  8 -1 -1</clus>
<clus scale="   92.511">  1  5  2 -1</clus>
<clus scale="   44.067">  2  5  1 -1</clus>
</clustering>
</event>
<event>
 9    1  0.1636528E-005  0.1213735E+03  0.7546771E-02  0.1241069E+00
         -1   -1    0    0    0  501 -0.00000000000E+00  0.00000000000E+00  0.60654592247E+03  0.60654592247E+03  0.00000000000E+00 0.  1.
         21   -1    0    0  501  502  0.00000000000E+00 -0.00000000000E+00 -0.11151789669E+03  0.11151789669E+03  0.00000000000E+00 0.  1.
         23    2    1    2    0    0 -0.15748544264E+02 -0.62914123799E+02  0.24063740993E+03  0.26549819803E+03  0.91524458368E+02 0.  0.
         23    2    1    2    0    0 -0.26333748589E+02  0.97534439133E+02  0.33143869818E+03  0.35819458429E+03  0.90803724800E+02 0.  0.
        -11    1    4    4    0    0  0.15454910756E+02  0.91350058281E+02  0.24636967711E+03  0.26321418126E+03  0.00000000000E+00 0.  1.
         11    1    4    4    0    0 -0.41788659345E+02  0.61843808516E+01  0.85069021064E+02  0.94980403037E+02  0.00000000000E+00 0. -1.
        -11    1    3    3    0    0  0.20353104296E+02  0.14620002233E+02  0.37637893084E+02  0.45217301064E+02  0.00000000000E+00 0.  1.
         11    1    3    3    0    0 -0.36101648560E+02 -0.77534126031E+02  0.20299951684E+03  0.22028089696E+03  0.00000000000E+00 0. -1.
         -1    1    1    2    0  502  0.42082292853E+02 -0.34620315334E+02 -0.77048082319E+02  0.94371036842E+02  0.00000000000E+00 0.  1.
<scales pt_clust_5="13000.00000" pt_clust_6="13000.00000" pt_clust_7="13000.00000" pt_clust_8="13000.00000" pt_clust_9="54.49299"></scales>
<clustering>
<clus scale="   54.493">  2  9  1 -1</clus>
<clus scale="   90.804">  5  6 -1 -1</clus>
<clus scale="   91.524">  7  8 -1 -1</clus>
<clus scale="  120.831">  2  5  1 -1</clus>
<clus scale="   54.493">  2  5  1 -1</clus>
</clustering>
</event>
<event>
 9    1  0.5793577E-005  0.9146759E+02  0.7546771E-02  0.1299665E+00
          2   -1    0    0  502    0 -0.00000000000E+00  0.00000000000E+00  0.45531622103E+03  0.45531622103E+03  0.00000000000E+00 0. -1.
         21   -1    0    0  501  502  0.00000000000E+00 -0.00000000000E+00 -0.26868860392E+03  0.26868860392E+03  0.00000000000E+00 0. -1.
         23    2    1    2    0    0 -0.87403832970E+01  0.16771689922E+02  0.35818688167E+03  0.36999833339E+03  0.90792293868E+02 0.  0.
         23    2    1    2    0    0 -0.23027076292E+02  0.14542617081E+02  0.64214235124E+02  0.11405045295E+03  0.90234715448E+02 0.  0.
        -11    1    4    4    0    0 -0.19815351736E+02 -0.20613955361E+02 -0.11257805975E+02  0.30729814764E+02  0.00000000000E+00 0.  1.
         11    1    4    4    0    0 -0.32117245556E+01  0.35156572442E+02  0.75472041099E+02  0.83320638188E+02  0.00000000000E+00 0. -1.
        -11    1    3    3    0    0  0.18475967552E+02 -0.30522352235E+02  0.18534225003E+03  0.18874513241E+03  0.00000000000E+00 0.  1.
         11    1    3    3    0    0 -0.27216350849E+02  0.47294042157E+02  0.17284463164E+03  0.18125320097E+03  0.00000000000E+00 0. -1.
          2    1    1    2  501    0  0.31767459589E+02 -0.31314307003E+02 -0.23577349968E+03  0.23995603861E+03  0.00000000000E+00 0. -1.
<scales pt_clust_5="13000.00000" pt_clust_6="13000.00000" pt_clust_7="13000.00000" pt_clust_8="13000.00000" pt_clust_9="44.60670"></scales>
<clustering>
<clus scale="   44.607">  2  9  1 -1</clus>
<clus scale="   90.235">  5  6 -1 -1</clus>
<clus scale="   90.792">  7  8 -1 -1</clus>
<clus scale="   90.914">  2  5  1 -1</clus>
<clus scale="   44.607">  2  5  1 -1</clus>
</clustering>
</event>
<event>
 9    1  0.1636528E-005  0.1010940E+03  0.7546771E-02  0.1280559E+00
          2   -1    0    0  502    0 -0.00000000000E+00  0.00000000000E+00  0.24934588494E+03  0.24934588494E+03  0.00000000000E+00 0. -1.
         21   -1    0    0  501  502  0.00000000000E+00 -0.00000000000E+00 -0.68626057674E+02  0.68626057674E+02  0.00000000000E+00 0.  1.
         23    2    1    2    0    0 -0.18649297688E+02  0.26941843635E+02  0.15366222051E+03  0.18334817252E+03  0.94502989953E+02 0.  0.
         23    2    1    2    0    0  0.84495912058E+00 -0.49611065038E+02  0.27302798036E+02  0.10579759814E+03  0.89362840499E+02 0.  0.
        -11    1    4    4    0    0 -0.26719236007E+02 -0.62387897481E+02  0.48921198577E+01  0.68044839346E+02  0.00000000000E+00 0.  1.
         11    1    4    4    0    0  0.27564195128E+02  0.12776832443E+02  0.22410678179E+02  0.37752758796E+02  0.00000000000E+00 0. -1.
        -13    1    3    3    0    0 -0.53908689733E+02  0.36909289328E+01  0.60854952242E+02  0.81382399801E+02  0.00000000000E+00 0.  1.
         13    1    3    3    0    0  0.35259392045E+02  0.23250914702E+02  0.92807268271E+02  0.10196577272E+03  0.00000000000E+00 0. -1.
          2    1    1    2  501    0  0.17804338567E+02  0.22669221403E+02 -0.24519128174E+00  0.28826171955E+02  0.00000000000E+00 0. -1.
<scales pt_clust_5="13000.00000" pt_clust_6="13000.00000" pt_clust_7="13000.00000" pt_clust_8="13000.00000" pt_clust_9="28.82513"></scales>
<clustering>
<clus scale="   28.825">  2  9  1 -1</clus>
<clus scale="   89.363">  5  6 -1 -1</clus>
<clus scale="   94.503">  7  8 -1 -1</clus>
<clus scale="   96.306">  2  5  1 -1</clus>
<clus scale="   28.825">  2  5  1 -1</clus>
</clustering>
</event>
<event>
 9    1  0.1636528E-005  0.1236345E+03  0.7546771E-02  0.1237927E+00
         -4   -1    0    0    0  501 -0.00000000000E+00  0.00000000000E+00  0.58614493826E+03  0.58614493826E+03  0.00000000000E+00 0.  1.
         21   -1    0    0  501  502  0.00000000000E+00 -0.00000000000E+00 -0.10342218146E+03  0.10342218146E+03  0.00000000000E+00 0.  1.
         23    2    1    2    0    0  0.75445426622E+02  0.47066163014E+02  0.50902530092E+03  0.52440924907E+03  0.89392770638E+02 0.  0.
         23    2    1    2    0    0 -0.29378833617E+02 -0.59129788346E+01 -0.35139357026E+02  0.10275751150E+03  0.91794621701E+02 0.  0.
        -11    1    3    3    0    0 -0.16479281692E+01  0.30465019195E+02  0.49357247982E+02  0.58025606332E+02  0.00000000000E+00 0. -1.
         11    1    3    3    0    0  0.77093354791E+02  0.16601143818E+02  0.45966805294E+03  0.46638364274E+03  0.00000000000E+00 0.  1.
        -13    1    4    4    0    0  0.19437432051E+02  0.15020025641E+02 -0.42546273709E+02  0.49128406666E+02  0.00000000000E+00 0.  1.
         13    1    4    4    0    0 -0.48816265668E+02 -0.20933004475E+02  0.74069166832E+01  0.53629104830E+02  0.00000000000E+00 0. -1.
         -4    1    1    2    0  502 -0.46066593005E+02 -0.41153184179E+02  0.88368129099E+01  0.62400359146E+02  0.00000000000E+00 0.  1.
<scales pt_clust_5="13000.00000" pt_clust_6="13000.00000" pt_clust_7="13000.00000" pt_clust_8="13000.00000" pt_clust_9="61.77148"></scales>
<clustering>
<clus scale="   61.771">  2  9  1 -1</clus>
<clus scale="   89.393">  5  6 -1 -1</clus>
<clus scale="   91.795">  7  8 -1 -1</clus>
<clus scale="  121.862">  1  5  2 -1</clus>
<clus scale="   61.771">  2  5  1 -1</clus>
</clustering>
</event>
<event>
 9    1  0.1636528E-005  0.1716865E+03  0.7546771E-02  0.1176880E+00
         21   -1    0    0  501  502  0.00000000000E+00  0.00000000000E+00  0.21160828131E+03  0.21160828131E+03  0.00000000000E+00 0. -1.
          2   -1    0    0  502    0 -0.00000000000E+00 -0.00000000000E+00 -0.30993759274E+03  0.30993759274E+03  0.00000000000E+00 0. -1.
         23    2    1    2    0    0 -0.13244387054E+03  0.55657399321E+02 -0.22081836000E+03  0.27860077601E+03  0.90656049626E+02 0.  0.
         23    2    1    2    0    0  0.10850636281E+03 -0.87939793913E+02  0.10144434413E+03  0.19757950688E+03  0.96123194180E+02 0.  0.
        -13    1    4    4    0    0  0.36807878994E+02 -0.94724534923E+01 -0.14140044460E+02  0.40552289559E+02  0.00000000000E+00 0.  1.
         13    1    4    4    0    0  0.71698483815E+02 -0.78467340421E+02  0.11558438859E+03  0.15702721732E+03  0.00000000000E+00 0. -1.
        -13    1    3    3    0    0 -0.55655765945E+01  0.35893886827E+02 -0.23782326065E+02  0.43415962358E+02  0.00000000000E+00 0.  1.
         13    1    3    3    0    0 -0.12687829395E+03  0.19763512494E+02 -0.19703603394E+03  0.23518481365E+03  0.00000000000E+00 0. -1.
          2    1    1    2  501    0  0.23937507735E+02  0.32282394593E+02  0.21044704447E+02  0.45365591173E+02  0.00000000000E+00 0. -1.
<scales pt_clust_5="13000.00000" pt_clust_6="13000.00000" pt_clust_7="13000.00000" pt_clust_8="13000.00000" pt_clust_9="40.18902"></scales>
<clustering>
<clus scale="   40.189">  1  9  2 -1</clus>
<clus scale="   90.656">  7  8 -1 -1</clus>
<clus scale="   96.123">  5  6 -1 -1</clus>
<clus scale="  168.686">  2  7  1 -1</clus>
<clus scale="   40.189">  1  5  2 -1</clus>
</clustering>
</event>
<event>
 9    1  0.1636528E-005  0.1133859E+03  0.7546771E-02  0.1254458E+00
         21   -1    0    0  501  502  0.00000000000E+00  0.00000000000E+00  0.10008388619E+03  0.10008388619E+03  0.00000000000E+00 0. -1.
          2   -1    0    0  502    0 -0.00000000000E+00 -0.00000000000E+00 -0.32126145985E+03  0.32126145985E+03  0.00000000000E+00 0. -1.
         23    2    1    2    0    0  0.35490669720E+02 -0.61211346480E+02 -0.23342123113E+03  0.26022182177E+03  0.90683564171E+02 0.  0.
         23    2    1    2    0    0 -0.11430515393E+02  0.60754261640E+02 -0.28804177804E+02  0.11354175535E+03  0.90776167359E+02 0.  0.
        -11    1    3    3    0    0  0.46873927231E+02  0.48805961663E+01 -0.11198307105E+03  0.12149565208E+03  0.00000000000E+00 0. -1.
         11    1    3    3    0    0 -0.11383257510E+02 -0.66091942646E+02 -0.12143816008E+03  0.13872616969E+03  0.00000000000E+00 0.  1.
        -11    1    4    4    0    0 -0.49949048842E+02  0.25451223685E+02 -0.24297221733E+02  0.61098504493E+02  0.00000000000E+00 0.  1.
         11    1    4    4    0    0  0.38518533449E+02  0.35303037955E+02 -0.45069560712E+01  0.52443250862E+02  0.00000000000E+00 0. -1.
          2    1    1    2  501    0 -0.24060154328E+02  0.45708483959E+00  0.41047835273E+02  0.47581768919E+02  0.00000000000E+00 0. -1.
<scales pt_clust_5="13000.00000" pt_clust_6="13000.00000" pt_clust_7="13000.00000" pt_clust_8="13000.00000" pt_clust_9="24.06450"></scales>
<clustering>
<clus scale="   24.064">  1  9  2 -1</clus>
<clus scale="   90.684">  5  6 -1 -1</clus>
<clus scale="   90.776">  7  8 -1 -1</clus>
<clus scale="  113.312">  2  5  1 -1</clus>
<clus scale="   24.064">  1  5  2 -1</clus>
</clustering>
</event>
<event>
 9    1  0.1636528E-005  0.1085164E+03  0.7546771E-02  0.1263379E+00
         21   -1    0    0  501  502  0.00000000000E+00  0.00000000000E+00  0.31513908920E+02  0.31513908920E+02  0.00000000000E+00 0. -1.
          2   -1    0    0  502    0 -0.00000000000E+00 -0.00000000000E+00 -0.50031915939E+03  0.50031915939E+03  0.00000000000E+00 0. -1.
         23    2    1    2    0    0 -0.45177889708E+02  0.21117884054E+02 -0.23267028994E+03  0.25465669787E+03  0.90705916047E+02 0.  0.
         23    2    1    2    0    0  0.65177524920E+02 -0.30588665690E+02 -0.22351855850E+03  0.25170374369E+03  0.90611546543E+02 0.  0.
        -11    1    3    3    0    0 -0.26428563391E+02  0.56136275961E+02 -0.16372337281E+03  0.17508595959E+03  0.00000000000E+00 0.  1.
         11    1    3    3    0    0 -0.18749326316E+02 -0.35018391907E+02 -0.68946917126E+02  0.79570738279E+02  0.00000000000E+00 0. -1.
        -13    1    4    4    0    0  0.21882470137E+02 -0.21743827157E+02 -0.82309068826E+01  0.31927798966E+02  0.00000000000E+00 0.  1.
         13    1    4    4    0    0  0.43295054783E+02 -0.88448385333E+01 -0.21528765162E+03  0.21977594472E+03  0.00000000000E+00 0. -1.
          2    1    1    2  501    0 -0.19999635212E+02  0.94707816361E+01 -0.12616402026E+02  0.25472626749E+02  0.00000000000E+00 0. -1.
<scales pt_clust_5="13000.00000" pt_clust_6="13000.00000" pt_clust_7="13000.00000" pt_clust_8="13000.00000" pt_clust_9="22.12874"></scales>
<clustering>
<clus scale="   22.129">  1  9  2 -1</clus>
<clus scale="   90.612">  7  8 -1 -1</clus>
<clus scale="   90.706">  5  6 -1 -1</clus>
<clus scale="  108.438">  1  7  2 -1</clus>
<clus scale="   22.129">  1  5  2 -1</clus>
</clustering>
</event>
<event>
 9    1  0.1636528E-005  0.1055107E+03  0.7546771E-02  0.1274011E+00
         -1   -1    0    0    0  501 -0.00000000000E+00  0.00000000000E+00  0.85786089786E+02  0.85786089786E+02  0.00000000000E+00 0.  1.
         21   -1    0    0  501  502  0.00000000000E+00 -0.00000000000E+00 -0.20747907865E+03  0.20747907865E+03  0.00000000000E+00 0. -1.
         23    2    1    2    0    0  0.64781917833E+01  0.34112011009E+02  0.13623144659E+02  0.10873546875E+03  0.10213821924E+03 0.  0.
         23    2    1    2    0    0  0.61219417666E+01 -0.98958023288E+01 -0.79360981642E+02  0.12227082763E+03  0.92285344488E+02 0.  0.
        -11    1    3    3    0    0  0.42151265570E+02 -0.10648658818E+02  0.25325874277E+02  0.50314242831E+02  0.00000000000E+00 0.  1.
         11    1    3    3    0    0 -0.35673073787E+02  0.44760669827E+02 -0.11702729618E+02  0.58421225914E+02  0.00000000000E+00 0. -1.
        -13    1    4    4    0    0  0.10472446538E+02  0.40359448750E+02 -0.27646583376E+02  0.50028899771E+02  0.00000000000E+00 0. -1.
         13    1    4    4    0    0 -0.43505047711E+01 -0.50255251079E+02 -0.51714398265E+02  0.72241927858E+02  0.00000000000E+00 0.  1.
         -1    1    1    2    0  502 -0.12600133550E+02 -0.24216208680E+02 -0.55955151877E+02  0.62258872057E+02  0.00000000000E+00 0.  1.
<scales pt_clust_5="13000.00000" pt_clust_6="13000.00000" pt_clust_7="13000.00000" pt_clust_8="13000.00000" pt_clust_9="27.29813"></scales>
<clustering>
<clus scale="   27.298">  2  9  1 -1</clus>
<clus scale="   92.285">  7  8 -1 -1</clus>
<clus scale="   96.005">  2  7  1 -1</clus>
<clus scale="  102.138">  5  6 -1 -1</clus>
<clus scale="   27.298">  2  5  1 -1</clus>
</clustering>
</event>
<event>
 9    1  0.1636528E-005  0.1021834E+03  0.7546771E-02  0.1276252E+00
         21   -1    0    0  501  502  0.00000000000E+00  0.00000000000E+00  0.11930214103E+03  0.11930214103E+03  0.00000000000E+00 0. -1.
          3   -1    0    0  502    0 -0.00000000000E+00 -0.00000000000E+00 -0.21373546130E+03  0.21373546130E+03  0.00000000000E+00 0. -1.
         23    2    1    2    0    0  0.23922272625E+01 -0.48717087959E+02 -0.12810265661E+03  0.16478794442E+03  0.91464192919E+02 0.  0.
         23    2    1    2    0    0 -0.32728068549E+02  0.33442256920E+02 -0.20942723683E+02  0.10393744422E+03  0.90415062999E+02 0.  0.
        -11    1    3    3    0    0 -0.22932681847E+02 -0.32000314323E+02 -0.12854642086E+03  0.13443998784E+03  0.00000000000E+00 0. -1.
         11    1    3    3    0    0  0.25324909109E+02 -0.16716773636E+02  0.44376425304E+00  0.30347956585E+02  0.00000000000E+00 0.  1.
        -11    1    4    4    0    0  0.13200899391E+02  0.30291158872E+02  0.23028207886E+02  0.40275506315E+02  0.00000000000E+00 0.  1.
         11    1    4    4    0    0 -0.45928967940E+02  0.31510980484E+01 -0.43970931569E+02  0.63661937906E+02  0.00000000000E+00 0. -1.
          3    1    1    2  501    0  0.30335841287E+02  0.15274831039E+02  0.54612060017E+02  0.64312213685E+02  0.00000000000E+00 0. -1.
<scales pt_clust_5="13000.00000" pt_clust_6="13000.00000" pt_clust_7="13000.00000" pt_clust_8="13000.00000" pt_clust_9="33.96445"></scales>
<clustering>
<clus scale="   33.964">  1  9  2 -1</clus>
<clus scale="   90.415">  7  8 -1 -1</clus>
<clus scale="   91.464">  5  6 -1 -1</clus>
<clus scale="  101.245">  1  7  2 -1</clus>
<clus scale="   33.964">  1  5  2 -1</clus>
</clustering>
</event>
<event>
 9    1  0.1636528E-005  0.1460831E+03  0.7546771E-02  0.1224824E+00
         21   -1    0    0  501  502  0.00000000000E+00  0.00000000000E+00  0.18707419625E+03  0.18707419625E+03  0.00000000000E+00 0. -1.
          2   -1    0    0  502    0 -0.00000000000E+00 -0.00000000000E+00 -0.31789879407E+03  0.31789879407E+03  0.00000000000E+00 0. -1.
         23    2    1    2    0    0  0.31808549904E+02 -0.25377985890E+01 -0.52748546278E+02  0.11020921475E+03  0.91353366723E+02 0.  0.
         23    2    1    2    0    0  0.84897435940E+02  0.22166941333E+02 -0.19265995907E+03  0.23003653970E+03  0.90000010287E+02 0.  0.
        -11    1    4    4    0    0  0.97726776407E+02  0.37541377269E+02 -0.17130688854E+03  0.20076336293E+03  0.00000000000E+00 0. -1.
         11    1    4    4    0    0 -0.12829340467E+02 -0.15374435936E+02 -0.21353070531E+02  0.29273176771E+02  0.00000000000E+00 0.  1.
        -11    1    3    3    0    0  0.62337443599E+02  0.10609578802E+02 -0.30453403177E+02  0.70184968489E+02  0.00000000000E+00 0. -1.
         11    1    3    3    0    0 -0.30528893695E+02 -0.13147377391E+02 -0.22295143101E+02  0.40024246256E+02  0.00000000000E+00 0.  1.
          2    1    1    2  501    0 -0.11670598584E+03 -0.19629142744E+02  0.11458390752E+03  0.16472723587E+03  0.00000000000E+00 0. -1.
<scales pt_clust_5="13000.00000" pt_clust_6="13000.00000" pt_clust_7="13000.00000" pt_clust_8="13000.00000" pt_clust_9="115.06633"></scales>
<clustering>
<clus scale="   90.000">  5  6 -1 -1</clus>
<clus scale="   91.353">  7  8 -1 -1</clus>
<clus scale="   96.766">  2  7  1 -1</clus>
<clus scale="  115.066">  1  9  2 -1</clus>
<clus scale="  115.066">  1  5  2 -1</clus>
</clustering>
</event>
<event>
 9    1  0.1636528E-005  0.1025311E+03  0.7546771E-02  0.1275158E+00
          2   -1    0    0  502    0 -0.00000000000E+00  0.00000000000E+00  0.20297426205E+03  0.20297426205E+03  0.00000000000E+00 0. -1.
         21   -1    0    0  501  502  0.00000000000E+00 -0.00000000000E+00 -0.73072495455E+02  0.73072495455E+02  0.00000000000E+00 0.  1.
         23    2    1    2    0    0  0.38433413284E+02 -0.55699084355E+01  0.75794397725E+02  0.12413360913E+03  0.90311743710E+02 0.  0.
         23    2    1    2    0    0 -0.60310000938E+02 -0.22838961901E+00  0.65082509690E+02  0.12676043353E+03  0.90526935589E+02 0.  0.
        -11    1    4    4    0    0 -0.27459627025E+02  0.21850866586E+02 -0.14428018408E+02  0.37942841249E+02  0.00000000000E+00 0.  1.
         11    1    4    4    0    0 -0.32850373913E+02 -0.22079256205E+02  0.79510528098E+02  0.88817592284E+02  0.00000000000E+00 0. -1.
        -11    1    3    3    0    0  0.70189007390E+01  0.35597539656E+02  0.53073644908E+01  0.36669032098E+02  0.00000000000E+00 0.  1.
         11    1    3    3    0    0  0.31414512545E+02 -0.41167448092E+02  0.70487033235E+02  0.87464577030E+02  0.00000000000E+00 0. -1.
          2    1    1    2  501    0  0.21876587654E+02  0.57982980545E+01 -0.10975140823E+02  0.25152714839E+02  0.00000000000E+00 0. -1.
<scales pt_clust_5="13000.00000" pt_clust_6="13000.00000" pt_clust_7="13000.00000" pt_clust_8="13000.00000" pt_clust_9="22.63195"></scales>
<clustering>
<clus scale="   22.632">  2  9  1 -1</clus>
<clus scale="   90.312">  7  8 -1 -1</clus>
<clus scale="   90.527">  5  6 -1 -1</clus>
<clus scale="  102.341">  1  7  2 -1</clus>
<clus scale="   22.632">  2  5  1 -1</clus>
</clustering>
</event>
<event>
 9    1  0.1636528E-005  0.1258682E+03  0.7546771E-02  0.1234642E+00
         -1   -1    0    0    0  501 -0.00000000000E+00  0.00000000000E+00  0.71883936795E+03  0.71883936795E+03  0.00000000000E+00 0.  1.
         21   -1    0    0  501  502  0.00000000000E+00 -0.00000000000E+00 -0.27427188439E+02  0.27427188439E+02  0.00000000000E+00 0. -1.
         23    2    1    2    0    0 -0.67178596678E+02 -0.53921020107E+02  0.33692419069E+03  0.35956059352E+03  0.91353543368E+02 0.  0.
         23    2    1    2    0    0  0.82184467983E+02  0.34409963770E+02  0.25358139397E+03  0.28284067329E+03  0.88073779952E+02 0.  0.
        -11    1    3    3    0    0 -0.79844501793E+02 -0.16399139288E+02  0.26741114732E+03  0.27955821925E+03  0.00000000000E+00 0. -1.
         11    1    3    3    0    0  0.12665905114E+02 -0.37521880819E+02  0.69513043361E+02  0.80002374277E+02  0.00000000000E+00 0.  1.
        -11    1    4    4    0    0  0.44012262039E+02  0.11887486739E+02  0.29234342122E+02  0.54157532348E+02  0.00000000000E+00 0. -1.
         11    1    4    4    0    0  0.38172205944E+02  0.22522477031E+02  0.22434705184E+03  0.22868314094E+03  0.00000000000E+00 0.  1.
         -1    1    1    2    0  502 -0.15005871305E+02  0.19511056337E+02  0.10090659486E+03  0.10386528957E+03  0.00000000000E+00 0.  1.
<scales pt_clust_5="13000.00000" pt_clust_6="13000.00000" pt_clust_7="13000.00000" pt_clust_8="13000.00000" pt_clust_9="24.61418"></scales>
<clustering>
<clus scale="   24.614">  2  9  1 -1</clus>
<clus scale="   88.074">  7  8 -1 -1</clus>
<clus scale="   91.354">  5  6 -1 -1</clus>
<clus scale="  123.508">  2  7  1 -1</clus>
<clus scale="   24.614">  2  5  1 -1</clus>
</clustering>
</event>
<event>
 9    1  0.1636528E-005  0.1082349E+03  0.7546771E-02  0.1264984E+00
         21   -1    0    0  501  502  0.00000000000E+00  0.00000000000E+00  0.73912605118E+02  0.73912605118E+02  0.00000000000E+00 0.  1.
         -1   -1    0    0    0  501 -0.00000000000E+00 -0.00000000000E+00 -0.65394861833E+03  0.65394861833E+03  0.00000000000E+00 0.  1.
         23    2    1    2    0    0 -0.11268443314E+02  0.60444965607E+02 -0.55637001227E+03  0.56742639776E+03  0.92976097121E+02 0.  0.
         23    2    1    2    0    0 -0.26408154934E+02 -0.23989475743E+02 -0.40787738403E+02  0.10528337340E+03  0.90266624605E+02 0.  0.
        -11    1    3    3    0    0  0.45662496216E+01 -0.24034559681E+02 -0.93737827937E+02  0.96877711993E+02  0.00000000000E+00 0. -1.
         11    1    3    3    0    0 -0.15834692936E+02  0.84479525287E+02 -0.46263218433E+03  0.47054868576E+03  0.00000000000E+00 0.  1.
        -13    1    4    4    0    0 -0.33722073493E+02  0.30455955655E+01 -0.61666358283E+02  0.70350505592E+02  0.00000000000E+00 0.  1.
         13    1    4    4    0    0  0.73139185596E+01 -0.27035071309E+02  0.20878619881E+02  0.34932867811E+02  0.00000000000E+00 0. -1.
         -1    1    1    2    0  502  0.37676598248E+02 -0.36455489863E+02  0.17121737455E+02  0.55151452294E+02  0.00000000000E+00 0.  1.
<scales pt_clust_5="13000.00000" pt_clust_6="13000.00000" pt_clust_7="13000.00000" pt_clust_8="13000.00000" pt_clust_9="52.42641"></scales>
<clustering>
<clus scale="   52.426">  1  9  2 -1</clus>
<clus scale="   90.267">  7  8 -1 -1</clus>
<clus scale="   92.976">  5  6 -1 -1</clus>
<clus scale="  105.916">  1  7  2 -1</clus>
<clus scale="   52.426">  1  5  2 -1</clus>
</clustering>
</event>
<event>
 9    1  0.1636528E-005  0.1303869E+03  0.7546771E-02  0.1230715E+00
          1   -1    0    0  502    0 -0.00000000000E+00  0.00000000000E+00  0.15013295352E+03  0.15013295352E+03  0.00000000000E+00 0. -1.
         21   -1    0    0  501  502  0.00000000000E+00 -0.00000000000E+00 -0.28107020633E+03  0.28107020633E+03  0.00000000000E+00 0. -1.
         23    2    1    2    0    0 -0.18287513045E+01 -0.10161388424E+03  0.65101029879E+02  0.14266266474E+03  0.76064222983E+02 0.  0.
         23    2    1    2    0    0  0.10591426311E+02  0.76335076647E+02 -0.33558679906E+02  0.12387287866E+03  0.90989465497E+02 0.  0.
        -11    1    3    3    0    0 -0.28719615994E+02 -0.37836646275E+02 -0.20469154938E+00  0.47502316184E+02  0.00000000000E+00 0.  1.
         11    1    3    3    0    0  0.26890864690E+02 -0.63777237969E+02  0.65305721428E+02  0.95160348559E+02  0.00000000000E+00 0. -1.
        -13    1    4    4    0    0 -0.16693703683E+02  0.53034866869E+02 -0.58088456387E+02  0.80409238349E+02  0.00000000000E+00 0.  1.
         13    1    4    4    0    0  0.27285129993E+02  0.23300209778E+02  0.24529776482E+02  0.43463640306E+02  0.00000000000E+00 0. -1.
          1    1    1    2  501    0 -0.87626750063E+01  0.25278807596E+02 -0.16247960278E+03  0.16466761645E+03  0.00000000000E+00 0. -1.
<scales pt_clust_5="13000.00000" pt_clust_6="13000.00000" pt_clust_7="13000.00000" pt_clust_8="13000.00000" pt_clust_9="26.75449"></scales>
<clustering>
<clus scale="   26.754">  2  9  1 -1</clus>
<clus scale="   76.064">  5  6 -1 -1</clus>
<clus scale="   90.989">  7  8 -1 -1</clus>
<clus scale="  120.447">  1  5  2 -1</clus>
<clus scale="   26.754">  2  5  1 -1</clus>
</clustering>
</event>
<event>
 9    1  0.1636528E-005  0.9515559E+02  0.7546771E-02  0.1292118E+00
         21   -1    0    0  501  502  0.00000000000E+00  0.00000000000E+00  0.23101742636E+03  0.23101742636E+03  0.00000000000E+00 0. -1.
          1   -1    0    0  502    0 -0.00000000000E+00 -0.00000000000E+00 -0.77880794321E+02  0.77880794321E+02  0.00000000000E+00 0. -1.
         23    2    1    2    0    0 -0.25616713384E+02 -0.11232280060E+02 -0.41320907333E+01  0.91873535269E+02  0.87414485007E+02 0.  0.
         23    2    1    2    0    0  0.44966651948E+02 -0.21744111493E+02  0.78021072102E+02  0.12903575054E+03  0.89822775811E+02 0.  0.
        -13    1    3    3    0    0  0.19341564631E+02  0.19003727196E+02  0.18847098559E+02  0.33021975923E+02  0.00000000000E+00 0.  1.
         13    1    3    3    0    0 -0.44958278015E+02 -0.30236007256E+02 -0.22979189293E+02  0.58851559346E+02  0.00000000000E+00 0. -1.
        -13    1    4    4    0    0 -0.19382264492E+02  0.16819709105E+02  0.32022570510E+02  0.41036810466E+02  0.00000000000E+00 0.  1.
         13    1    4    4    0    0  0.64348916440E+02 -0.38563820598E+02  0.45998501592E+02  0.87998940078E+02  0.00000000000E+00 0. -1.
          1    1    1    2  501    0 -0.19349938564E+02  0.32976391553E+02  0.79247650667E+02  0.87988934864E+02  0.00000000000E+00 0. -1.
<scales pt_clust_5="13000.00000" pt_clust_6="13000.00000" pt_clust_7="13000.00000" pt_clust_8="13000.00000" pt_clust_9="38.23431"></scales>
<clustering>
<clus scale="   38.234">  1  9  2 -1</clus>
<clus scale="   87.414">  5  6 -1 -1</clus>
<clus scale="   89.823">  7  8 -1 -1</clus>
<clus scale="   92.886">  2  5  1 -1</clus>
<clus scale="   38.234">  1  5  2 -1</clus>
</clustering>
</event>
<event>
 9    1  0.1636528E-005  0.1039327E+03  0.7546771E-02  0.1275029E+00
         21   -1    0    0  501  502  0.00000000000E+00  0.00000000000E+00  0.45645799405E+03  0.45645799405E+03  0.00000000000E+00 0.  1.
         -4   -1    0    0    0  501 -0.00000000000E+00 -0.00000000000E+00 -0.39222091836E+02  0.39222091836E+02  0.00000000000E+00 0. -1.
         23    2    1    2    0    0 -0.43708746439E+02 -0.73739865123E+01  0.62033351870E+02  0.11868119986E+03  0.90951966792E+02 0.  0.
         23    2    1    2    0    0  0.18383864929E+02  0.58332012437E+01  0.25005260712E+03  0.26883126517E+03  0.96808832639E+02 0.  0.
        -11    1    3    3    0    0 -0.67368797419E+02  0.13436305803E+02  0.49942119630E+02  0.84931175033E+02  0.00000000000E+00 0. -1.
         11    1    3    3    0    0  0.23660050980E+02 -0.20810292315E+02  0.12091232240E+02  0.33750024825E+02  0.00000000000E+00 0.  1.
        -13    1    4    4    0    0  0.10771874040E+02 -0.41059146675E+02  0.17446355558E+03  0.17955338766E+03  0.00000000000E+00 0.  1.
         13    1    4    4    0    0  0.76119908889E+01  0.46892347919E+02  0.75589051541E+02  0.89277877503E+02  0.00000000000E+00 0. -1.
         -4    1    1    2    0  502  0.25324881509E+02  0.15407852686E+01  0.10514994323E+03  0.10816762087E+03  0.00000000000E+00 0. -1.
<scales pt_clust_5="13000.00000" pt_clust_6="13000.00000" pt_clust_7="13000.00000" pt_clust_8="13000.00000" pt_clust_9="25.37171"></scales>
<clustering>
<clus scale="   25.372">  1  9  2 -1</clus>
<clus scale="   90.952">  5  6 -1 -1</clus>
<clus scale="   96.809">  7  8 -1 -1</clus>
<clus scale="   98.500">  2  5  1 -1</clus>
<clus scale="   25.372">  1  5  2 -1</clus>
</clustering>
</event>
<event>
 9    1  0.1636528E-005  0.1738115E+03  0.7546771E-02  0.1174268E+00
         -2   -1    0    0    0  501 -0.00000000000E+00  0.00000000000E+00  0.35694634510E+03  0.35694634510E+03  0.00000000000E+00 0.  1.
         21   -1    0    0  501  502  0.00000000000E+00 -0.00000000000E+00 -0.35151585350E+03  0.35151585350E+03  0.00000000000E+00 0.  1.
         23    2    1    2    0    0  0.15125307556E+03  0.16460633973E+02  0.23830344973E+03  0.29765591342E+03  0.93070206306E+02 0.  0.
         23    2    1    2    0    0 -0.12941303426E+03 -0.37800642824E+02  0.13101713191E+02  0.16294357658E+03  0.90566728025E+02 0.  0.
        -11    1    4    4    0    0 -0.76316598661E+02 -0.39423957633E+02  0.48941951575E+02  0.98862461484E+02  0.00000000000E+00 0.  1.
         11    1    4    4    0    0 -0.53096435604E+02  0.16233148087E+01 -0.35840238384E+02  0.64081115098E+02  0.00000000000E+00 0. -1.
        -11    1    3    3    0    0  0.10294225608E+03  0.22755962322E+02  0.80914065597E+02  0.13289856252E+03  0.00000000000E+00 0. -1.
         11    1    3    3    0    0  0.48310819485E+02 -0.62953283491E+01  0.15738938413E+03  0.16475735090E+03  0.00000000000E+00 0.  1.
         -2    1    1    2    0  502 -0.21840041298E+02  0.21340008851E+02 -0.24597467132E+03  0.24786270859E+03  0.00000000000E+00 0.  1.
<scales pt_clust_5="13000.00000" pt_clust_6="13000.00000" pt_clust_7="13000.00000" pt_clust_8="13000.00000" pt_clust_9="30.53495"></scales>
<clustering>
<clus scale="   30.535">  2  9  1 -1</clus>
<clus scale="   90.567">  5  6 -1 -1</clus>
<clus scale="   93.070">  7  8 -1 -1</clus>
<clus scale="  172.484">  2  5  1 -1</clus>
<clus scale="   30.535">  2  5  1 -1</clus>
</clustering>
</event>
<event>
 9    1  0.1636528E-005  0.1449323E+03  0.7546771E-02  0.1207232E+00
          1   -1    0    0  502    0 -0.00000000000E+00  0.00000000000E+00  0.24269906996E+03  0.24269906996E+03  0.00000000000E+00 0. -1.
         21   -1    0    0  501  502  0.00000000000E+00 -0.00000000000E+00 -0.51039673418E+03  0.51039673418E+03  0.00000000000E+00 0. -1.
         23    2    1    2    0    0 -0.55407817871E+02  0.83485052987E+02  0.13535333362E+03  0.19197524394E+03  0.92163924683E+02 0.  0.
         23    2    1    2    0    0  0.82884783662E+02 -0.13065372939E+03 -0.27024424457E+02  0.18115233577E+03  0.90252783184E+02 0.  0.
        -13    1    4    4    0    0 -0.56625933048E+01 -0.64092487335E+02 -0.28490907682E+02  0.70367916811E+02  0.00000000000E+00 0.  1.
         13    1    4    4    0    0  0.88547376967E+02 -0.66561242053E+02  0.14664832253E+01  0.11078441896E+03  0.00000000000E+00 0. -1.
        -13    1    3    3    0    0 -0.41928914721E+02 -0.62019219857E+01  0.63122126603E+02  0.76032233907E+02  0.00000000000E+00 0.  1.
         13    1    3    3    0    0 -0.13478903150E+02  0.89686974973E+02  0.72231207013E+02  0.11594301004E+03  0.00000000000E+00 0. -1.
          1    1    1    2  501    0 -0.27476965792E+02  0.47168676401E+02 -0.37602657338E+03  0.37996822442E+03  0.00000000000E+00 0. -1.
<scales pt_clust_5="13000.00000" pt_clust_6="13000.00000" pt_clust_7="13000.00000" pt_clust_8="13000.00000" pt_clust_9="54.58816"></scales>
<clustering>
<clus scale="   54.588">  2  9  1 -1</clus>
<clus scale="   90.253">  5  6 -1 -1</clus>
<clus scale="   92.164">  7  8 -1 -1</clus>
<clus scale="  143.725">  2  5  1 -1</clus>
<clus scale="   54.588">  2  5  1 -1</clus>
</clustering>
</event>
<event>
 9    1  0.1636528E-005  0.1575938E+03  0.7546771E-02  0.1191742E+00
          1   -1    0    0  502    0 -0.00000000000E+00  0.00000000000E+00  0.32747496200E+03  0.32747496200E+03  0.00000000000E+00 0. -1.
         21   -1    0    0  501  502  0.00000000000E+00 -0.00000000000E+00 -0.12747590226E+03  0.12747590226E+03  0.00000000000E+00 0. -1.
         23    2    1    2    0    0 -0.26600383429E+02  0.12752578793E+03  0.23128718485E+03  0.28141921457E+03  0.93448410747E+02 0.  0.
         23    2    1    2    0    0  0.71807137914E+01 -0.11586154164E+03 -0.24956760988E+02  0.15001007700E+03  0.91677280724E+02 0.  0.
        -11    1    4    4    0    0  0.27183148781E+02 -0.29349698572E+02 -0.43714700653E+02  0.59256252304E+02  0.00000000000E+00 0.  1.
         11    1    4    4    0    0 -0.20002434990E+02 -0.86511843071E+02  0.18757939664E+02  0.90753824699E+02  0.00000000000E+00 0. -1.
        -13    1    3    3    0    0  0.28475469907E+02  0.74955151464E+02  0.14971910764E+03  0.16983797664E+03  0.00000000000E+00 0.  1.
         13    1    3    3    0    0 -0.55075853337E+02  0.52570636466E+02  0.81568077211E+02  0.11158123793E+03  0.00000000000E+00 0. -1.
          1    1    1    2  501    0  0.19419669638E+02 -0.11664246287E+02 -0.63313641161E+01  0.23521572691E+02  0.00000000000E+00 0. -1.
<scales pt_clust_5="13000.00000" pt_clust_6="13000.00000" pt_clust_7="13000.00000" pt_clust_8="13000.00000" pt_clust_9="22.65344"></scales>
<clustering>
<clus scale="   22.653">  2  9  1 -1</clus>
<clus scale="   91.677">  5  6 -1 -1</clus>
<clus scale="   93.448">  7  8 -1 -1</clus>
<clus scale="  156.550">  2  5  1 -1</clus>
<clus scale="   22.653">  2  5  1 -1</clus>
</clustering>
</event>
<event>
 9    1  0.1636528E-005  0.2169323E+03  0.7546771E-02  0.1136204E+00
         21   -1    0    0  501  502  0.00000000000E+00  0.00000000000E+00  0.12253151453E+03  0.12253151453E+03  0.00000000000E+00 0. -1.
         -2   -1    0    0    0  501 -0.00000000000E+00 -0.00000000000E+00 -0.44006630396E+03  0.44006630396E+03  0.00000000000E+00 0.  1.
         23    2    1    2    0    0 -0.16245173379E+03  0.13003818584E+03 -0.19285543493E+03  0.29807172111E+03  0.91394948203E+02 0.  0.
         23    2    1    2    0    0  0.14361325321E+03 -0.11518142022E+03 -0.12482472347E+03  0.24053374512E+03  0.91562792056E+02 0.  0.
        -11    1    3    3    0    0 -0.96848638430E+02  0.31351363263E+02 -0.12609699953E+03  0.16205869318E+03  0.00000000000E+00 0.  1.
         11    1    3    3    0    0 -0.65603095358E+02  0.98686822576E+02 -0.66758435406E+02  0.13601302794E+03  0.00000000000E+00 0. -1.
        -13    1    4    4    0    0  0.72394414448E+02 -0.49527861370E+02 -0.69850184592E+01  0.87992901862E+02  0.00000000000E+00 0. -1.
         13    1    4    4    0    0  0.71218838762E+02 -0.65653558853E+02 -0.11783970501E+03  0.15254084325E+03  0.00000000000E+00 0.  1.
         -2    1    1    2    0  502  0.18838480578E+02 -0.14856765616E+02  0.14536897150E+00  0.23992352264E+02  0.00000000000E+00 0.  1.
<scales pt_clust_5="13000.00000" pt_clust_6="13000.00000" pt_clust_7="13000.00000" pt_clust_8="13000.00000" pt_clust_9="23.99191"></scales>
<clustering>
<clus scale="   23.992">  1  9  2 -1</clus>
<clus scale="   91.395">  5  6 -1 -1</clus>
<clus scale="   91.563">  7  8 -1 -1</clus>
<clus scale="  216.861">  2  5  1 -1</clus>
<clus scale="   23.992">  1  5  2 -1</clus>
</clustering>
</event>
<event>
 9    1  0.1636528E-005  0.1103651E+03  0.7546771E-02  0.1261183E+00
         21   -1    0    0  501  502  0.00000000000E+00  0.00000000000E+00  0.74477228113E+02  0.74477228113E+02  0.00000000000E+00 0.  1.
          4   -1    0    0  502    0 -0.00000000000E+00 -0.00000000000E+00 -0.38737661185E+03  0.38737661185E+03  0.00000000000E+00 0. -1.
         23    2    1    2    0    0  0.19532181892E+02  0.67874714360E+02 -0.18910608483E+03  0.22047841904E+03  0.88663064266E+02 0.  0.
         23    2    1    2    0    0 -0.34700736124E+02 -0.51907829283E+02 -0.16426515036E+03  0.19529942698E+03  0.85207175313E+02 0.  0.
        -11    1    4    4    0    0  0.20323307879E+02  0.10002004507E+02 -0.31051229219E+02  0.38435085187E+02  0.00000000000E+00 0.  1.
         11    1    4    4    0    0 -0.55024044003E+02 -0.61909833789E+02 -0.13321392115E+03  0.15686434179E+03  0.00000000000E+00 0. -1.
        -11    1    3    3    0    0  0.17569882131E+02 -0.14576053248E+02 -0.83039101824E+02  0.86120000685E+02  0.00000000000E+00 0. -1.
         11    1    3    3    0    0  0.19622997606E+01  0.82450767607E+02 -0.10606698301E+03  0.13435841836E+03  0.00000000000E+00 0.  1.
          4    1    1    2  501    0  0.15168554232E+02 -0.15966885077E+02  0.40471851462E+02  0.46075993938E+02  0.00000000000E+00 0. -1.
<scales pt_clust_5="13000.00000" pt_clust_6="13000.00000" pt_clust_7="13000.00000" pt_clust_8="13000.00000" pt_clust_9="22.02332"></scales>
<clustering>
<clus scale="   22.023">  1  9  2 -1</clus>
<clus scale="   85.207">  5  6 -1 -1</clus>
<clus scale="   88.663">  7  8 -1 -1</clus>
<clus scale="  107.608">  1  5  2 -1</clus>
<clus scale="   22.023">  1  5  2 -1</clus>
</clustering>
</event>
<event>
 9    1  0.1636528E-005  0.1638205E+03  0.7546771E-02  0.1184819E+00
         -1   -1    0    0    0  501 -0.00000000000E+00  0.00000000000E+00  0.15811564170E+03  0.15811564170E+03  0.00000000000E+00 0.  1.
         21   -1    0    0  501  502  0.00000000000E+00 -0.00000000000E+00 -0.23404221251E+03  0.23404221251E+03  0.00000000000E+00 0. -1.
         23    2    1    2    0    0  0.46769353284E+02  0.13632441957E+03  0.23584131566E+02  0.17181151958E+03  0.90505619838E+02 0.  0.
         23    2    1    2    0    0 -0.19824241970E+02 -0.12128445779E+03 -0.49922386923E+02  0.16194050868E+03  0.92895443197E+02 0.  0.
        -11    1    4    4    0    0 -0.50083223431E+02 -0.10897796012E+03 -0.48108302003E+02  0.12922435445E+03  0.00000000000E+00 0.  1.
         11    1    4    4    0    0  0.30258981462E+02 -0.12306497667E+02 -0.18140849208E+01  0.32716154236E+02  0.00000000000E+00 0. -1.
        -11    1    3    3    0    0  0.31041720231E+02  0.42997272896E+02 -0.32112091826E+02  0.61996292735E+02  0.00000000000E+00 0. -1.
         11    1    3    3    0    0  0.15727633053E+02  0.93327146675E+02  0.55696223392E+02  0.10981522685E+03  0.00000000000E+00 0.  1.
         -1    1    1    2    0  502 -0.26945111314E+02 -0.15039961786E+02 -0.49588315451E+02  0.58405825938E+02  0.00000000000E+00 0.  1.
<scales pt_clust_5="13000.00000" pt_clust_6="13000.00000" pt_clust_7="13000.00000" pt_clust_8="13000.00000" pt_clust_9="30.85838"></scales>
<clustering>
<clus scale="   30.858">  2  9  1 -1</clus>
<clus scale="   90.506">  7  8 -1 -1</clus>
<clus scale="   92.895">  5  6 -1 -1</clus>
<clus scale="  162.477">  1  7  2 -1</clus>
<clus scale="   30.858">  2  5  1 -1</clus>
</clustering>
</event>
<event>
 9    1  0.1636528E-005  0.1882918E+03  0.7546771E-02  0.1160035E+00
          3   -1    0    0  502    0 -0.00000000000E+00  0.00000000000E+00  0.66828672047E+03  0.66828672047E+03  0.00000000000E+00 0. -1.
         21   -1    0    0  501  502  0.00000000000E+00 -0.00000000000E+00 -0.94461430416E+02  0.94461430416E+02  0.00000000000E+00 0. -1.
         23    2    1    2    0    0  0.52301370470E+01 -0.16344679784E+03  0.41919213929E+03  0.45910861469E+03  0.91194629118E+02 0.  0.
         23    2    1    2    0    0 -0.49371288428E+02  0.16406086122E+03  0.16893636139E+03  0.25723479341E+03  0.90976669718E+02 0.  0.
        -11    1    4    4    0    0 -0.74406059416E+02  0.10220631504E+03  0.99006719407E+02  0.16057622177E+03  0.00000000000E+00 0. -1.
         11    1    4    4    0    0  0.25034770988E+02  0.61854546184E+02  0.69929641985E+02  0.96658571633E+02  0.00000000000E+00 0.  1.
        -13    1    3    3    0    0  0.30603910585E+02 -0.14035741766E+02  0.52934454832E+02  0.62734822056E+02  0.00000000000E+00 0.  1.
         13    1    3    3    0    0 -0.25373773538E+02 -0.14941105608E+03  0.36625768446E+03  0.39637379263E+03  0.00000000000E+00 0. -1.
          3    1    1    2  501    0  0.44141151381E+02 -0.61406337876E+00 -0.14303210628E+02  0.46404742790E+02  0.00000000000E+00 0. -1.
<scales pt_clust_5="13000.00000" pt_clust_6="13000.00000" pt_clust_7="13000.00000" pt_clust_8="13000.00000" pt_clust_9="44.14542"></scales>
<clustering>
<clus scale="   44.145">  2  9  1 -1</clus>
<clus scale="   90.977">  5  6 -1 -1</clus>
<clus scale="   91.195">  7  8 -1 -1</clus>
<clus scale="  188.186">  2  5  1 -1</clus>
<clus scale="   44.145">  2  5  1 -1</clus>
</clustering>
</event>
<event>
 9    1  0.1636528E-005  0.1999311E+03  0.7546771E-02  0.1163571E+00
         21   -1    0    0  501  502  0.00000000000E+00  0.00000000000E+00  0.87063203592E+02  0.87063203592E+02  0.00000000000E+00 0. -1.
         -1   -1    0    0    0  501 -0.00000000000E+00 -0.00000000000E+00 -0.86705693210E+03  0.86705693210E+03  0.00000000000E+00 0.  1.
         23    2    1    2    0    0  0.69763935362E+02  0.87195713891E+02 -0.21369704793E+03  0.25814254493E+03  0.92201117193E+02 0.  0.
         23    2    1    2    0    0  0.15128830659E+02  0.13693905194E+03 -0.23296517291E+03  0.28542543940E+03  0.90629598955E+02 0.  0.
        -11    1    3    3    0    0  0.80666977449E+02  0.56160390850E+02 -0.19933087981E+03  0.22224749807E+03  0.00000000000E+00 0.  1.
         11    1    3    3    0    0 -0.10903042087E+02  0.31035323041E+02 -0.14366168122E+02  0.35895046866E+02  0.00000000000E+00 0. -1.
        -13    1    4    4    0    0  0.20710058067E+02  0.25429242193E+02 -0.72224243323E+01  0.33581487116E+02  0.00000000000E+00 0.  1.
         13    1    4    4    0    0 -0.55812274081E+01  0.11150980975E+03 -0.22574274858E+03  0.25184395229E+03  0.00000000000E+00 0. -1.
         -1    1    1    2    0  502 -0.84892766021E+02 -0.22413476583E+03 -0.33333150767E+03  0.41055215136E+03  0.00000000000E+00 0.  1.
<scales pt_clust_5="13000.00000" pt_clust_6="13000.00000" pt_clust_7="13000.00000" pt_clust_8="13000.00000" pt_clust_9="178.20983"></scales>
<clustering>
<clus scale="   90.630">  7  8 -1 -1</clus>
<clus scale="   92.201">  5  6 -1 -1</clus>
<clus scale="  144.814">  2  5  1 -1</clus>
<clus scale="  178.210">  1  9  2 -1</clus>
<clus scale="  178.210">  1  5  2 -1</clus>
</clustering>
</event>
<event>
 9    1  0.1636528E-005  0.2552101E+03  0.7546771E-02  0.1110169E+00
         21   -1    0    0  501  502  0.00000000000E+00  0.00000000000E+00  0.19253354413E+03  0.19253354413E+03  0.00000000000E+00 0. -1.
          1   -1    0    0  502    0 -0.00000000000E+00 -0.00000000000E+00 -0.61467570998E+03  0.61467570998E+03  0.00000000000E+00 0. -1.
         23    2    1    2    0    0  0.22045389619E+03  0.94358825320E+02 -0.42102769368E+03  0.49289710755E+03  0.90441868215E+02 0.  0.
         23    2    1    2    0    0 -0.23313579331E+03 -0.37703887784E+02  0.14961437963E+02  0.25407057164E+03  0.92488536968E+02 0.  0.
        -13    1    4    4    0    0 -0.12098049646E+03 -0.36734435702E+02  0.50897479264E+02  0.13629472728E+03  0.00000000000E+00 0.  1.
         13    1    4    4    0    0 -0.11215529685E+03 -0.96945208164E+00 -0.35936041301E+02  0.11777584436E+03  0.00000000000E+00 0. -1.
        -13    1    3    3    0    0  0.45635639228E+02  0.18922918889E+02 -0.17476611860E+03  0.18161465975E+03  0.00000000000E+00 0.  1.
         13    1    3    3    0    0  0.17481825696E+03  0.75435906430E+02 -0.24626157508E+03  0.31128244780E+03  0.00000000000E+00 0. -1.
          1    1    1    2  501    0  0.12681897122E+02 -0.56654937536E+02 -0.16075910126E+02  0.60241574915E+02  0.00000000000E+00 0. -1.
<scales pt_clust_5="13000.00000" pt_clust_6="13000.00000" pt_clust_7="13000.00000" pt_clust_8="13000.00000" pt_clust_9="58.05698"></scales>
<clustering>
<clus scale="   58.057">  1  9  2 -1</clus>
<clus scale="   90.442">  7  8 -1 -1</clus>
<clus scale="   92.489">  5  6 -1 -1</clus>
<clus scale="  254.476">  2  7  1 -1</clus>
<clus scale="   58.057">  1  5  2 -1</clus>
</clustering>
</event>
<event>
 9    1  0.1636528E-005  0.9614329E+02  0.7546771E-02  0.1290956E+00
         21   -1    0    0  501  502  0.00000000000E+00  0.00000000000E+00  0.70612444340E+02  0.70612444340E+02  0.00000000000E+00 0. -1.
         -1   -1    0    0    0  501 -0.00000000000E+00 -0.00000000000E+00 -0.20576330911E+03  0.20576330911E+03  0.00000000000E+00 0.  1.
         23    2    1    2    0    0  0.19490110535E+02  0.29451533025E+02 -0.11685764353E+03  0.15324625625E+03  0.92636110645E+02 0.  0.
         23    2    1    2    0    0  0.21966233416E+01 -0.11027557065E+02 -0.27502170063E+02  0.93220266945E+02  0.88358455409E+02 0.  0.
        -11    1    3    3    0    0  0.87825331552E+01 -0.33178338968E+02 -0.29702907556E+02  0.45389401655E+02  0.00000000000E+00 0.  1.
         11    1    3    3    0    0  0.10707577380E+02  0.62629871993E+02 -0.87154735976E+02  0.10785685459E+03  0.00000000000E+00 0. -1.
        -13    1    4    4    0    0  0.42841060767E+02 -0.18309264017E+02 -0.22137937116E+02  0.51581720563E+02  0.00000000000E+00 0. -1.
         13    1    4    4    0    0 -0.40644437425E+02  0.72817069514E+01 -0.53642329469E+01  0.41638546383E+02  0.00000000000E+00 0.  1.
         -1    1    1    2    0  502 -0.21686733877E+02 -0.18423975959E+02  0.92089488229E+01  0.29909230261E+02  0.00000000000E+00 0.  1.
<scales pt_clust_5="13000.00000" pt_clust_6="13000.00000" pt_clust_7="13000.00000" pt_clust_8="13000.00000" pt_clust_9="28.45624"></scales>
<clustering>
<clus scale="   28.456">  1  9  2 -1</clus>
<clus scale="   88.358">  7  8 -1 -1</clus>
<clus scale="   92.029">  1  7  2 -1</clus>
<clus scale="   92.636">  5  6 -1 -1</clus>
<clus scale="   28.456">  1  5  2 -1</clus>
</clustering>
</event>
<event>
 9    1  0.1636528E-005  0.2333289E+03  0.7546771E-02  0.1124376E+00
          1   -1    0    0  502    0 -0.00000000000E+00  0.00000000000E+00  0.43875096671E+03  0.43875096671E+03  0.00000000000E+00 0. -1.
         21   -1    0    0  501  502  0.00000000000E+00 -0.00000000000E+00 -0.45900484242E+03  0.45900484242E+03  0.00000000000E+00 0. -1.
         23    2    1    2    0    0  0.14577970770E+03  0.15843389799E+03  0.21846695943E+03  0.31993148339E+03  0.90968777564E+02 0.  0.
         23    2    1    2    0    0 -0.10437593715E+03 -0.19161650208E+03  0.84147727465E+02  0.25062489703E+03  0.90115364107E+02 0.  0.
        -11    1    4    4    0    0 -0.85877750817E+02 -0.66302464640E+02  0.27887041057E+02  0.11202094430E+03  0.00000000000E+00 0. -1.
         11    1    4    4    0    0 -0.18498186331E+02 -0.12531403744E+03  0.56260686408E+02  0.13860395273E+03  0.00000000000E+00 0.  1.
        -13    1    3    3    0    0  0.82078974526E+02  0.13452879782E+03  0.11108033805E+03  0.19280507514E+03  0.00000000000E+00 0. -1.
         13    1    3    3    0    0  0.63700733171E+02  0.23905100179E+02  0.10738662139E+03  0.12712640825E+03  0.00000000000E+00 0.  1.
          1    1    1    2  501    0 -0.41403770550E+02  0.33182604089E+02 -0.32286856261E+03  0.32719942871E+03  0.00000000000E+00 0. -1.
<scales pt_clust_5="13000.00000" pt_clust_6="13000.00000" pt_clust_7="13000.00000" pt_clust_8="13000.00000" pt_clust_9="53.05994"></scales>
<clustering>
<clus scale="   53.060">  2  9  1 -1</clus>
<clus scale="   90.115">  5  6 -1 -1</clus>
<clus scale="   90.969">  7  8 -1 -1</clus>
<clus scale="  232.998">  2  5  1 -1</clus>
<clus scale="   53.060">  2  5  1 -1</clus>
</clustering>
</event>
<event>
 9    1  0.1636528E-005  0.1482894E+03  0.7546771E-02  0.1214738E+00
         21   -1    0    0  501  502  0.00000000000E+00  0.00000000000E+00  0.22419766692E+03  0.22419766692E+03  0.00000000000E+00 0. -1.
         -1   -1    0    0    0  501 -0.00000000000E+00 -0.00000000000E+00 -0.20321243141E+03  0.20321243141E+03  0.00000000000E+00 0.  1.
         23    2    1    2    0    0  0.22427033803E+02 -0.64488995442E+02 -0.10320211237E+02  0.11480595111E+03  0.91717486189E+02 0.  0.
         23    2    1    2    0    0 -0.10645171258E+03 -0.24759627118E+02 -0.64986803197E+02  0.15672707812E+03  0.91624702891E+02 0.  0.
        -11    1    3    3    0    0 -0.38397713080E+01 -0.29359116564E+02 -0.48386878407E+02  0.56727344121E+02  0.00000000000E+00 0.  1.
         11    1    3    3    0    0  0.26266805111E+02 -0.35129878879E+02  0.38066667170E+02  0.58078606992E+02  0.00000000000E+00 0. -1.
        -11    1    4    4    0    0 -0.24916617091E+02  0.23636495330E+02  0.10079569746E+02  0.35792728941E+02  0.00000000000E+00 0.  1.
         11    1    4    4    0    0 -0.81535095489E+02 -0.48396122449E+02 -0.75066372943E+02  0.12093434918E+03  0.00000000000E+00 0. -1.
         -1    1    1    2    0  502  0.84024678777E+02  0.89248622560E+02  0.96292249938E+02  0.15587706910E+03  0.00000000000E+00 0.  1.
<scales pt_clust_5="13000.00000" pt_clust_6="13000.00000" pt_clust_7="13000.00000" pt_clust_8="13000.00000" pt_clust_9="116.59614"></scales>
<clustering>
<clus scale="   91.625">  7  8 -1 -1</clus>
<clus scale="   91.717">  5  6 -1 -1</clus>
<clus scale="  114.341">  2  5  1 -1</clus>
<clus scale="  116.596">  1  9  2 -1</clus>
<clus scale="  116.596">  1  5  2 -1</clus>
</clustering>
</event>
<event>
 9    1  0.1636528E-005  0.2382730E+03  0.7546771E-02  0.1121117E+00
         21   -1    0    0  501  502  0.00000000000E+00  0.00000000000E+00  0.10636691100E+03  0.10636691100E+03  0.00000000000E+00 0. -1.
          4   -1    0    0  502    0 -0.00000000000E+00 -0.00000000000E+00 -0.70803775408E+03  0.70803775408E+03  0.00000000000E+00 0. -1.
         23    2    1    2    0    0  0.20499593666E+03 -0.12397661141E+03 -0.42534469349E+03  0.49710382424E+03  0.93811350952E+02 0.  0.
         23    2    1    2    0    0 -0.15867586291E+03  0.10313396894E+03 -0.15954417374E+03  0.26380691884E+03  0.91241997101E+02 0.  0.
        -11    1    4    4    0    0 -0.11172468780E+02  0.51736622405E+02 -0.29749773139E+02  0.60716975866E+02  0.00000000000E+00 0.  1.
         11    1    4    4    0    0 -0.14750339413E+03  0.51397346533E+02 -0.12979440060E+03  0.20308994297E+03  0.00000000000E+00 0. -1.
        -13    1    3    3    0    0  0.57815949080E+02 -0.43720149435E+02 -0.22217926933E+03  0.23370443546E+03  0.00000000000E+00 0.  1.
         13    1    3    3    0    0  0.14717998758E+03 -0.80256461974E+02 -0.20316542416E+03  0.26339938877E+03  0.00000000000E+00 0. -1.
          4    1    1    2  501    0 -0.46320073754E+02  0.20842642472E+02 -0.16781975855E+02  0.53493922005E+02  0.00000000000E+00 0. -1.
<scales pt_clust_5="13000.00000" pt_clust_6="13000.00000" pt_clust_7="13000.00000" pt_clust_8="13000.00000" pt_clust_9="50.79336"></scales>
<clustering>
<clus scale="   50.793">  1  9  2 -1</clus>
<clus scale="   91.242">  5  6 -1 -1</clus>
<clus scale="   93.811">  7  8 -1 -1</clus>
<clus scale="  237.273">  1  5  2 -1</clus>
<clus scale="   50.793">  1  5  2 -1</clus>
</clustering>
</event>
<event>
 9    1  0.1636528E-005  0.1240954E+03  0.7546771E-02  0.1237055E+00
         21   -1    0    0  501  502  0.00000000000E+00  0.00000000000E+00  0.33993744916E+02  0.33993744916E+02  0.00000000000E+00 0. -1.
          1   -1    0    0  502    0 -0.00000000000E+00 -0.00000000000E+00 -0.72115589086E+03  0.72115589086E+03  0.00000000000E+00 0. -1.
         23    2    1    2    0    0 -0.41167667540E+02 -0.75117970281E+02 -0.37166584879E+03  0.39196605167E+03  0.90357048381E+02 0.  0.
         23    2    1    2    0    0  0.15909578458E+02  0.80404398631E+02 -0.31394074887E+03  0.33733136720E+03  0.92280417682E+02 0.  0.
        -11    1    3    3    0    0 -0.58390248170E+02 -0.86125628481E+02 -0.30846574519E+03  0.32554287109E+03  0.00000000000E+00 0. -1.
         11    1    3    3    0    0  0.17222580631E+02  0.11007658200E+02 -0.63200103602E+02  0.66423180577E+02  0.00000000000E+00 0.  1.
        -11    1    4    4    0    0 -0.31369071222E+02  0.60138481758E+01 -0.12213027250E+03  0.12623782500E+03  0.00000000000E+00 0.  1.
         11    1    4    4    0    0  0.47278649680E+02  0.74390550455E+02 -0.19181047637E+03  0.21109354220E+03  0.00000000000E+00 0. -1.
          1    1    1    2  501    0  0.25258089081E+02 -0.52864283493E+01 -0.15555482805E+01  0.25852216910E+02  0.00000000000E+00 0. -1.
<scales pt_clust_5="13000.00000" pt_clust_6="13000.00000" pt_clust_7="13000.00000" pt_clust_8="13000.00000" pt_clust_9="25.80538"></scales>
<clustering>
<clus scale="   25.805">  1  9  2 -1</clus>
<clus scale="   90.357">  5  6 -1 -1</clus>
<clus scale="   92.280">  7  8 -1 -1</clus>
<clus scale="  122.672">  2  5  1 -1</clus>
<clus scale="   25.805">  1  5  2 -1</clus>
</clustering>
</event>
<event>
 9    1  0.1636528E-005  0.1245721E+03  0.7546771E-02  0.1244598E+00
         21   -1    0    0  501  502  0.00000000000E+00  0.00000000000E+00  0.11797871680E+03  0.11797871680E+03  0.00000000000E+00 0.  1.
          2   -1    0    0  502    0 -0.00000000000E+00 -0.00000000000E+00 -0.25466758983E+03  0.25466758983E+03  0.00000000000E+00 0. -1.
         23    2    1    2    0    0  0.45551512966E+02  0.22079166266E+02 -0.78399747702E+02  0.13029274856E+03  0.90924419004E+02 0.  0.
         23    2    1    2    0    0  0.24512180799E+02  0.64804472979E+02  0.27100009176E+01  0.11515850566E+03  0.91943844798E+02 0.  0.
        -11    1    3    3    0    0  0.64662404795E+00 -0.32147112243E+02 -0.14727635278E+02  0.35366059847E+02  0.00000000000E+00 0. -1.
         11    1    3    3    0    0  0.44904888918E+02  0.54226278508E+02 -0.63672112424E+02  0.94926688713E+02  0.00000000000E+00 0.  1.
        -13    1    4    4    0    0  0.32248100360E+01  0.58285038962E+02  0.40674613759E+02  0.71147518376E+02  0.00000000000E+00 0.  1.
         13    1    4    4    0    0  0.21287370763E+02  0.65194340169E+01 -0.37964612841E+02  0.44010987288E+02  0.00000000000E+00 0. -1.
          2    1    1    2  501    0 -0.70063693765E+02 -0.86883639245E+02 -0.60999126243E+02  0.12719505240E+03  0.00000000000E+00 0. -1.
<scales pt_clust_5="13000.00000" pt_clust_6="13000.00000" pt_clust_7="13000.00000" pt_clust_8="13000.00000" pt_clust_9="84.05081"></scales>
<clustering>
<clus scale="   90.924">  5  6 -1 -1</clus>
<clus scale="   91.944">  7  8 -1 -1</clus>
<clus scale="  104.066">  2  5  1 -1</clus>
<clus scale="   84.051">  1  9  2 -1</clus>
<clus scale="   84.051">  1  5  2 -1</clus>
</clustering>
</event>
<event>
 9    1  0.1636528E-005  0.1116823E+03  0.7546771E-02  0.1259078E+00
         21   -1    0    0  501  502  0.00000000000E+00  0.00000000000E+00  0.18987681973E+03  0.18987681973E+03  0.00000000000E+00 0.  1.
         -2   -1    0    0    0  501 -0.00000000000E+00 -0.00000000000E+00 -0.28826501718E+03  0.28826501718E+03  0.00000000000E+00 0.  1.
         23    2    1    2    0    0  0.41277236116E+02 -0.40412070264E+02 -0.13784774893E+03  0.17286591000E+03  0.86854333868E+02 0.  0.
         23    2    1    2    0    0 -0.65055553025E+02  0.39380262002E+02 -0.10524595794E+03  0.15862614872E+03  0.91118128718E+02 0.  0.
        -11    1    3    3    0    0  0.13635756901E+02  0.24440273384E+02 -0.16394278914E+02  0.32435061438E+02  0.00000000000E+00 0.  1.
         11    1    3    3    0    0  0.27641479214E+02 -0.64852343648E+02 -0.12145347002E+03  0.14043084857E+03  0.00000000000E+00 0. -1.
        -13    1    4    4    0    0 -0.19001188378E+02  0.12257327939E+02 -0.10265483718E+03  0.10511566412E+03  0.00000000000E+00 0.  1.
         13    1    4    4    0    0 -0.46054364647E+02  0.27122934063E+02 -0.25911207621E+01  0.53510484599E+02  0.00000000000E+00 0. -1.
         -2    1    1    2    0  502  0.23778316910E+02  0.10318082618E+01  0.14470550943E+03  0.14664977818E+03  0.00000000000E+00 0.  1.
<scales pt_clust_5="13000.00000" pt_clust_6="13000.00000" pt_clust_7="13000.00000" pt_clust_8="13000.00000" pt_clust_9="23.80069"></scales>
<clustering>
<clus scale="   23.801">  1  9  2 -1</clus>
<clus scale="   86.854">  5  6 -1 -1</clus>
<clus scale="   91.118">  7  8 -1 -1</clus>
<clus scale="  108.232">  2  5  1 -1</clus>
<clus scale="   23.801">  1  5  2 -1</clus>
</clustering>
</event>
<event>
 9    1  0.1636528E-005  0.1247707E+03  0.7546771E-02  0.1236084E+00
         21   -1    0    0  501  502  0.00000000000E+00  0.00000000000E+00  0.86425844269E+03  0.86425844269E+03  0.00000000000E+00 0. -1.
          1   -1    0    0  502    0 -0.00000000000E+00 -0.00000000000E+00 -0.57105347415E+02  0.57105347415E+02  0.00000000000E+00 0. -1.
         23    2    1    2    0    0  0.15149092475E+01 -0.80888368142E+02  0.34856457799E+02  0.12651566687E+03  0.90807589240E+02 0.  0.
         23    2    1    2    0    0 -0.63852224738E+01  0.11832266657E+03  0.55892766605E+03  0.57816548752E+03  0.88510850152E+02 0.  0.
        -11    1    4    4    0    0  0.40509088550E+02  0.43103350696E+02  0.23478140857E+03  0.24211814246E+03  0.00000000000E+00 0.  1.
         11    1    4    4    0    0 -0.46894311024E+02  0.75219315877E+02  0.32414625748E+03  0.33604734507E+03  0.00000000000E+00 0. -1.
        -11    1    3    3    0    0 -0.24418259077E+02 -0.20694065540E+02  0.49886068509E+02  0.59271540863E+02  0.00000000000E+00 0.  1.
         11    1    3    3    0    0  0.25933168324E+02 -0.60194302601E+02 -0.15029610710E+02  0.67244126012E+02  0.00000000000E+00 0. -1.
          1    1    1    2  501    0  0.48703132263E+01 -0.37434298431E+02  0.21336897143E+03  0.21668263571E+03  0.00000000000E+00 0. -1.
<scales pt_clust_5="13000.00000" pt_clust_6="13000.00000" pt_clust_7="13000.00000" pt_clust_8="13000.00000" pt_clust_9="37.74979"></scales>
<clustering>
<clus scale="   37.750">  1  9  2 -1</clus>
<clus scale="   88.511">  5  6 -1 -1</clus>
<clus scale="   90.808">  7  8 -1 -1</clus>
<clus scale="  123.109">  1  5  2 -1</clus>
<clus scale="   37.750">  1  5  2 -1</clus>
</clustering>
</event>
<event>
 9    1  0.2176071E-005  0.1067975E+03  0.7546771E-02  0.1272463E+00
          2   -1    0    0  502    0 -0.00000000000E+00  0.00000000000E+00  0.34599466891E+03  0.34599466891E+03  0.00000000000E+00 0. -1.
         21   -1    0    0  501  502  0.00000000000E+00 -0.00000000000E+00 -0.22699650977E+03  0.22699650977E+03  0.00000000000E+00 0. -1.
         23    2    1    2    0    0  0.33121093596E+02 -0.49641116070E+02  0.28517253753E+03  0.30609876155E+03  0.93871339682E+02 0.  0.
         23    2    1    2    0    0 -0.13293055241E+02  0.16214323399E+02  0.12312089999E+02  0.84223533721E+02  0.80637500404E+02 0.  0.
        -11    1    4    4    0    0  0.31271063896E+02  0.12591175655E+02  0.19490704183E+02  0.38939757204E+02  0.00000000000E+00 0. -1.
         11    1    4    4    0    0 -0.44564119137E+02  0.36231477436E+01 -0.71786141837E+01  0.45283776517E+02  0.00000000000E+00 0.  1.
        -11    1    3    3    0    0 -0.87801935310E+01 -0.47439414180E+02  0.59709712865E+02  0.76764833268E+02  0.00000000000E+00 0.  1.
         11    1    3    3    0    0  0.41901287127E+02 -0.22017018894E+01  0.22546282466E+03  0.22933392828E+03  0.00000000000E+00 0. -1.
          2    1    1    2  501    0 -0.19828038356E+02  0.33426792671E+02 -0.17848646838E+03  0.18266888342E+03  0.00000000000E+00 0. -1.
<scales pt_clust_5="13000.00000" pt_clust_6="13000.00000" pt_clust_7="13000.00000" pt_clust_8="13000.00000" pt_clust_9="38.86517"></scales>
<clustering>
<clus scale="   38.865">  2  9  1 -1</clus>
<clus scale="   80.638">  5  6 -1 -1</clus>
<clus scale="   93.871">  7  8 -1 -1</clus>
<clus scale="   95.374">  2  5  1 -1</clus>
<clus scale="   38.865">  2  5  1 -1</clus>
</clustering>
</event>
<event>
 9    1  0.1636528E-005  0.1004233E+03  0.7546771E-02  0.1290106E+00
         21   -1    0    0  501  502  0.00000000000E+00  0.00000000000E+00  0.32286206357E+03  0.32286206357E+03  0.00000000000E+00 0. -1.
         -4   -1    0    0    0  501 -0.00000000000E+00 -0.00000000000E+00 -0.75038378636E+02  0.75038378636E+02  0.00000000000E+00 0.  1.
         23    2    1    2    0    0  0.36596157010E+02 -0.16894865175E+02 -0.20334051848E+02  0.87532910450E+02  0.74992143389E+02 0.  0.
         23    2    1    2    0    0 -0.71880095925E+01  0.65152035575E+01  0.95342761815E+02  0.13476117628E+03  0.94742899698E+02 0.  0.
        -11    1    4    4    0    0 -0.17547433965E+02  0.48461211690E+02  0.58633179214E+02  0.78065685048E+02  0.00000000000E+00 0. -1.
         11    1    4    4    0    0  0.10359424373E+02 -0.41946008133E+02  0.36709582600E+02  0.56695491234E+02  0.00000000000E+00 0.  1.
        -13    1    3    3    0    0  0.16794001985E+02 -0.41526576212E+02 -0.30662650486E+02  0.54283452077E+02  0.00000000000E+00 0.  1.
         13    1    3    3    0    0  0.19802155025E+02  0.24631711038E+02  0.10328598637E+02  0.33249458373E+02  0.00000000000E+00 0. -1.
         -4    1    1    2    0  502 -0.29408147418E+02  0.10379661617E+02  0.17281497497E+03  0.17560635548E+03  0.00000000000E+00 0.  1.
<scales pt_clust_5="13000.00000" pt_clust_6="13000.00000" pt_clust_7="13000.00000" pt_clust_8="13000.00000" pt_clust_9="31.18616"></scales>
<clustering>
<clus scale="   31.186">  1  9  2 -1</clus>
<clus scale="   74.992">  7  8 -1 -1</clus>
<clus scale="   82.051">  2  7  1 -1</clus>
<clus scale="   94.743">  5  6 -1 -1</clus>
<clus scale="   31.186">  1  5  2 -1</clus>
</clustering>
</event>
<event>
 9    1  0.1636528E-005  0.1111906E+03  0.7546771E-02  0.1259879E+00
          1   -1    0    0  502    0 -0.00000000000E+00  0.00000000000E+00  0.37541234964E+03  0.37541234964E+03  0.00000000000E+00 0. -1.
         21   -1    0    0  501  502  0.00000000000E+00 -0.00000000000E+00 -0.32390372335E+03  0.32390372335E+03  0.00000000000E+00 0.  1.
         23    2    1    2    0    0 -0.61276617093E+02 -0.16367722163E+02  0.35038567364E+03  0.36676412337E+03  0.87881031895E+02 0.  0.
         23    2    1    2    0    0  0.37697668856E+02  0.37076037264E+02 -0.17340028524E+03  0.20321046772E+03  0.91820958897E+02 0.  0.
        -11    1    3    3    0    0 -0.64742425379E+02  0.20115280836E+02  0.17681231327E+03  0.18936420013E+03  0.00000000000E+00 0. -1.
         11    1    3    3    0    0  0.34658082853E+01 -0.36483002998E+02  0.17357336037E+03  0.17739992324E+03  0.00000000000E+00 0.  1.
        -11    1    4    4    0    0  0.47249240027E+02  0.62630258541E+02 -0.13423830124E+03  0.15548299421E+03  0.00000000000E+00 0.  1.
         11    1    4    4    0    0 -0.95515711707E+01 -0.25554221277E+02 -0.39161983995E+02  0.47727473506E+02  0.00000000000E+00 0. -1.
          1    1    1    2  501    0  0.23578948237E+02 -0.20708315101E+02 -0.12547676210E+03  0.12934148191E+03  0.00000000000E+00 0. -1.
<scales pt_clust_5="13000.00000" pt_clust_6="13000.00000" pt_clust_7="13000.00000" pt_clust_8="13000.00000" pt_clust_9="31.38154"></scales>
<clustering>
<clus scale="   31.382">  2  9  1 -1</clus>
<clus scale="   87.881">  5  6 -1 -1</clus>
<clus scale="   91.821">  7  8 -1 -1</clus>
<clus scale="  107.960">  1  5  2 -1</clus>
<clus scale="   31.382">  2  5  1 -1</clus>
</clustering>
</event>
<event>
 9    1  0.1636528E-005  0.9521969E+02  0.7546771E-02  0.1292285E+00
          1   -1    0    0  502    0 -0.00000000000E+00  0.00000000000E+00  0.59467191022E+03  0.59467191022E+03  0.00000000000E+00 0. -1.
         21   -1    0    0  501  502  0.00000000000E+00 -0.00000000000E+00 -0.45679267666E+02  0.45679267666E+02  0.00000000000E+00 0.  1.
         23    2    1    2    0    0  0.14989636162E+02 -0.32066508300E+02  0.34834009456E+03  0.36198079256E+03  0.91849455944E+02 0.  0.
         23    2    1    2    0    0 -0.26604799843E+01  0.12117068554E+02  0.22639204974E+03  0.24354926834E+03  0.88932471117E+02 0.  0.
        -13    1    4    4    0    0  0.34708389564E+02 -0.18293750353E+02  0.12993032661E+03  0.13572480754E+03  0.00000000000E+00 0.  1.
         13    1    4    4    0    0 -0.37368869548E+02  0.30410818907E+02  0.96461723126E+02  0.10782446080E+03  0.00000000000E+00 0. -1.
        -13    1    3    3    0    0  0.44961634262E+02 -0.26328064667E+01  0.94448910766E+02  0.10463783718E+03  0.00000000000E+00 0.  1.
         13    1    3    3    0    0 -0.29971998100E+02 -0.29433701833E+02  0.25389118379E+03  0.25734295537E+03  0.00000000000E+00 0. -1.
          1    1    1    2  501    0 -0.12329156178E+02  0.19949439745E+02 -0.25739501746E+02  0.34821116988E+02  0.00000000000E+00 0. -1.
<scales pt_clust_5="13000.00000" pt_clust_6="13000.00000" pt_clust_7="13000.00000" pt_clust_8="13000.00000" pt_clust_9="23.45183"></scales>
<clustering>
<clus scale="   23.452">  2  9  1 -1</clus>
<clus scale="   88.932">  5  6 -1 -1</clus>
<clus scale="   91.849">  7  8 -1 -1</clus>
<clus scale="   92.409">  2  5  1 -1</clus>
<clus scale="   23.452">  2  5  1 -1</clus>
</clustering>
</event>
<event>
 9    1  0.1636528E-005  0.9275426E+02  0.7546771E-02  0.1297829E+00
         21   -1    0    0  501  502  0.00000000000E+00  0.00000000000E+00  0.74046506493E+02  0.74046506493E+02  0.00000000000E+00 0. -1.
         -2   -1    0    0    0  501 -0.00000000000E+00 -0.00000000000E+00 -0.33828987733E+03  0.33828987733E+03  0.00000000000E+00 0.  1.
         23    2    1    2    0    0  0.40757304400E+01 -0.19408912960E+01 -0.22401236308E+03  0.24215175442E+03  0.91845275980E+02 0.  0.
         23    2    1    2    0    0 -0.36004483624E+02 -0.11674274467E+02 -0.73842221847E+02  0.12186763724E+03  0.89254892045E+02 0.  0.
        -11    1    4    4    0    0  0.26354943966E+02 -0.17552072471E+02 -0.38851677985E+02  0.50120965690E+02  0.00000000000E+00 0.  1.
         11    1    4    4    0    0 -0.62359427591E+02  0.58777980045E+01 -0.34990543863E+02  0.71746671551E+02  0.00000000000E+00 0. -1.
        -11    1    3    3    0    0 -0.37532918478E+02  0.32504181496E+01 -0.46971373625E+02  0.60212914959E+02  0.00000000000E+00 0. -1.
         11    1    3    3    0    0  0.41608648918E+02 -0.51913094456E+01 -0.17704098945E+03  0.18193883946E+03  0.00000000000E+00 0.  1.
         -2    1    1    2    0  502  0.31928753184E+02  0.13615165763E+02  0.33611214090E+02  0.48316992159E+02  0.00000000000E+00 0.  1.
<scales pt_clust_5="13000.00000" pt_clust_6="13000.00000" pt_clust_7="13000.00000" pt_clust_8="13000.00000" pt_clust_9="34.71049"></scales>
<clustering>
<clus scale="   34.710">  1  9  2 -1</clus>
<clus scale="   89.255">  5  6 -1 -1</clus>
<clus scale="   90.190">  1  5  2 -1</clus>
<clus scale="   91.845">  7  8 -1 -1</clus>
<clus scale="   34.710">  1  5  2 -1</clus>
</clustering>
</event>
<event>
 9    1  0.1636528E-005  0.1171555E+03  0.7546771E-02  0.1248085E+00
         -1   -1    0    0    0  501 -0.00000000000E+00  0.00000000000E+00  0.45844420188E+03  0.45844420188E+03  0.00000000000E+00 0.  1.
         21   -1    0    0  501  502  0.00000000000E+00 -0.00000000000E+00 -0.84586312965E+02  0.84586312965E+02  0.00000000000E+00 0.  1.
         23    2    1    2    0    0  0.68586247999E+02  0.17961479649E+02  0.35399098343E+03  0.37249973856E+03  0.91759199571E+02 0.  0.
         23    2    1    2    0    0 -0.71368482875E+02 -0.48379837366E+02  0.42585712022E+02  0.13246292255E+03  0.91097826385E+02 0.  0.
        -11    1    4    4    0    0 -0.17965808225E+02 -0.24595336053E+02 -0.27611569464E+02  0.41110820826E+02  0.00000000000E+00 0. -1.
         11    1    4    4    0    0 -0.53402674649E+02 -0.23784501313E+02  0.70197281485E+02  0.91352101729E+02  0.00000000000E+00 0.  1.
        -13    1    3    3    0    0 -0.10643837683E+02 -0.20252359831E+02  0.12731319381E+03  0.12935261372E+03  0.00000000000E+00 0. -1.
         13    1    3    3    0    0  0.79230085681E+02  0.38213839480E+02  0.22667778963E+03  0.24314712484E+03  0.00000000000E+00 0.  1.
         -1    1    1    2    0  502  0.27822348761E+01  0.30418357717E+02 -0.22718806543E+02  0.38067853733E+02  0.00000000000E+00 0.  1.
<scales pt_clust_5="13000.00000" pt_clust_6="13000.00000" pt_clust_7="13000.00000" pt_clust_8="13000.00000" pt_clust_9="30.54533"></scales>
<clustering>
<clus scale="   30.545">  2  9  1 -1</clus>
<clus scale="   91.098">  5  6 -1 -1</clus>
<clus scale="   91.759">  7  8 -1 -1</clus>
<clus scale="  116.638">  2  5  1 -1</clus>
<clus scale="   30.545">  2  5  1 -1</clus>
</clustering>
</event>
<event>
 9    1  0.1636528E-005  0.1087072E+03  0.7546771E-02  0.1263630E+00
          1   -1    0    0  502    0 -0.00000000000E+00  0.00000000000E+00  0.22107525263E+03  0.22107525263E+03  0.00000000000E+00 0. -1.
         21   -1    0    0  501  502  0.00000000000E+00 -0.00000000000E+00 -0.10209324567E+03  0.10209324567E+03  0.00000000000E+00 0.  1.
         23    2    1    2    0    0  0.29673210185E+02  0.42281174903E+02  0.94690983148E+02  0.14245501875E+03  0.93052957628E+02 0.  0.
         23    2    1    2    0    0 -0.52793911820E+02 -0.36572253656E+02  0.68088497294E+02  0.13085992090E+03  0.91452438855E+02 0.  0.
        -13    1    3    3    0    0 -0.30428671292E+02  0.10285691630E+02  0.96973665896E+01  0.33552025389E+02  0.00000000000E+00 0.  1.
         13    1    3    3    0    0  0.60101881477E+02  0.31995483273E+02  0.84993616558E+02  0.10890299336E+03  0.00000000000E+00 0. -1.
        -13    1    4    4    0    0 -0.78936245715E+02 -0.30147464046E+02  0.55860685109E+02  0.10129272736E+03  0.00000000000E+00 0.  1.
         13    1    4    4    0    0  0.26142333895E+02 -0.64247896103E+01  0.12227812185E+02  0.29567193540E+02  0.00000000000E+00 0. -1.
          1    1    1    2  501    0  0.23120701635E+02 -0.57089212465E+01 -0.43797473483E+02  0.49853558643E+02  0.00000000000E+00 0. -1.
<scales pt_clust_5="13000.00000" pt_clust_6="13000.00000" pt_clust_7="13000.00000" pt_clust_8="13000.00000" pt_clust_9="23.81509"></scales>
<clustering>
<clus scale="   23.815">  2  9  1 -1</clus>
<clus scale="   91.452">  7  8 -1 -1</clus>
<clus scale="   93.053">  5  6 -1 -1</clus>
<clus scale="  107.340">  2  7  1 -1</clus>
<clus scale="   23.815">  2  5  1 -1</clus>
</clustering>
</event>
<event>
 9    1  0.1636528E-005  0.2150653E+03  0.7546771E-02  0.1138819E+00
         -4   -1    0    0    0  501 -0.00000000000E+00  0.00000000000E+00  0.12003570377E+03  0.12003570377E+03  0.00000000000E+00 0.  1.
         21   -1    0    0  501  502  0.00000000000E+00 -0.00000000000E+00 -0.55831791663E+03  0.55831791663E+03  0.00000000000E+00 0.  1.
         23    2    1    2    0    0 -0.42288220299E+02 -0.19232263903E+03 -0.84781063197E+02  0.23878580220E+03  0.10514057066E+03 0.  0.
         23    2    1    2    0    0  0.41365668063E+02  0.16943962707E+03 -0.18771989767E+03  0.27221218831E+03  0.91868437284E+02 0.  0.
        -13    1    3    3    0    0 -0.35304635021E+02 -0.10649356076E+02 -0.33659290731E+02  0.49927686620E+02  0.00000000000E+00 0. -1.
         13    1    3    3    0    0 -0.69835852784E+01 -0.18167328295E+03 -0.51121772466E+02  0.18885811558E+03  0.00000000000E+00 0.  1.
        -13    1    4    4    0    0 -0.21832840142E+02  0.73583258180E+01 -0.25163051973E+02  0.34117401016E+02  0.00000000000E+00 0.  1.
         13    1    4    4    0    0  0.63198508205E+02  0.16208130125E+03 -0.16255684570E+03  0.23809478729E+03  0.00000000000E+00 0. -1.
         -4    1    1    2    0  502  0.92255223646E+00  0.22883011962E+02 -0.16578125200E+03  0.16735562988E+03  0.00000000000E+00 0.  1.
<scales pt_clust_5="13000.00000" pt_clust_6="13000.00000" pt_clust_7="13000.00000" pt_clust_8="13000.00000" pt_clust_9="22.90160"></scales>
<clustering>
<clus scale="   22.902">  2  9  1 -1</clus>
<clus scale="   91.868">  7  8 -1 -1</clus>
<clus scale="  105.141">  5  6 -1 -1</clus>
<clus scale="  208.898">  2  7  1 -1</clus>
<clus scale="   22.902">  2  5  1 -1</clus>
</clustering>
</event>
<event>
 9    1  0.1636528E-005  0.1346184E+03  0.7546771E-02  0.1224084E+00
         21   -1    0    0  501  502  0.00000000000E+00  0.00000000000E+00  0.40750294144E+03  0.40750294144E+03  0.00000000000E+00 0. -1.
          2   -1    0    0  502    0 -0.00000000000E+00 -0.00000000000E+00 -0.62357710918E+02  0.62357710918E+02  0.00000000000E+00 0. -1.
         23    2    1    2    0    0  0.57450677790E+01  0.84436261015E+02  0.60139230789E+02  0.13826809468E+03  0.91317309147E+02 0.  0.
         23    2    1    2    0    0  0.21000251073E+02 -0.90199501377E+02  0.20979842229E+03  0.25156314605E+03  0.10340056993E+03 0.  0.
        -11    1    4    4    0    0  0.26389046857E+02 -0.34883335336E+02  0.10945155144E+02  0.45089081819E+02  0.00000000000E+00 0.  1.
         11    1    4    4    0    0 -0.53887957843E+01 -0.55316166041E+02  0.19885326714E+03  0.20647406423E+03  0.00000000000E+00 0. -1.
        -13    1    3    3    0    0 -0.25150038489E+02  0.82526080869E+02  0.63513017356E+02  0.10713067643E+03  0.00000000000E+00 0.  1.
         13    1    3    3    0    0  0.30895106268E+02  0.19101801459E+01 -0.33737865671E+01  0.31137418250E+02  0.00000000000E+00 0. -1.
          2    1    1    2  501    0 -0.26745318852E+02  0.57632403617E+01  0.75207577449E+02  0.80029411629E+02  0.00000000000E+00 0. -1.
<scales pt_clust_5="13000.00000" pt_clust_6="13000.00000" pt_clust_7="13000.00000" pt_clust_8="13000.00000" pt_clust_9="27.35922"></scales>
<clustering>
<clus scale="   27.359">  1  9  2 -1</clus>
<clus scale="   91.317">  7  8 -1 -1</clus>
<clus scale="  103.401">  5  6 -1 -1</clus>
<clus scale="  125.576">  2  7  1 -1</clus>
<clus scale="   27.359">  1  5  2 -1</clus>
</clustering>
</event>
<event>
 9    1  0.1636528E-005  0.1402569E+03  0.7546771E-02  0.1213850E+00
          2   -1    0    0  502    0 -0.00000000000E+00  0.00000000000E+00  0.59773832547E+03  0.59773832547E+03  0.00000000000E+00 0. -1.
         21   -1    0    0  501  502  0.00000000000E+00 -0.00000000000E+00 -0.71538350052E+02  0.71538350052E+02  0.00000000000E+00 0. -1.
         23    2    1    2    0    0  0.10563065459E+03 -0.51411339581E+02  0.39623321953E+03  0.42216143631E+03  0.86131022444E+02 0.  0.
         23    2    1    2    0    0 -0.76234994476E+02  0.48861116960E+02  0.16016668183E+03  0.20489387026E+03  0.90160684159E+02 0.  0.
        -13    1    4    4    0    0 -0.54573172126E+02  0.71680466282E+01  0.22557886204E+02  0.59485042139E+02  0.00000000000E+00 0.  1.
         13    1    4    4    0    0 -0.21661822350E+02  0.41693070332E+02  0.13760879563E+03  0.14540882812E+03  0.00000000000E+00 0. -1.
        -13    1    3    3    0    0  0.23429136591E+02 -0.57501791472E+02  0.19689752273E+03  0.20645584254E+03  0.00000000000E+00 0.  1.
         13    1    3    3    0    0  0.82201517999E+02  0.60904518914E+01  0.19933569680E+03  0.21570559377E+03  0.00000000000E+00 0. -1.
          2    1    1    2  501    0 -0.29395660115E+02  0.25502226200E+01 -0.30199925941E+02  0.42221368948E+02  0.00000000000E+00 0. -1.
<scales pt_clust_5="13000.00000" pt_clust_6="13000.00000" pt_clust_7="13000.00000" pt_clust_8="13000.00000" pt_clust_9="29.50608"></scales>
<clustering>
<clus scale="   29.506">  2  9  1 -1</clus>
<clus scale="   86.131">  7  8 -1 -1</clus>
<clus scale="   90.161">  5  6 -1 -1</clus>
<clus scale="  137.701">  1  7  2 -1</clus>
<clus scale="   29.506">  2  5  1 -1</clus>
</clustering>
</event>
<event>
 9    1  0.1636528E-005  0.9175050E+02  0.7546771E-02  0.1299020E+00
         21   -1    0    0  501  502  0.00000000000E+00  0.00000000000E+00  0.43026522769E+02  0.43026522769E+02  0.00000000000E+00 0. -1.
          2   -1    0    0  502    0 -0.00000000000E+00 -0.00000000000E+00 -0.33057101028E+03  0.33057101028E+03  0.00000000000E+00 0. -1.
         23    2    1    2    0    0 -0.15519768455E+02 -0.13059180877E+02 -0.14662397855E+03  0.17380735973E+03  0.91098857260E+02 0.  0.
         23    2    1    2    0    0 -0.17561265199E+02  0.86456165847E+01 -0.13814059663E+03  0.16630043982E+03  0.90497884646E+02 0.  0.
        -11    1    3    3    0    0  0.20402068332E+02  0.19551452551E+02 -0.11985993277E+02  0.30694750755E+02  0.00000000000E+00 0.  1.
         11    1    3    3    0    0 -0.35921836787E+02 -0.32610633428E+02 -0.13463798527E+03  0.14311260898E+03  0.00000000000E+00 0. -1.
        -13    1    4    4    0    0  0.23610235206E+02 -0.22227612054E+02 -0.21763956752E+02  0.39053549872E+02  0.00000000000E+00 0.  1.
         13    1    4    4    0    0 -0.41171500405E+02  0.30873228639E+02 -0.11637663988E+03  0.12724688995E+03  0.00000000000E+00 0. -1.
          2    1    1    2  501    0  0.33081033653E+02  0.44135642925E+01 -0.27799123376E+01  0.33489733501E+02  0.00000000000E+00 0. -1.
<scales pt_clust_5="13000.00000" pt_clust_6="13000.00000" pt_clust_7="13000.00000" pt_clust_8="13000.00000" pt_clust_9="33.37416"></scales>
<clustering>
<clus scale="   33.374">  1  9  2 -1</clus>
<clus scale="   90.498">  7  8 -1 -1</clus>
<clus scale="   91.099">  5  6 -1 -1</clus>
<clus scale="   91.154">  1  7  2 -1</clus>
<clus scale="   33.374">  1  5  2 -1</clus>
</clustering>
</event>
<event>
 9    1  0.1636528E-005  0.1089332E+03  0.7546771E-02  0.1262808E+00
         21   -1    0    0  501  502  0.00000000000E+00  0.00000000000E+00  0.16487100334E+03  0.16487100334E+03  0.00000000000E+00 0.  1.
         -1   -1    0    0    0  501 -0.00000000000E+00 -0.00000000000E+00 -0.18494733224E+03  0.18494733224E+03  0.00000000000E+00 0.  1.
         23    2    1    2    0    0 -0.54999159313E+02 -0.31866420277E+02 -0.11577708723E+03  0.16053481811E+03  0.91250850035E+02 0.  0.
         23    2    1    2    0    0  0.44980276766E+02  0.12064360838E+02  0.13202692768E+02  0.10385266598E+03  0.91881940744E+02 0.  0.
        -13    1    3    3    0    0 -0.39300199165E+02 -0.18127078060E+02 -0.39419460583E+00  0.43281081350E+02  0.00000000000E+00 0. -1.
         13    1    3    3    0    0 -0.15698960148E+02 -0.13739342217E+02 -0.11538289262E+03  0.11725373676E+03  0.00000000000E+00 0.  1.
        -13    1    4    4    0    0 -0.23431940009E+02 -0.93144133607E+01  0.19537082352E+02  0.31898459143E+02  0.00000000000E+00 0.  1.
         13    1    4    4    0    0  0.68412216776E+02  0.21378774199E+02 -0.63343895847E+01  0.71954206839E+02  0.00000000000E+00 0. -1.
         -1    1    1    2    0  502  0.10018882547E+02  0.19802059439E+02  0.82498065560E+02  0.85430851492E+02  0.00000000000E+00 0.  1.
<scales pt_clust_5="13000.00000" pt_clust_6="13000.00000" pt_clust_7="13000.00000" pt_clust_8="13000.00000" pt_clust_9="22.19233"></scales>
<clustering>
<clus scale="   22.192">  1  9  2 -1</clus>
<clus scale="   91.251">  5  6 -1 -1</clus>
<clus scale="   91.882">  7  8 -1 -1</clus>
<clus scale="  108.401">  2  5  1 -1</clus>
<clus scale="   22.192">  1  5  2 -1</clus>
</clustering>
</event>
<event>
 9    1  0.1636528E-005  0.1243740E+03  0.7546771E-02  0.1243849E+00
         21   -1    0    0  501  502  0.00000000000E+00  0.00000000000E+00  0.40427110599E+03  0.40427110599E+03  0.00000000000E+00 0. -1.
         -3   -1    0    0    0  501 -0.00000000000E+00 -0.00000000000E+00 -0.45760373955E+02  0.45760373955E+02  0.00000000000E+00 0.  1.
         23    2    1    2    0    0 -0.34494686485E+02 -0.45347184407E+02  0.93028003354E+02  0.15566938087E+03  0.11105177262E+03 0.  0.
         23    2    1    2    0    0  0.16356207614E+02  0.54046230530E+02  0.23316927633E+03  0.25629850726E+03  0.90180335097E+02 0.  0.
        -11    1    3    3    0    0 -0.68983125713E+02 -0.17307283068E+01  0.47059437745E+02  0.83523994962E+02  0.00000000000E+00 0. -1.
         11    1    3    3    0    0  0.34488439228E+02 -0.43616456100E+02  0.45968565609E+02  0.72145385904E+02  0.00000000000E+00 0.  1.
        -11    1    4    4    0    0 -0.84105952476E+01  0.74027913032E+02  0.15894996820E+03  0.17554475899E+03  0.00000000000E+00 0. -1.
         11    1    4    4    0    0  0.24766802862E+02 -0.19981682502E+02  0.74219308134E+02  0.80753748269E+02  0.00000000000E+00 0.  1.
         -3    1    1    2    0  502  0.18138478871E+02 -0.86990461227E+01  0.32313452353E+02  0.38063591819E+02  0.00000000000E+00 0.  1.
<scales pt_clust_5="13000.00000" pt_clust_6="13000.00000" pt_clust_7="13000.00000" pt_clust_8="13000.00000" pt_clust_9="20.11661"></scales>
<clustering>
<clus scale="   20.117">  1  9  2 -1</clus>
<clus scale="   90.180">  7  8 -1 -1</clus>
<clus scale="  106.155">  1  7  2 -1</clus>
<clus scale="  111.052">  5  6 -1 -1</clus>
<clus scale="   20.117">  1  5  2 -1</clus>
</clustering>
</event>
<event>
 9    1  0.1636528E-005  0.1349114E+03  0.7546771E-02  0.1223251E+00
          1   -1    0    0  502    0 -0.00000000000E+00  0.00000000000E+00  0.30466464568E+03  0.30466464568E+03  0.00000000000E+00 0. -1.
         21   -1    0    0  501  502  0.00000000000E+00 -0.00000000000E+00 -0.16503028299E+03  0.16503028299E+03  0.00000000000E+00 0. -1.
         23    2    1    2    0    0  0.25884618657E+02 -0.81763431009E+02  0.14903892292E+03  0.18907809170E+03  0.78629842183E+02 0.  0.
         23    2    1    2    0    0 -0.68115538875E+02  0.12197686832E+03  0.71091599308E+02  0.18121762740E+03  0.90927058384E+02 0.  0.
        -11    1    4    4    0    0 -0.31401246685E+02 -0.55719766260E+01  0.29716797564E+01  0.32029925030E+02  0.00000000000E+00 0.  1.
         11    1    4    4    0    0 -0.36714292190E+02  0.12754884495E+03  0.68119919551E+02  0.14918770237E+03  0.00000000000E+00 0. -1.
        -13    1    3    3    0    0 -0.13632116878E+02 -0.74620283440E+02  0.10419133693E+03  0.12887923030E+03  0.00000000000E+00 0. -1.
         13    1    3    3    0    0  0.39516735536E+02 -0.71431475694E+01  0.44847585983E+02  0.60198861393E+02  0.00000000000E+00 0.  1.
          1    1    1    2  501    0  0.42230920218E+02 -0.40213437312E+02 -0.80496159534E+02  0.99399209567E+02  0.00000000000E+00 0. -1.
<scales pt_clust_5="13000.00000" pt_clust_6="13000.00000" pt_clust_7="13000.00000" pt_clust_8="13000.00000" pt_clust_9="58.31442"></scales>
<clustering>
<clus scale="   58.314">  2  9  1 -1</clus>
<clus scale="   78.630">  7  8 -1 -1</clus>
<clus scale="   90.927">  5  6 -1 -1</clus>
<clus scale="  126.949">  1  7  2 -1</clus>
<clus scale="   58.314">  2  5  1 -1</clus>
</clustering>
</event>
<event>
 9    1  0.1636528E-005  0.1247846E+03  0.7546771E-02  0.1235619E+00
         21   -1    0    0  501  502  0.00000000000E+00  0.00000000000E+00  0.57327024184E+03  0.57327024184E+03  0.00000000000E+00 0.  1.
          3   -1    0    0  502    0 -0.00000000000E+00 -0.00000000000E+00 -0.53163234326E+02  0.53163234326E+02  0.00000000000E+00 0. -1.
         23    2    1    2    0    0 -0.67226241330E+02  0.47586555601E+02  0.56033651812E+02  0.13396172685E+03  0.89566323625E+02 0.  0.
         23    2    1    2    0    0  0.77832267478E+02 -0.68658543411E+02  0.42616113132E+03  0.44781916576E+03  0.90315214266E+02 0.  0.
        -11    1    3    3    0    0 -0.45110613794E+02  0.63642808070E+02  0.68600182706E+02  0.10388146882E+03  0.00000000000E+00 0. -1.
         11    1    3    3    0    0 -0.22115627536E+02 -0.16056252469E+02 -0.12566530894E+02  0.30080258034E+02  0.00000000000E+00 0.  1.
        -13    1    4    4    0    0  0.67953433595E+02 -0.26391598885E+02  0.36852825371E+03  0.37566908232E+03  0.00000000000E+00 0.  1.
         13    1    4    4    0    0  0.98788338829E+01 -0.42266944527E+02  0.57632877615E+02  0.72150083442E+02  0.00000000000E+00 0. -1.
          3    1    1    2  501    0 -0.10606026147E+02  0.21071987811E+02  0.37912224376E+02  0.44652583554E+02  0.00000000000E+00 0. -1.
<scales pt_clust_5="13000.00000" pt_clust_6="13000.00000" pt_clust_7="13000.00000" pt_clust_8="13000.00000" pt_clust_9="23.59060"></scales>
<clustering>
<clus scale="   23.591">  1  9  2 -1</clus>
<clus scale="   89.566">  5  6 -1 -1</clus>
<clus scale="   90.315">  7  8 -1 -1</clus>
<clus scale="  124.244">  2  5  1 -1</clus>
<clus scale="   23.591">  1  5  2 -1</clus>
</clustering>
</event>
<event>
 9    1  0.1636528E-005  0.9980903E+02  0.7546771E-02  0.1283817E+00
          2   -1    0    0  502    0 -0.00000000000E+00  0.00000000000E+00  0.38393031840E+03  0.38393031840E+03  0.00000000000E+00 0. -1.
         21   -1    0    0  501  502  0.00000000000E+00 -0.00000000000E+00 -0.62955358696E+02  0.62955358696E+02  0.00000000000E+00 0. -1.
         23    2    1    2    0    0 -0.45171634492E+02  0.17082540322E+02  0.21190532061E+03  0.23685189884E+03  0.94141740653E+02 0.  0.
         23    2    1    2    0    0  0.36717116845E+01 -0.25083752859E+02  0.13297161623E+03  0.16147898954E+03  0.88041678855E+02 0.  0.
        -13    1    3    3    0    0  0.17705341102E+02 -0.16838295879E+02  0.10816800668E+03  0.11089330449E+03  0.00000000000E+00 0.  1.
         13    1    3    3    0    0 -0.62876975594E+02  0.33920836202E+02  0.10373731394E+03  0.12595859435E+03  0.00000000000E+00 0. -1.
        -13    1    4    4    0    0  0.43823822038E+02 -0.96301672960E+01  0.44984095428E+02  0.63536102663E+02  0.00000000000E+00 0.  1.
         13    1    4    4    0    0 -0.40152110354E+02 -0.15453585563E+02  0.87987520807E+02  0.97942886880E+02  0.00000000000E+00 0. -1.
          2    1    1    2  501    0  0.41499922807E+02  0.80012125368E+01 -0.23901977148E+02  0.48554788710E+02  0.00000000000E+00 0. -1.
<scales pt_clust_5="13000.00000" pt_clust_6="13000.00000" pt_clust_7="13000.00000" pt_clust_8="13000.00000" pt_clust_9="42.26420"></scales>
<clustering>
<clus scale="   42.264">  2  9  1 -1</clus>
<clus scale="   88.042">  7  8 -1 -1</clus>
<clus scale="   94.077">  2  7  1 -1</clus>
<clus scale="   94.142">  5  6 -1 -1</clus>
<clus scale="   42.264">  2  5  1 -1</clus>
</clustering>
</event>
<event>
 9    1  0.1636528E-005  0.9540525E+02  0.7546771E-02  0.1291317E+00
         21   -1    0    0  501  502  0.00000000000E+00  0.00000000000E+00  0.28326390380E+03  0.28326390380E+03  0.00000000000E+00 0. -1.
          3   -1    0    0  502    0 -0.00000000000E+00 -0.00000000000E+00 -0.57834666224E+02  0.57834666224E+02  0.00000000000E+00 0. -1.
         23    2    1    2    0    0 -0.20885374715E+02 -0.74389604070E-01  0.40477995872E+02  0.10169318713E+03  0.90922119135E+02 0.  0.
         23    2    1    2    0    0  0.18483908812E+02  0.21540761693E+02  0.63385419393E+02  0.11593546217E+03  0.92831356220E+02 0.  0.
        -11    1    4    4    0    0  0.52694500592E+02  0.20085165652E+02  0.18231186611E+02  0.59266351644E+02  0.00000000000E+00 0.  1.
         11    1    4    4    0    0 -0.34210591780E+02  0.14555960409E+01  0.45154232782E+02  0.56669110527E+02  0.00000000000E+00 0. -1.
        -13    1    3    3    0    0 -0.33940654672E+02 -0.38643654645E+02  0.30402632701E+02  0.59746298287E+02  0.00000000000E+00 0.  1.
         13    1    3    3    0    0  0.13055279957E+02  0.38569265041E+02  0.10075363170E+02  0.41946888842E+02  0.00000000000E+00 0. -1.
          3    1    1    2  501    0  0.24014659029E+01 -0.21466372089E+02  0.12156582231E+03  0.12346992072E+03  0.00000000000E+00 0. -1.
<scales pt_clust_5="13000.00000" pt_clust_6="13000.00000" pt_clust_7="13000.00000" pt_clust_8="13000.00000" pt_clust_9="21.60028"></scales>
<clustering>
<clus scale="   21.600">  1  9  2 -1</clus>
<clus scale="   90.922">  7  8 -1 -1</clus>
<clus scale="   92.831">  5  6 -1 -1</clus>
<clus scale="   93.549">  2  7  1 -1</clus>
<clus scale="   21.600">  1  5  2 -1</clus>
</clustering>
</event>
<event>
 9    1  0.1636528E-005  0.9497476E+02  0.7546771E-02  0.1291346E+00
         21   -1    0    0  501  502  0.00000000000E+00  0.00000000000E+00  0.91124568325E+02  0.91124568325E+02  0.00000000000E+00 0.  1.
          2   -1    0    0  502    0 -0.00000000000E+00 -0.00000000000E+00 -0.15712766017E+03  0.15712766017E+03  0.00000000000E+00 0. -1.
         23    2    1    2    0    0 -0.24073849463E+02  0.55384210790E+01 -0.71994396421E+02  0.11836525804E+03  0.90647210979E+02 0.  0.
         23    2    1    2    0    0  0.27439049800E+02 -0.25787178609E+02 -0.16603384615E+02  0.99360641908E+02  0.90437739606E+02 0.  0.
        -11    1    3    3    0    0  0.10016706356E+02 -0.34164293173E+02 -0.94876610029E+01  0.36844932427E+02  0.00000000000E+00 0.  1.
         11    1    3    3    0    0 -0.34090555819E+02  0.39702714252E+02 -0.62506735418E+02  0.81520325610E+02  0.00000000000E+00 0. -1.
        -13    1    4    4    0    0 -0.85576693189E+01 -0.48996755753E+02 -0.25073096597E+02  0.55700771551E+02  0.00000000000E+00 0.  1.
         13    1    4    4    0    0  0.35996719119E+02  0.23209577144E+02  0.84697119812E+01  0.43659870357E+02  0.00000000000E+00 0. -1.
          2    1    1    2  501    0 -0.33652003372E+01  0.20248757530E+02  0.22594689193E+02  0.30526328547E+02  0.00000000000E+00 0. -1.
<scales pt_clust_5="13000.00000" pt_clust_6="13000.00000" pt_clust_7="13000.00000" pt_clust_8="13000.00000" pt_clust_9="20.52649"></scales>
<clustering>
<clus scale="   20.526">  1  9  2 -1</clus>
<clus scale="   90.438">  7  8 -1 -1</clus>
<clus scale="   90.647">  5  6 -1 -1</clus>
<clus scale="   94.775">  1  7  2 -1</clus>
<clus scale="   20.526">  1  5  2 -1</clus>
</clustering>
</event>
<event>
 9    1  0.1636528E-005  0.1390281E+03  0.7546771E-02  0.1214782E+00
         21   -1    0    0  501  502  0.00000000000E+00  0.00000000000E+00  0.64952052418E+02  0.64952052418E+02  0.00000000000E+00 0.  1.
          1   -1    0    0  502    0 -0.00000000000E+00 -0.00000000000E+00 -0.65674352236E+03  0.65674352236E+03  0.00000000000E+00 0. -1.
         23    2    1    2    0    0 -0.67379471034E+02  0.87249373997E+02 -0.52160446076E+03  0.54067457893E+03  0.90029664235E+02 0.  0.
         23    2    1    2    0    0  0.73104969911E+02 -0.47457888659E+02 -0.44929582397E+02  0.13354383028E+03  0.90657042798E+02 0.  0.
        -13    1    3    3    0    0 -0.19126288524E+02 -0.72499023634E+01 -0.22464745062E+02  0.30381585997E+02  0.00000000000E+00 0.  1.
         13    1    3    3    0    0 -0.48253182510E+02  0.94499276361E+02 -0.49913971569E+03  0.51029299294E+03  0.00000000000E+00 0. -1.
        -13    1    4    4    0    0 -0.17163050475E+02 -0.28049675596E+02 -0.17358510330E+02  0.37184304263E+02  0.00000000000E+00 0. -1.
         13    1    4    4    0    0  0.90268020385E+02 -0.19408213063E+02 -0.27571072067E+02  0.96359526014E+02  0.00000000000E+00 0.  1.
          1    1    1    2  501    0 -0.57254988766E+01 -0.39791485338E+02 -0.25257426792E+02  0.47477165574E+02  0.00000000000E+00 0. -1.
<scales pt_clust_5="13000.00000" pt_clust_6="13000.00000" pt_clust_7="13000.00000" pt_clust_8="13000.00000" pt_clust_9="40.20129"></scales>
<clustering>
<clus scale="   40.201">  1  9  2 -1</clus>
<clus scale="   90.030">  5  6 -1 -1</clus>
<clus scale="   90.657">  7  8 -1 -1</clus>
<clus scale="  138.620">  2  5  1 -1</clus>
<clus scale="   40.201">  1  5  2 -1</clus>
</clustering>
</event>
<event>
 9    1  0.1636528E-005  0.1179523E+03  0.7546771E-02  0.1247378E+00
         21   -1    0    0  501  502  0.00000000000E+00  0.00000000000E+00  0.34296489513E+02  0.34296489513E+02  0.00000000000E+00 0.  1.
          1   -1    0    0  502    0 -0.00000000000E+00 -0.00000000000E+00 -0.56197549448E+03  0.56197549448E+03  0.00000000000E+00 0. -1.
         23    2    1    2    0    0  0.55726830129E+02  0.31571588916E+02 -0.28298037703E+03  0.30362559387E+03  0.89489455478E+02 0.  0.
         23    2    1    2    0    0 -0.76176436162E+02 -0.46576141666E+02 -0.22993941000E+03  0.26330090488E+03  0.92103462718E+02 0.  0.
        -11    1    4    4    0    0 -0.39751075721E+02 -0.71231464254E+02 -0.12215823152E+03  0.14689010535E+03  0.00000000000E+00 0. -1.
         11    1    4    4    0    0 -0.36425360440E+02  0.24655322588E+02 -0.10778117848E+03  0.11641079954E+03  0.00000000000E+00 0.  1.
        -13    1    3    3    0    0 -0.10528296665E+02  0.41684144207E+02 -0.10699852979E+03  0.11531304474E+03  0.00000000000E+00 0.  1.
         13    1    3    3    0    0  0.66255126794E+02 -0.10112555291E+02 -0.17598184724E+03  0.18831254913E+03  0.00000000000E+00 0. -1.
          1    1    1    2  501    0  0.20449606033E+02  0.15004552750E+02 -0.14759217940E+02  0.29345485246E+02  0.00000000000E+00 0. -1.
<scales pt_clust_5="13000.00000" pt_clust_6="13000.00000" pt_clust_7="13000.00000" pt_clust_8="13000.00000" pt_clust_9="25.36381"></scales>
<clustering>
<clus scale="   25.364">  1  9  2 -1</clus>
<clus scale="   89.489">  7  8 -1 -1</clus>
<clus scale="   92.103">  5  6 -1 -1</clus>
<clus scale="  115.923">  2  7  1 -1</clus>
<clus scale="   25.364">  1  5  2 -1</clus>
</clustering>
</event>
<event>
 9    1  0.1636528E-005  0.1200110E+03  0.7546771E-02  0.1243449E+00
         -2   -1    0    0    0  501 -0.00000000000E+00  0.00000000000E+00  0.14840661694E+03  0.14840661694E+03  0.00000000000E+00 0.  1.
         21   -1    0    0  501  502  0.00000000000E+00 -0.00000000000E+00 -0.24958273347E+03  0.24958273347E+03  0.00000000000E+00 0.  1.
         23    2    1    2    0    0 -0.83189412663E+02 -0.83384811788E+01  0.84635446976E+02  0.14807621144E+03  0.88166869415E+02 0.  0.
         23    2    1    2    0    0  0.75039489547E+02 -0.11732546597E+02 -0.76543994423E+02  0.13851893331E+03  0.86947881873E+02 0.  0.
        -11    1    3    3    0    0 -0.69361945335E+02 -0.24020199124E+02  0.98608366759E+02  0.12292948963E+03  0.00000000000E+00 0.  1.
         11    1    3    3    0    0 -0.13827467329E+02  0.15681717946E+02 -0.13972919783E+02  0.25146721808E+02  0.00000000000E+00 0. -1.
        -13    1    4    4    0    0  0.46439549076E+02  0.17074930629E+02  0.26258460347E+01  0.49548764281E+02  0.00000000000E+00 0. -1.
         13    1    4    4    0    0  0.28599940471E+02 -0.28807477226E+02 -0.79169840457E+02  0.88970169029E+02  0.00000000000E+00 0.  1.
         -2    1    1    2    0  502  0.81499231165E+01  0.20071027776E+02 -0.10926756908E+03  0.11139420566E+03  0.00000000000E+00 0.  1.
<scales pt_clust_5="13000.00000" pt_clust_6="13000.00000" pt_clust_7="13000.00000" pt_clust_8="13000.00000" pt_clust_9="21.66258"></scales>
<clustering>
<clus scale="   21.663">  2  9  1 -1</clus>
<clus scale="   86.948">  7  8 -1 -1</clus>
<clus scale="   88.167">  5  6 -1 -1</clus>
<clus scale="  119.118">  2  7  1 -1</clus>
<clus scale="   21.663">  2  5  1 -1</clus>
</clustering>
</event>
<event>
 9    1  0.1636528E-005  0.1063602E+03  0.7546771E-02  0.1268452E+00
         -2   -1    0    0    0  501 -0.00000000000E+00  0.00000000000E+00  0.91398062655E+03  0.91398062655E+03  0.00000000000E+00 0.  1.
         21   -1    0    0  501  502  0.00000000000E+00 -0.00000000000E+00 -0.50405753150E+02  0.50405753150E+02  0.00000000000E+00 0.  1.
         23    2    1    2    0    0 -0.44690387579E+02 -0.18321019736E+02  0.60273268132E+03  0.61157503765E+03  0.91675793085E+02 0.  0.
         23    2    1    2    0    0  0.39145963157E+02  0.40602287264E+02  0.29326914936E+03  0.31307844531E+03  0.93970031342E+02 0.  0.
        -11    1    3    3    0    0  0.28079749185E+02  0.16398206165E+01  0.15664648079E+03  0.15915175548E+03  0.00000000000E+00 0.  1.
         11    1    3    3    0    0 -0.72770136764E+02 -0.19960840353E+02  0.44608620053E+03  0.45242328217E+03  0.00000000000E+00 0. -1.
        -13    1    4    4    0    0 -0.28640293141E+02  0.25034884335E+02  0.13379787386E+03  0.13910026195E+03  0.00000000000E+00 0. -1.
         13    1    4    4    0    0  0.67786256297E+02  0.15567402929E+02  0.15947127550E+03  0.17397818336E+03  0.00000000000E+00 0.  1.
         -2    1    1    2    0  502  0.55444244222E+01 -0.22281267528E+02 -0.32426957280E+02  0.39732896739E+02  0.00000000000E+00 0.  1.
<scales pt_clust_5="13000.00000" pt_clust_6="13000.00000" pt_clust_7="13000.00000" pt_clust_8="13000.00000" pt_clust_9="22.96074"></scales>
<clustering>
<clus scale="   22.961">  2  9  1 -1</clus>
<clus scale="   91.676">  5  6 -1 -1</clus>
<clus scale="   93.970">  7  8 -1 -1</clus>
<clus scale="  104.339">  1  5  2 -1</clus>
<clus scale="   22.961">  2  5  1 -1</clus>
</clustering>
</event>
<event>
 9    1  0.1636528E-005  0.1218002E+03  0.7546771E-02  0.1244187E+00
         21   -1    0    0  501  502  0.00000000000E+00  0.00000000000E+00  0.32853154741E+02  0.32853154741E+02  0.00000000000E+00 0.  1.
          1   -1    0    0  502    0 -0.00000000000E+00 -0.00000000000E+00 -0.65214325988E+03  0.65214325988E+03  0.00000000000E+00 0. -1.
         23    2    1    2    0    0  0.63764681374E+02 -0.24726044170E+02 -0.45021537609E+03  0.46629192964E+03  0.10028443013E+03 0.  0.
         23    2    1    2    0    0 -0.56878311281E+02  0.46926524514E+02 -0.13479522588E+03  0.17728748656E+03  0.88452580373E+02 0.  0.
        -11    1    3    3    0    0  0.91937491906E+00 -0.46837802938E+02 -0.10911582784E+03  0.11874716384E+03  0.00000000000E+00 0.  1.
         11    1    3    3    0    0  0.62845306455E+02  0.22111758767E+02 -0.34109954825E+03  0.34754476580E+03  0.00000000000E+00 0. -1.
        -13    1    4    4    0    0 -0.11109127203E+02  0.18829786250E+02 -0.11944827798E+03  0.12143255194E+03  0.00000000000E+00 0. -1.
         13    1    4    4    0    0 -0.45769184079E+02  0.28096738264E+02 -0.15346947900E+02  0.55854934627E+02  0.00000000000E+00 0.  1.
          1    1    1    2  501    0 -0.68863700922E+01 -0.22200480344E+02 -0.34279503169E+02  0.41416998419E+02  0.00000000000E+00 0. -1.
<scales pt_clust_5="13000.00000" pt_clust_6="13000.00000" pt_clust_7="13000.00000" pt_clust_8="13000.00000" pt_clust_9="23.24400"></scales>
<clustering>
<clus scale="   23.244">  1  9  2 -1</clus>
<clus scale="   88.453">  7  8 -1 -1</clus>
<clus scale="  100.284">  5  6 -1 -1</clus>
<clus scale="  112.259">  1  7  2 -1</clus>
<clus scale="   23.244">  1  5  2 -1</clus>
</clustering>
</event>
<event>
 9    1  0.1636528E-005  0.1921212E+03  0.7546771E-02  0.1189728E+00
         21   -1    0    0  501  502  0.00000000000E+00  0.00000000000E+00  0.60814529976E+03  0.60814529976E+03  0.00000000000E+00 0. -1.
          1   -1    0    0  502    0 -0.00000000000E+00 -0.00000000000E+00 -0.32930504701E+03  0.32930504701E+03  0.00000000000E+00 0. -1.
         23    2    1    2    0    0  0.47729053746E+01  0.56421438764E+01 -0.18703896219E+03  0.20771044494E+03  0.90030223515E+02 0.  0.
         23    2    1    2    0    0 -0.11960294872E+02  0.16323789677E+03 -0.43626268070E+02  0.19292711890E+03  0.92346967175E+02 0.  0.
        -11    1    4    4    0    0  0.34667853942E+02  0.27377353139E+02 -0.13150898169E+02  0.46090407727E+02  0.00000000000E+00 0.  1.
         11    1    4    4    0    0 -0.46628148815E+02  0.13586054363E+03 -0.30475369901E+02  0.14683671117E+03  0.00000000000E+00 0. -1.
        -11    1    3    3    0    0 -0.40771033485E+02  0.68630967685E+01 -0.11762895174E+03  0.12468339728E+03  0.00000000000E+00 0.  1.
         11    1    3    3    0    0  0.45543938860E+02 -0.12209528921E+01 -0.69410010447E+02  0.83027047660E+02  0.00000000000E+00 0. -1.
          1    1    1    2  501    0  0.71873894978E+01 -0.16888004065E+03  0.50950548301E+03  0.53681278293E+03  0.00000000000E+00 0. -1.
<scales pt_clust_5="13000.00000" pt_clust_6="13000.00000" pt_clust_7="13000.00000" pt_clust_8="13000.00000" pt_clust_9="168.47133"></scales>
<clustering>
<clus scale="   90.030">  7  8 -1 -1</clus>
<clus scale="   90.333">  2  7  1 -1</clus>
<clus scale="   92.347">  5  6 -1 -1</clus>
<clus scale="  168.471">  1  9  2 -1</clus>
<clus scale="  168.471">  1  5  2 -1</clus>
</clustering>
</event>
<event>
 9    1  0.1636528E-005  0.2640803E+03  0.7546771E-02  0.1104961E+00
         21   -1    0    0  501  502  0.00000000000E+00  0.00000000000E+00  0.23804702157E+03  0.23804702157E+03  0.00000000000E+00 0. -1.
         -3   -1    0    0    0  501 -0.00000000000E+00 -0.00000000000E+00 -0.61562603496E+03  0.61562603496E+03  0.00000000000E+00 0.  1.
         23    2    1    2    0    0  0.21188220087E+03  0.11326403628E+03 -0.42329631439E+03  0.49436065225E+03  0.86544068276E+02 0.  0.
         23    2    1    2    0    0 -0.25508526424E+03 -0.13181356917E+03  0.65376779143E+02  0.30835080172E+03  0.91448261999E+02 0.  0.
        -11    1    4    4    0    0 -0.48582725068E+02 -0.28583658336E+01 -0.16662167123E+02  0.51440054855E+02  0.00000000000E+00 0.  1.
         11    1    4    4    0    0 -0.20650253917E+03 -0.12895520334E+03  0.82038946265E+02  0.25691074687E+03  0.00000000000E+00 0. -1.
        -13    1    3    3    0    0  0.10227196422E+03  0.21192596184E+02 -0.12071919651E+03  0.15963021394E+03  0.00000000000E+00 0.  1.
         13    1    3    3    0    0  0.10961023665E+03  0.92071440095E+02 -0.30257711788E+03  0.33473043830E+03  0.00000000000E+00 0. -1.
         -3    1    1    2    0  502  0.43203063369E+02  0.18549532891E+02 -0.19659478143E+02  0.50961602563E+02  0.00000000000E+00 0.  1.
<scales pt_clust_5="13000.00000" pt_clust_6="13000.00000" pt_clust_7="13000.00000" pt_clust_8="13000.00000" pt_clust_9="47.01691"></scales>
<clustering>
<clus scale="   47.017">  1  9  2 -1</clus>
<clus scale="   86.544">  7  8 -1 -1</clus>
<clus scale="   91.448">  5  6 -1 -1</clus>
<clus scale="  262.422">  2  7  1 -1</clus>
<clus scale="   47.017">  1  5  2 -1</clus>
</clustering>
</event>
<event>
 9    1  0.1636528E-005  0.1075184E+03  0.7546771E-02  0.1268710E+00
         21   -1    0    0  501  502  0.00000000000E+00  0.00000000000E+00  0.83794229473E+02  0.83794229473E+02  0.00000000000E+00 0. -1.
         -4   -1    0    0    0  501 -0.00000000000E+00 -0.00000000000E+00 -0.18326795593E+03  0.18326795593E+03  0.00000000000E+00 0.  1.
         23    2    1    2    0    0  0.86691596268E+01 -0.55670180325E+02 -0.91597003035E+02  0.13815447268E+03  0.86731332584E+02 0.  0.
         23    2    1    2    0    0  0.11136737452E+02  0.40495086820E+02 -0.77668118811E+01  0.10395637804E+03  0.94777245109E+02 0.  0.
        -11    1    3    3    0    0 -0.13187366526E+02 -0.29489968303E+02  0.76615224640E+01  0.33200358324E+02  0.00000000000E+00 0. -1.
         11    1    3    3    0    0  0.21856526153E+02 -0.26180212022E+02 -0.99258525499E+02  0.10495411436E+03  0.00000000000E+00 0.  1.
        -13    1    4    4    0    0  0.50140922402E+02  0.40638146819E+02 -0.72636541317E+01  0.64948685495E+02  0.00000000000E+00 0. -1.
         13    1    4    4    0    0 -0.39004184950E+02 -0.14305999932E+00 -0.50315774938E+00  0.39007692543E+02  0.00000000000E+00 0.  1.
         -4    1    1    2    0  502 -0.19805897079E+02  0.15175093505E+02 -0.10991154511E+00  0.24951334685E+02  0.00000000000E+00 0.  1.
<scales pt_clust_5="13000.00000" pt_clust_6="13000.00000" pt_clust_7="13000.00000" pt_clust_8="13000.00000" pt_clust_9="24.95109"></scales>
<clustering>
<clus scale="   24.951">  1  9  2 -1</clus>
<clus scale="   86.731">  5  6 -1 -1</clus>
<clus scale="   94.777">  7  8 -1 -1</clus>
<clus scale="  100.498">  2  5  1 -1</clus>
<clus scale="   24.951">  1  5  2 -1</clus>
</clustering>
</event>
<event>
 9    1  0.1636528E-005  0.1156957E+03  0.7546771E-02  0.1251367E+00
          1   -1    0    0  502    0 -0.00000000000E+00  0.00000000000E+00  0.50271160772E+03  0.50271160772E+03  0.00000000000E+00 0. -1.
         21   -1    0    0  501  502  0.00000000000E+00 -0.00000000000E+00 -0.67734329993E+02  0.67734329993E+02  0.00000000000E+00 0.  1.
         23    2    1    2    0    0  0.66671305687E+02 -0.24119290341E+02  0.38983043297E+03  0.40682862636E+03  0.92276549492E+02 0.  0.
         23    2    1    2    0    0 -0.67849451151E+02 -0.56135836581E+01  0.35011498873E+01  0.11243337126E+03  0.89408861857E+02 0.  0.
        -11    1    4    4    0    0 -0.40324987298E+02 -0.42308197319E+02 -0.18843880300E+02  0.61409933934E+02  0.00000000000E+00 0.  1.
         11    1    4    4    0    0 -0.27524463853E+02  0.36694613661E+02  0.22345030188E+02  0.51023437323E+02  0.00000000000E+00 0. -1.
        -11    1    3    3    0    0 -0.17563902821E+02  0.15144739948E+02  0.88803092986E+02  0.91781496797E+02  0.00000000000E+00 0. -1.
         11    1    3    3    0    0  0.84235208508E+02 -0.39264030288E+02  0.30102733998E+03  0.31504712956E+03  0.00000000000E+00 0.  1.
          1    1    1    2  501    0  0.11781454638E+01  0.29732873999E+02  0.41645694875E+02  0.51183940104E+02  0.00000000000E+00 0. -1.
<scales pt_clust_5="13000.00000" pt_clust_6="13000.00000" pt_clust_7="13000.00000" pt_clust_8="13000.00000" pt_clust_9="29.75622"></scales>
<clustering>
<clus scale="   29.756">  2  9  1 -1</clus>
<clus scale="   89.409">  5  6 -1 -1</clus>
<clus scale="   92.277">  7  8 -1 -1</clus>
<clus scale="  113.422">  2  5  1 -1</clus>
<clus scale="   29.756">  2  5  1 -1</clus>
</clustering>
</event>
<event>
 9    1  0.1636528E-005  0.1080120E+03  0.7546771E-02  0.1266403E+00
          1   -1    0    0  502    0 -0.00000000000E+00  0.00000000000E+00  0.78026007694E+02  0.78026007694E+02  0.00000000000E+00 0. -1.
         21   -1    0    0  501  502  0.00000000000E+00 -0.00000000000E+00 -0.70698357242E+03  0.70698357242E+03  0.00000000000E+00 0. -1.
         23    2    1    2    0    0 -0.99475360572E+01 -0.34799361408E+02 -0.44298339597E+02  0.10681851076E+03  0.90210322702E+02 0.  0.
         23    2    1    2    0    0  0.95888854367E+02  0.64861141563E+01 -0.63831747734E+02  0.14956188801E+03  0.95171026349E+02 0.  0.
        -11    1    4    4    0    0  0.17029742204E+02 -0.39928956503E+02 -0.25567485725E+02  0.50378864747E+02  0.00000000000E+00 0.  1.
         11    1    4    4    0    0  0.78859112163E+02  0.46415070659E+02 -0.38264262009E+02  0.99183023258E+02  0.00000000000E+00 0. -1.
        -13    1    3    3    0    0  0.27820210750E+02  0.10390778077E+02 -0.37045050892E+02  0.47479134267E+02  0.00000000000E+00 0. -1.
         13    1    3    3    0    0 -0.37767746807E+02 -0.45190139485E+02 -0.72532887053E+01  0.59339376493E+02  0.00000000000E+00 0.  1.
          1    1    1    2  501    0 -0.85941318310E+02  0.28313247251E+02 -0.52082747740E+03  0.52862918135E+03  0.00000000000E+00 0. -1.
<scales pt_clust_5="13000.00000" pt_clust_6="13000.00000" pt_clust_7="13000.00000" pt_clust_8="13000.00000" pt_clust_9="90.48508"></scales>
<clustering>
<clus scale="   90.210">  7  8 -1 -1</clus>
<clus scale="   90.485">  2  9  1 -1</clus>
<clus scale="   95.171">  5  6 -1 -1</clus>
<clus scale="  103.668">  1  7  2 -1</clus>
<clus scale="   90.485">  2  5  1 -1</clus>
</clustering>
</event>
<event>
 9    1  0.1636528E-005  0.1451210E+03  0.7546771E-02  0.1207779E+00
          3   -1    0    0  502    0 -0.00000000000E+00  0.00000000000E+00  0.16244713355E+03  0.16244713355E+03  0.00000000000E+00 0. -1.
         21   -1    0    0  501  502  0.00000000000E+00 -0.00000000000E+00 -0.35678373906E+03  0.35678373906E+03  0.00000000000E+00 0. -1.
         23    2    1    2    0    0 -0.42886447230E+02  0.88239057922E+02  0.53025720236E+02  0.14853213769E+03  0.98105505559E+02 0.  0.
         23    2    1    2    0    0  0.60236851071E+02 -0.11016200436E+03 -0.39502377996E+02  0.16096697774E+03  0.92659509082E+02 0.  0.
        -11    1    4    4    0    0 -0.99788049907E+01 -0.60920725290E+02 -0.42840083939E+02  0.75141094687E+02  0.00000000000E+00 0.  1.
         11    1    4    4    0    0  0.70215656061E+02 -0.49241279072E+02  0.33377059424E+01  0.85825883052E+02  0.00000000000E+00 0. -1.
        -11    1    3    3    0    0 -0.16509785880E+02 -0.15017084612E+02 -0.10284504995E+02  0.24573500016E+02  0.00000000000E+00 0.  1.
         11    1    3    3    0    0 -0.26376661350E+02  0.10325614253E+03  0.63310225230E+02  0.12395863767E+03  0.00000000000E+00 0. -1.
          3    1    1    2  501    0 -0.17350403841E+02  0.21922946440E+02 -0.20785994775E+03  0.20973175718E+03  0.00000000000E+00 0. -1.
<scales pt_clust_5="13000.00000" pt_clust_6="13000.00000" pt_clust_7="13000.00000" pt_clust_8="13000.00000" pt_clust_9="27.95804"></scales>
<clustering>
<clus scale="   27.958">  2  9  1 -1</clus>
<clus scale="   92.660">  5  6 -1 -1</clus>
<clus scale="   98.106">  7  8 -1 -1</clus>
<clus scale="  141.496">  2  5  1 -1</clus>
<clus scale="   27.958">  2  5  1 -1</clus>
</clustering>
</event>
<event>
 9    1  0.1636528E-005  0.1383686E+03  0.7546771E-02  0.1215695E+00
          1   -1    0    0  502    0 -0.00000000000E+00  0.00000000000E+00  0.55013076721E+03  0.55013076721E+03  0.00000000000E+00 0. -1.
         21   -1    0    0  501  502  0.00000000000E+00 -0.00000000000E+00 -0.42276524804E+03  0.42276524804E+03  0.00000000000E+00 0.  1.
         23    2    1    2    0    0  0.85750798904E+02 -0.56686834288E+02  0.51051434763E+03  0.52877858549E+03  0.91734925982E+02 0.  0.
         23    2    1    2    0    0 -0.10541477884E+03  0.33602861382E+02 -0.14649441353E+03  0.20552812988E+03  0.92410881849E+02 0.  0.
        -11    1    3    3    0    0  0.22160256961E+02 -0.68753423467E+02  0.29772917209E+03  0.30636705133E+03  0.00000000000E+00 0.  1.
         11    1    3    3    0    0  0.63590541943E+02  0.12066589179E+02  0.21278517554E+03  0.22241153416E+03  0.00000000000E+00 0. -1.
        -13    1    4    4    0    0 -0.64246586035E+02 -0.20582229727E+02 -0.10801539851E+03  0.12735218221E+03  0.00000000000E+00 0.  1.
         13    1    4    4    0    0 -0.41168192810E+02  0.54185091109E+02 -0.38479015026E+02  0.78175947676E+02  0.00000000000E+00 0. -1.
          1    1    1    2  501    0  0.19663979941E+02  0.23083972907E+02 -0.23665441492E+03  0.23858929987E+03  0.00000000000E+00 0. -1.
<scales pt_clust_5="13000.00000" pt_clust_6="13000.00000" pt_clust_7="13000.00000" pt_clust_8="13000.00000" pt_clust_9="30.32395"></scales>
<clustering>
<clus scale="   30.324">  2  9  1 -1</clus>
<clus scale="   91.735">  5  6 -1 -1</clus>
<clus scale="   92.411">  7  8 -1 -1</clus>
<clus scale="  137.918">  1  5  2 -1</clus>
<clus scale="   30.324">  2  5  1 -1</clus>
</clustering>
</event>
<event>
 9    1  0.1636528E-005  0.1319825E+03  0.7546771E-02  0.1225077E+00
         -1   -1    0    0    0  501 -0.00000000000E+00  0.00000000000E+00  0.25899303251E+03  0.25899303251E+03  0.00000000000E+00 0.  1.
         21   -1    0    0  501  502  0.00000000000E+00 -0.00000000000E+00 -0.95802252111E+02  0.95802252111E+02  0.00000000000E+00 0. -1.
         23    2    1    2    0    0 -0.18879676252E+02 -0.83261436756E+02  0.11939470982E+03  0.17254757591E+03  0.90711962783E+02 0.  0.
         23    2    1    2    0    0  0.20499401142E+02  0.10742966201E+03  0.57369846019E+02  0.15448129014E+03  0.92799849367E+02 0.  0.
        -11    1    4    4    0    0  0.20701367652E+02 -0.19095932400E+01  0.38176596182E+02  0.43470054808E+02  0.00000000000E+00 0.  1.
         11    1    4    4    0    0 -0.20196651059E+00  0.10933925525E+03  0.19193249837E+02  0.11101123533E+03  0.00000000000E+00 0. -1.
        -11    1    3    3    0    0 -0.31027828919E+02 -0.16457320829E+02 -0.84726983123E-01  0.35122311355E+02  0.00000000000E+00 0. -1.
         11    1    3    3    0    0  0.12148152666E+02 -0.66804115927E+02  0.11947943680E+03  0.13742526455E+03  0.00000000000E+00 0.  1.
         -1    1    1    2    0  502 -0.16197248891E+01 -0.24168225257E+02 -0.13573775442E+02  0.27766418576E+02  0.00000000000E+00 0.  1.
<scales pt_clust_5="13000.00000" pt_clust_6="13000.00000" pt_clust_7="13000.00000" pt_clust_8="13000.00000" pt_clust_9="24.22244"></scales>
<clustering>
<clus scale="   24.222">  2  9  1 -1</clus>
<clus scale="   90.712">  7  8 -1 -1</clus>
<clus scale="   92.800">  5  6 -1 -1</clus>
<clus scale="  130.523">  1  7  2 -1</clus>
<clus scale="   24.222">  2  5  1 -1</clus>
</clustering>
</event>
<event>
 9    1  0.1636528E-005  0.1047919E+03  0.7546771E-02  0.1270574E+00
         21   -1    0    0  501  502  0.00000000000E+00  0.00000000000E+00  0.77806602953E+02  0.77806602953E+02  0.00000000000E+00 0.  1.
         -1   -1    0    0    0  501 -0.00000000000E+00 -0.00000000000E+00 -0.64355006911E+03  0.64355006911E+03  0.00000000000E+00 0.  1.
         23    2    1    2    0    0 -0.59592903897E+01 -0.44274860648E+02 -0.46957709034E+03  0.48034441249E+03  0.90732212632E+02 0.  0.
         23    2    1    2    0    0  0.41370976603E+02  0.90521084018E+02 -0.11780296845E+03  0.17887657870E+03  0.90629281553E+02 0.  0.
        -11    1    4    4    0    0  0.42972952723E+02 -0.65121429283E+00 -0.31101776027E+02  0.53051100063E+02  0.00000000000E+00 0. -1.
         11    1    4    4    0    0 -0.16019761201E+01  0.91172298311E+02 -0.86701192422E+02  0.12582547864E+03  0.00000000000E+00 0.  1.
        -13    1    3    3    0    0 -0.37260054102E+02 -0.56336164457E+02 -0.32056264901E+03  0.32760110958E+03  0.00000000000E+00 0. -1.
         13    1    3    3    0    0  0.31300763713E+02  0.12061303809E+02 -0.14901444133E+03  0.15274330291E+03  0.00000000000E+00 0.  1.
         -1    1    1    2    0  502 -0.35411686214E+02 -0.46246223369E+02  0.21636592636E+02  0.62135680871E+02  0.00000000000E+00 0.  1.
<scales pt_clust_5="13000.00000" pt_clust_6="13000.00000" pt_clust_7="13000.00000" pt_clust_8="13000.00000" pt_clust_9="58.24689"></scales>
<clustering>
<clus scale="   58.247">  1  9  2 -1</clus>
<clus scale="   90.629">  5  6 -1 -1</clus>
<clus scale="   90.732">  7  8 -1 -1</clus>
<clus scale="  104.703">  1  5  2 -1</clus>
<clus scale="   58.247">  1  5  2 -1</clus>
</clustering>
</event>
<event>
 9    1  0.1636528E-005  0.1568575E+03  0.7546771E-02  0.1192678E+00
         21   -1    0    0  501  502  0.00000000000E+00  0.00000000000E+00  0.71887994571E+02  0.71887994571E+02  0.00000000000E+00 0.  1.
          1   -1    0    0  502    0 -0.00000000000E+00 -0.00000000000E+00 -0.46649336950E+03  0.46649336950E+03  0.00000000000E+00 0. -1.
         23    2    1    2    0    0  0.10173562095E+03  0.44291080937E+02 -0.16246358482E+03  0.21726701932E+03  0.92188420498E+02 0.  0.
         23    2    1    2    0    0 -0.11410356734E+03 -0.90812440265E+02 -0.18260884790E+03  0.25204397964E+03  0.94412144106E+02 0.  0.
        -13    1    4    4    0    0 -0.62956392541E+02 -0.39102482935E+02 -0.15925419660E+03  0.17565423612E+03  0.00000000000E+00 0. -1.
         13    1    4    4    0    0 -0.51147174804E+02 -0.51709957330E+02 -0.23354651301E+02  0.76389743518E+02  0.00000000000E+00 0.  1.
        -13    1    3    3    0    0  0.30176873371E+02  0.62890772990E+02 -0.69275985968E+02  0.98311012840E+02  0.00000000000E+00 0. -1.
         13    1    3    3    0    0  0.71558747575E+02 -0.18599692054E+02 -0.93187598849E+02  0.11895600648E+03  0.00000000000E+00 0.  1.
          1    1    1    2  501    0  0.12367946398E+02  0.46521359328E+02 -0.49532942208E+02  0.69070365104E+02  0.00000000000E+00 0. -1.
<scales pt_clust_5="13000.00000" pt_clust_6="13000.00000" pt_clust_7="13000.00000" pt_clust_8="13000.00000" pt_clust_9="48.13733"></scales>
<clustering>
<clus scale="   48.137">  1  9  2 -1</clus>
<clus scale="   92.188">  7  8 -1 -1</clus>
<clus scale="   94.412">  5  6 -1 -1</clus>
<clus scale="  155.529">  2  7  1 -1</clus>
<clus scale="   48.137">  1  5  2 -1</clus>
</clustering>
</event>
<event>
 9    1  0.1636528E-005  0.1369527E+03  0.7546771E-02  0.1232166E+00
         -4   -1    0    0    0  501 -0.00000000000E+00  0.00000000000E+00  0.12426480612E+03  0.12426480612E+03  0.00000000000E+00 0.  1.
         21   -1    0    0  501  502  0.00000000000E+00 -0.00000000000E+00 -0.45687699237E+03  0.45687699237E+03  0.00000000000E+00 0. -1.
         23    2    1    2    0    0 -0.22920447321E+01  0.12410453893E+02 -0.15619146765E+02  0.10208193818E+03  0.10008741940E+03 0.  0.
         23    2    1    2    0    0 -0.63738461053E+02  0.84659164348E+02  0.12559558926E+02  0.12922067782E+03  0.72873009618E+02 0.  0.
        -11    1    4    4    0    0 -0.12226373222E+02  0.59190075591E+02  0.32213130421E+02  0.68488210826E+02  0.00000000000E+00 0.  1.
         11    1    4    4    0    0 -0.51512087831E+02  0.25469088757E+02 -0.19653571495E+02  0.60732466995E+02  0.00000000000E+00 0. -1.
        -13    1    3    3    0    0  0.38053070267E+02  0.37288470308E+02 -0.11501900010E+02  0.54504677584E+02  0.00000000000E+00 0.  1.
         13    1    3    3    0    0 -0.40345114999E+02 -0.24878016415E+02 -0.41172467544E+01  0.47577260597E+02  0.00000000000E+00 0. -1.
         -4    1    1    2    0  502  0.66030505785E+02 -0.97069618241E+02 -0.32955259842E+03  0.34983918249E+03  0.00000000000E+00 0.  1.
<scales pt_clust_5="13000.00000" pt_clust_6="13000.00000" pt_clust_7="13000.00000" pt_clust_8="13000.00000" pt_clust_9="115.95497"></scales>
<clustering>
<clus scale="   72.873">  5  6 -1 -1</clus>
<clus scale="  100.087">  7  8 -1 -1</clus>
<clus scale="  100.880">  1  7  2 -1</clus>
<clus scale="  115.955">  2  9  1 -1</clus>
<clus scale="  115.955">  2  5  1 -1</clus>
</clustering>
</event>
<event>
 9    1  0.1636528E-005  0.1229192E+03  0.7546771E-02  0.1242020E+00
         21   -1    0    0  501  502  0.00000000000E+00  0.00000000000E+00  0.54953956916E+03  0.54953956916E+03  0.00000000000E+00 0. -1.
          2   -1    0    0  502    0 -0.00000000000E+00 -0.00000000000E+00 -0.45785536379E+02  0.45785536379E+02  0.00000000000E+00 0. -1.
         23    2    1    2    0    0  0.60121289273E+02  0.58074816563E+02  0.84594749576E+02  0.14277501425E+03  0.79001134780E+02 0.  0.
         23    2    1    2    0    0 -0.83580965779E+02 -0.22665066431E+02  0.34300828397E+03  0.36535386711E+03  0.91264901586E+02 0.  0.
        -11    1    4    4    0    0  0.18661460646E+02 -0.74170392711E+01  0.86472803391E+02  0.88773916841E+02  0.00000000000E+00 0.  1.
         11    1    4    4    0    0 -0.10224242642E+03 -0.15248027160E+02  0.25653548058E+03  0.27657995027E+03  0.00000000000E+00 0. -1.
        -13    1    3    3    0    0 -0.13688368548E+01  0.36390170301E+02  0.65318060361E+02  0.74783468883E+02  0.00000000000E+00 0.  1.
         13    1    3    3    0    0  0.61490126128E+02  0.21684646262E+02  0.19276689215E+02  0.67991545370E+02  0.00000000000E+00 0. -1.
          2    1    1    2  501    0  0.23459676506E+02 -0.35409750132E+02  0.76150999229E+02  0.87196224172E+02  0.00000000000E+00 0. -1.
<scales pt_clust_5="13000.00000" pt_clust_6="13000.00000" pt_clust_7="13000.00000" pt_clust_8="13000.00000" pt_clust_9="42.47596"></scales>
<clustering>
<clus scale="   42.476">  1  9  2 -1</clus>
<clus scale="   79.001">  7  8 -1 -1</clus>
<clus scale="   91.265">  5  6 -1 -1</clus>
<clus scale="  114.110">  2  7  1 -1</clus>
<clus scale="   42.476">  1  5  2 -1</clus>
</clustering>
</event>
<event>
 9    1  0.1636528E-005  0.1022640E+03  0.7546771E-02  0.1276063E+00
          1   -1    0    0  502    0 -0.00000000000E+00  0.00000000000E+00  0.24176710498E+02  0.24176710498E+02  0.00000000000E+00 0. -1.
         21   -1    0    0  501  502  0.00000000000E+00 -0.00000000000E+00 -0.73248543440E+03  0.73248543440E+03  0.00000000000E+00 0. -1.
         23    2    1    2    0    0  0.47819248139E+01 -0.54511485439E+02 -0.16045503242E+03  0.19241917278E+03  0.91021710463E+02 0.  0.
         23    2    1    2    0    0  0.53563339909E+01  0.26877487544E+02 -0.30871303097E+03  0.32329758900E+03  0.92013618103E+02 0.  0.
        -11    1    3    3    0    0  0.33401231091E+02  0.92780802724E+01 -0.38202038198E+02  0.51586051743E+02  0.00000000000E+00 0.  1.
         11    1    3    3    0    0 -0.28619306277E+02 -0.63789565712E+02 -0.12225299422E+03  0.14083312104E+03  0.00000000000E+00 0. -1.
        -13    1    4    4    0    0 -0.12342082812E+02 -0.29371084335E+02 -0.16338407133E+03  0.16646123383E+03  0.00000000000E+00 0.  1.
         13    1    4    4    0    0  0.17698416803E+02  0.56248571879E+02 -0.14532895964E+03  0.15683635518E+03  0.00000000000E+00 0. -1.
          1    1    1    2  501    0 -0.10138258805E+02  0.27633997896E+02 -0.23914066051E+03  0.24094538311E+03  0.00000000000E+00 0. -1.
<scales pt_clust_5="13000.00000" pt_clust_6="13000.00000" pt_clust_7="13000.00000" pt_clust_8="13000.00000" pt_clust_9="29.43505"></scales>
<clustering>
<clus scale="   29.435">  2  9  1 -1</clus>
<clus scale="   91.022">  5  6 -1 -1</clus>
<clus scale="   92.014">  7  8 -1 -1</clus>
<clus scale="  101.372">  1  5  2 -1</clus>
<clus scale="   29.435">  2  5  1 -1</clus>
</clustering>
</event>
<event>
 9    1  0.1636528E-005  0.9358578E+02  0.7546771E-02  0.1294707E+00
          1   -1    0    0  502    0 -0.00000000000E+00  0.00000000000E+00  0.90771521414E+03  0.90771521414E+03  0.00000000000E+00 0. -1.
         21   -1    0    0  501  502  0.00000000000E+00 -0.00000000000E+00 -0.19835972066E+02  0.19835972066E+02  0.00000000000E+00 0. -1.
         23    2    1    2    0    0 -0.78872397098E+01 -0.27696880901E+02  0.52672166102E+03  0.53526649654E+03  0.90803019621E+02 0.  0.
         23    2    1    2    0    0  0.24586145909E+02 -0.67022152383E+01  0.32875679289E+03  0.34216520885E+03  0.91359745054E+02 0.  0.
        -13    1    4    4    0    0 -0.33742937880E+02  0.79912997370E+01  0.11688555754E+03  0.12192079515E+03  0.00000000000E+00 0.  1.
         13    1    4    4    0    0  0.58329083789E+02 -0.14693514975E+02  0.21187123535E+03  0.22024441370E+03  0.00000000000E+00 0. -1.
        -13    1    3    3    0    0 -0.46007646730E+02  0.32848280730E+01  0.25946979174E+03  0.26353759974E+03  0.00000000000E+00 0.  1.
         13    1    3    3    0    0  0.38120407020E+02 -0.30981708974E+02  0.26725186928E+03  0.27172889680E+03  0.00000000000E+00 0. -1.
          1    1    1    2  501    0 -0.16698906200E+02  0.34399096139E+02  0.32400788169E+02  0.50119480817E+02  0.00000000000E+00 0. -1.
<scales pt_clust_5="13000.00000" pt_clust_6="13000.00000" pt_clust_7="13000.00000" pt_clust_8="13000.00000" pt_clust_9="38.23809"></scales>
<clustering>
<clus scale="   38.238">  2  9  1 -1</clus>
<clus scale="   90.803">  7  8 -1 -1</clus>
<clus scale="   91.360">  5  6 -1 -1</clus>
<clus scale="   93.042">  1  7  2 -1</clus>
<clus scale="   38.238">  2  5  1 -1</clus>
</clustering>
</event>
<event>
 9    1  0.1636528E-005  0.9609892E+02  0.7546771E-02  0.1290190E+00
          2   -1    0    0  502    0 -0.00000000000E+00  0.00000000000E+00  0.26565422528E+03  0.26565422528E+03  0.00000000000E+00 0. -1.
         21   -1    0    0  501  502  0.00000000000E+00 -0.00000000000E+00 -0.46498516667E+02  0.46498516667E+02  0.00000000000E+00 0.  1.
         23    2    1    2    0    0  0.54019584618E+00  0.19839719357E+02  0.11517108959E+03  0.14965391097E+03  0.93477306953E+02 0.  0.
         23    2    1    2    0    0  0.21816729833E+02 -0.22039042027E+02  0.60132847773E+02  0.11322767321E+03  0.90790184079E+02 0.  0.
        -11    1    3    3    0    0 -0.25212974504E+02 -0.49254553109E+01 -0.33109048387E+01  0.25902051738E+02  0.00000000000E+00 0.  1.
         11    1    3    3    0    0  0.25753170350E+02  0.24765174668E+02  0.11848199443E+03  0.12375185923E+03  0.00000000000E+00 0. -1.
        -11    1    4    4    0    0 -0.79699004155E+01 -0.46364227590E+02  0.68864747641E+01  0.47545603870E+02  0.00000000000E+00 0.  1.
         11    1    4    4    0    0  0.29786630248E+02  0.24325185563E+02  0.53246373008E+02  0.65682069340E+02  0.00000000000E+00 0. -1.
          2    1    1    2  501    0 -0.22356925679E+02  0.21993226704E+01  0.43851771253E+02  0.49271157770E+02  0.00000000000E+00 0. -1.
<scales pt_clust_5="13000.00000" pt_clust_6="13000.00000" pt_clust_7="13000.00000" pt_clust_8="13000.00000" pt_clust_9="22.46485"></scales>
<clustering>
<clus scale="   22.465">  2  9  1 -1</clus>
<clus scale="   90.790">  7  8 -1 -1</clus>
<clus scale="   93.477">  5  6 -1 -1</clus>
<clus scale="   93.487">  2  7  1 -1</clus>
<clus scale="   22.465">  2  5  1 -1</clus>
</clustering>
</event>
<event>
 9    1  0.1636528E-005  0.1020561E+03  0.7546771E-02  0.1277930E+00
          2   -1    0    0  502    0 -0.00000000000E+00  0.00000000000E+00  0.28723150632E+03  0.28723150632E+03  0.00000000000E+00 0. -1.
         21   -1    0    0  501  502  0.00000000000E+00 -0.00000000000E+00 -0.83877153682E+02  0.83877153682E+02  0.00000000000E+00 0.  1.
         23    2    1    2    0    0 -0.23804037770E+02  0.84114994980E+01  0.68822243779E+02  0.12319106266E+03  0.99005813677E+02 0.  0.
         23    2    1    2    0    0 -0.11811441027E+02  0.68348529186E+02  0.49030277905E+02  0.12762159812E+03  0.95248478066E+02 0.  0.
        -11    1    3    3    0    0 -0.11634370522E+01  0.20969031517E+02 -0.21007594896E+02  0.29704762444E+02  0.00000000000E+00 0.  1.
         11    1    3    3    0    0 -0.22640600718E+02 -0.12557532019E+02  0.89829838675E+02  0.93486300214E+02  0.00000000000E+00 0. -1.
        -13    1    4    4    0    0  0.20930600628E+02  0.75638877492E+01 -0.20049465087E+02  0.29954690631E+02  0.00000000000E+00 0. -1.
         13    1    4    4    0    0 -0.32742041655E+02  0.60784641437E+02  0.69079742992E+02  0.97666907488E+02  0.00000000000E+00 0.  1.
          2    1    1    2  501    0  0.35615478797E+02 -0.76760028684E+02  0.85501830957E+02  0.12029599923E+03  0.00000000000E+00 0. -1.
<scales pt_clust_5="13000.00000" pt_clust_6="13000.00000" pt_clust_7="13000.00000" pt_clust_8="13000.00000" pt_clust_9="84.62016"></scales>
<clustering>
<clus scale="   84.620">  2  9  1 -1</clus>
<clus scale="   95.248">  7  8 -1 -1</clus>
<clus scale="   98.415">  2  7  1 -1</clus>
<clus scale="   99.006">  5  6 -1 -1</clus>
<clus scale="   84.620">  2  5  1 -1</clus>
</clustering>
</event>
<event>
 9    1  0.1636528E-005  0.1059379E+03  0.7546771E-02  0.1270646E+00
         21   -1    0    0  501  502  0.00000000000E+00  0.00000000000E+00  0.46766379417E+02  0.46766379417E+02  0.00000000000E+00 0. -1.
          2   -1    0    0  502    0 -0.00000000000E+00 -0.00000000000E+00 -0.39833073252E+03  0.39833073252E+03  0.00000000000E+00 0. -1.
         23    2    1    2    0    0 -0.55378093198E+02  0.42109618740E+02 -0.21677311688E+03  0.24319206333E+03  0.85509311002E+02 0.  0.
         23    2    1    2    0    0  0.18870712988E+02 -0.31681617275E+02 -0.13099908307E+03  0.16374862778E+03  0.91066045556E+02 0.  0.
        -11    1    4    4    0    0 -0.33454251318E+02 -0.57137995641E+01 -0.23106566919E+02  0.41057860045E+02  0.00000000000E+00 0. -1.
         11    1    4    4    0    0  0.52324964306E+02 -0.25967817711E+02 -0.10789251615E+03  0.12269076773E+03  0.00000000000E+00 0.  1.
        -13    1    3    3    0    0 -0.74073844604E+02  0.16815841948E+02 -0.17604100395E+03  0.19172934586E+03  0.00000000000E+00 0. -1.
         13    1    3    3    0    0  0.18695751405E+02  0.25293776792E+02 -0.40732112939E+02  0.51462717471E+02  0.00000000000E+00 0.  1.
          2    1    1    2  501    0  0.36507380210E+02 -0.10428001465E+02 -0.37921531486E+01  0.38156420821E+02  0.00000000000E+00 0. -1.
<scales pt_clust_5="13000.00000" pt_clust_6="13000.00000" pt_clust_7="13000.00000" pt_clust_8="13000.00000" pt_clust_9="37.96751"></scales>
<clustering>
<clus scale="   37.968">  1  9  2 -1</clus>
<clus scale="   85.509">  7  8 -1 -1</clus>
<clus scale="   91.066">  5  6 -1 -1</clus>
<clus scale="  101.201">  2  7  1 -1</clus>
<clus scale="   37.968">  1  5  2 -1</clus>
</clustering>
</event>
<event>
 9    1  0.1636528E-005  0.9748883E+02  0.7546771E-02  0.1292989E+00
         -4   -1    0    0    0  501 -0.00000000000E+00  0.00000000000E+00  0.39658326009E+03  0.39658326009E+03  0.00000000000E+00 0.  1.
         21   -1    0    0  501  502  0.00000000000E+00 -0.00000000000E+00 -0.41792013961E+02  0.41792013961E+02  0.00000000000E+00 0.  1.
         23    2    1    2    0    0 -0.68299388838E+01 -0.31304674329E+02  0.22757781346E+03  0.24210304300E+03  0.76128782689E+02 0.  0.
         23    2    1    2    0    0 -0.31021164703E+01  0.52839920313E+02  0.13563791143E+03  0.17110510198E+03  0.89875650770E+02 0.  0.
        -11    1    4    4    0    0  0.33603748269E+02 -0.67748846207E+01  0.43220915579E+02  0.55164830307E+02  0.00000000000E+00 0. -1.
         11    1    4    4    0    0 -0.36705864739E+02  0.59614804934E+02  0.92416995854E+02  0.11594027168E+03  0.00000000000E+00 0.  1.
        -13    1    3    3    0    0 -0.18568167687E+02 -0.48012278693E+02  0.20624838406E+03  0.21257551995E+03  0.00000000000E+00 0.  1.
         13    1    3    3    0    0  0.11738228803E+02  0.16707604364E+02  0.21329429397E+02  0.29527523049E+02  0.00000000000E+00 0. -1.
         -4    1    1    2    0  502  0.99320553541E+01 -0.21535245984E+02 -0.84244787585E+01  0.25167129068E+02  0.00000000000E+00 0.  1.
<scales pt_clust_5="13000.00000" pt_clust_6="13000.00000" pt_clust_7="13000.00000" pt_clust_8="13000.00000" pt_clust_9="23.71524"></scales>
<clustering>
<clus scale="   23.715">  2  9  1 -1</clus>
<clus scale="   76.129">  7  8 -1 -1</clus>
<clus scale="   84.983">  1  7  2 -1</clus>
<clus scale="   89.876">  5  6 -1 -1</clus>
<clus scale="   23.715">  2  5  1 -1</clus>
</clustering>
</event>
<event>
 9    1  0.1636528E-005  0.2066379E+03  0.7546771E-02  0.1177942E+00
          2   -1    0    0  502    0 -0.00000000000E+00  0.00000000000E+00  0.73298671314E+03  0.73298671314E+03  0.00000000000E+00 0. -1.
         21   -1    0    0  501  502  0.00000000000E+00 -0.00000000000E+00 -0.18176643828E+03  0.18176643828E+03  0.00000000000E+00 0. -1.
         23    2    1    2    0    0 -0.14028824253E+02 -0.16328913034E+02  0.25889355741E+01  0.94494130959E+02  0.91972805152E+02 0.  0.
         23    2    1    2    0    0 -0.88427180031E+02  0.16704415513E+03  0.59544626925E+03  0.63209963408E+03  0.96283809206E+02 0.  0.
        -11    1    4    4    0    0 -0.56745918363E+02  0.10655253065E+03  0.50230698885E+03  0.51660996127E+03  0.00000000000E+00 0. -1.
         11    1    4    4    0    0 -0.31681261669E+02  0.60491624476E+02  0.93139280400E+02  0.11548967281E+03  0.00000000000E+00 0.  1.
        -11    1    3    3    0    0  0.28212648772E+02 -0.85998141029E+01  0.31167808266E+02  0.42910868383E+02  0.00000000000E+00 0.  1.
         11    1    3    3    0    0 -0.42241473025E+02 -0.77290989312E+01 -0.28578872692E+02  0.51583262575E+02  0.00000000000E+00 0. -1.
          2    1    1    2  501    0  0.10245600428E+03 -0.15071524210E+03 -0.46814929965E+02  0.18815938638E+03  0.00000000000E+00 0. -1.
<scales pt_clust_5="13000.00000" pt_clust_6="13000.00000" pt_clust_7="13000.00000" pt_clust_8="13000.00000" pt_clust_9="182.83506"></scales>
<clustering>
<clus scale="   91.973">  7  8 -1 -1</clus>
<clus scale="   94.459">  1  7  2 -1</clus>
<clus scale="   96.284">  5  6 -1 -1</clus>
<clus scale="  182.835">  2  9  1 -1</clus>
<clus scale="  182.835">  2  5  1 -1</clus>
</clustering>
</event>
<event>
 9    1  0.1636528E-005  0.1331956E+03  0.7546771E-02  0.1222961E+00
          2   -1    0    0  502    0 -0.00000000000E+00  0.00000000000E+00  0.50675900922E+03  0.50675900922E+03  0.00000000000E+00 0. -1.
         21   -1    0    0  501  502  0.00000000000E+00 -0.00000000000E+00 -0.82420187082E+02  0.82420187082E+02  0.00000000000E+00 0.  1.
         23    2    1    2    0    0 -0.10212548614E+03 -0.29653753673E+02  0.32964951181E+03  0.35847826998E+03  0.92352094617E+02 0.  0.
         23    2    1    2    0    0  0.76613726125E+02  0.20605689018E+02  0.13544597245E+03  0.18177421705E+03  0.91662408219E+02 0.  0.
        -11    1    3    3    0    0  0.12379979577E+02 -0.18088735532E+02  0.27595513513E+02  0.35241716949E+02  0.00000000000E+00 0. -1.
         11    1    3    3    0    0 -0.11450546572E+03 -0.11565018141E+02  0.30205399830E+03  0.32323655303E+03  0.00000000000E+00 0.  1.
        -11    1    4    4    0    0 -0.18403802091E+02 -0.10567653049E+02  0.23056619464E+02  0.31336606764E+02  0.00000000000E+00 0.  1.
         11    1    4    4    0    0  0.95017528216E+02  0.31173342067E+02  0.11238935298E+03  0.15043761028E+03  0.00000000000E+00 0. -1.
          2    1    1    2  501    0  0.25511760016E+02  0.90480646547E+01 -0.40756662125E+02  0.48926709277E+02  0.00000000000E+00 0. -1.
<scales pt_clust_5="13000.00000" pt_clust_6="13000.00000" pt_clust_7="13000.00000" pt_clust_8="13000.00000" pt_clust_9="27.06875"></scales>
<clustering>
<clus scale="   27.069">  2  9  1 -1</clus>
<clus scale="   91.662">  7  8 -1 -1</clus>
<clus scale="   92.352">  5  6 -1 -1</clus>
<clus scale="  132.718">  2  7  1 -1</clus>
<clus scale="   27.069">  2  5  1 -1</clus>
</clustering>
</event>
<event>
 9    1  0.1636528E-005  0.9880138E+02  0.7546771E-02  0.1284472E+00
         21   -1    0    0  501  502  0.00000000000E+00  0.00000000000E+00  0.21409377412E+02  0.21409377412E+02  0.00000000000E+00 0.  1.
          2   -1    0    0  502    0 -0.00000000000E+00 -0.00000000000E+00 -0.74782500866E+03  0.74782500866E+03  0.00000000000E+00 0. -1.
         23    2    1    2    0    0 -0.24441781831E+02 -0.67932653960E+01 -0.34777168580E+03  0.36048460158E+03  0.91435514854E+02 0.  0.
         23    2    1    2    0    0  0.85250748591E+01  0.42554049840E+02 -0.33162518512E+03  0.34757022020E+03  0.94584726581E+02 0.  0.
        -11    1    3    3    0    0  0.28782365628E+02 -0.24865354929E+02 -0.16140391107E+03  0.16582500702E+03  0.00000000000E+00 0. -1.
         11    1    3    3    0    0 -0.53224147459E+02  0.18072089533E+02 -0.18636777473E+03  0.19465959455E+03  0.00000000000E+00 0.  1.
        -11    1    4    4    0    0 -0.33788772347E+02  0.50608157320E+02 -0.18517135243E+03  0.19491356157E+03  0.00000000000E+00 0.  1.
         11    1    4    4    0    0  0.42313847206E+02 -0.80541074800E+01 -0.14645383270E+03  0.15265665863E+03  0.00000000000E+00 0. -1.
          2    1    1    2  501    0  0.15916706972E+02 -0.35760784444E+02 -0.47018760326E+02  0.61179564296E+02  0.00000000000E+00 0. -1.
<scales pt_clust_5="13000.00000" pt_clust_6="13000.00000" pt_clust_7="13000.00000" pt_clust_8="13000.00000" pt_clust_9="39.14301"></scales>
<clustering>
<clus scale="   39.143">  1  9  2 -1</clus>
<clus scale="   91.436">  5  6 -1 -1</clus>
<clus scale="   94.585">  7  8 -1 -1</clus>
<clus scale="   95.791">  2  5  1 -1</clus>
<clus scale="   39.143">  1  5  2 -1</clus>
</clustering>
</event>
<event>
 9    1  0.1636528E-005  0.1040542E+03  0.7546771E-02  0.1272273E+00
          1   -1    0    0  502    0 -0.00000000000E+00  0.00000000000E+00  0.46479578717E+03  0.46479578717E+03  0.00000000000E+00 0. -1.
         21   -1    0    0  501  502  0.00000000000E+00 -0.00000000000E+00 -0.50356409616E+02  0.50356409616E+02  0.00000000000E+00 0.  1.
         23    2    1    2    0    0  0.33239324561E+02 -0.51378114991E+01  0.20017631511E+03  0.22266078005E+03  0.91520577145E+02 0.  0.
         23    2    1    2    0    0 -0.66016282488E+02 -0.41579273772E+02  0.20007571172E+03  0.23368583921E+03  0.92150938482E+02 0.  0.
        -13    1    4    4    0    0 -0.42143316069E+02 -0.59837938964E+02  0.74010295691E+02  0.10408728019E+03  0.00000000000E+00 0.  1.
         13    1    4    4    0    0 -0.23872966418E+02  0.18258665192E+02  0.12606541603E+03  0.12959855902E+03  0.00000000000E+00 0. -1.
        -13    1    3    3    0    0  0.22096809422E+02 -0.45536252133E+02  0.14356703257E+03  0.15222782954E+03  0.00000000000E+00 0.  1.
         13    1    3    3    0    0  0.11142515139E+02  0.40398440634E+02  0.56609282536E+02  0.70432950517E+02  0.00000000000E+00 0. -1.
          1    1    1    2  501    0  0.32776957927E+02  0.46717085271E+02  0.14187350721E+02  0.58805577522E+02  0.00000000000E+00 0. -1.
<scales pt_clust_5="13000.00000" pt_clust_6="13000.00000" pt_clust_7="13000.00000" pt_clust_8="13000.00000" pt_clust_9="57.06851"></scales>
<clustering>
<clus scale="   57.069">  2  9  1 -1</clus>
<clus scale="   91.521">  7  8 -1 -1</clus>
<clus scale="   92.151">  5  6 -1 -1</clus>
<clus scale="  103.496">  1  7  2 -1</clus>
<clus scale="   57.069">  2  5  1 -1</clus>
</clustering>
</event>
<event>
 9    1  0.1636528E-005  0.1276438E+03  0.7546771E-02  0.1235906E+00
          3   -1    0    0  502    0 -0.00000000000E+00  0.00000000000E+00  0.96141315225E+02  0.96141315225E+02  0.00000000000E+00 0. -1.
         21   -1    0    0  501  502  0.00000000000E+00 -0.00000000000E+00 -0.39618953012E+03  0.39618953012E+03  0.00000000000E+00 0. -1.
         23    2    1    2    0    0 -0.71035692844E+02  0.18689849738E+02 -0.30493054388E+02  0.10781080847E+03  0.72787113669E+02 0.  0.
         23    2    1    2    0    0  0.89545498670E+02 -0.10999315962E+03 -0.11479713133E+03  0.20388517064E+03  0.90960925388E+02 0.  0.
        -13    1    3    3    0    0 -0.60443085594E+02 -0.19599962681E+02 -0.16032804969E+02  0.65533014339E+02  0.00000000000E+00 0. -1.
         13    1    3    3    0    0 -0.10592607251E+02  0.38289812419E+02 -0.14460249419E+02  0.42277794132E+02  0.00000000000E+00 0.  1.
        -13    1    4    4    0    0 -0.18423922377E+02 -0.25136198197E+02 -0.20587851865E+02  0.37351425943E+02  0.00000000000E+00 0.  1.
         13    1    4    4    0    0  0.10796942105E+03 -0.84856961423E+02 -0.94209279469E+02  0.16653374469E+03  0.00000000000E+00 0. -1.
          3    1    1    2  501    0 -0.18509805826E+02  0.91303309883E+02 -0.15475802917E+03  0.18063486624E+03  0.00000000000E+00 0. -1.
<scales pt_clust_5="13000.00000" pt_clust_6="13000.00000" pt_clust_7="13000.00000" pt_clust_8="13000.00000" pt_clust_9="93.16065"></scales>
<clustering>
<clus scale="   72.787">  5  6 -1 -1</clus>
<clus scale="   90.961">  7  8 -1 -1</clus>
<clus scale="   93.161">  2  9  1 -1</clus>
<clus scale="  115.399">  1  5  2 -1</clus>
<clus scale="   93.161">  2  5  1 -1</clus>
</clustering>
</event>
<event>
 9    1  0.1636528E-005  0.1969747E+03  0.7546771E-02  0.1152743E+00
         21   -1    0    0  501  502  0.00000000000E+00  0.00000000000E+00  0.37316623723E+03  0.37316623723E+03  0.00000000000E+00 0. -1.
          2   -1    0    0  502    0 -0.00000000000E+00 -0.00000000000E+00 -0.40230333749E+03  0.40230333749E+03  0.00000000000E+00 0. -1.
         23    2    1    2    0    0 -0.16171256715E+03 -0.13415665550E+03 -0.23406206244E+03  0.32753819552E+03  0.91363328860E+02 0.  0.
         23    2    1    2    0    0  0.59276668940E+02  0.11754880087E+03 -0.52075505658E+02  0.17077046105E+03  0.95494753836E+02 0.  0.
        -11    1    4    4    0    0  0.82736144453E+02  0.10178882379E+03 -0.55245255626E+02  0.14233155840E+03  0.00000000000E+00 0. -1.
         11    1    4    4    0    0 -0.23459475513E+02  0.15759977078E+02  0.31697499677E+01  0.28438902646E+02  0.00000000000E+00 0.  1.
        -13    1    3    3    0    0  0.93928833101E+01 -0.23088754780E+02 -0.29928617331E+02  0.38949184709E+02  0.00000000000E+00 0.  1.
         13    1    3    3    0    0 -0.17110545046E+03 -0.11106790072E+03 -0.20413344511E+03  0.28858901081E+03  0.00000000000E+00 0. -1.
          2    1    1    2  501    0  0.10243589821E+03  0.16607854632E+02  0.25700046784E+03  0.27716091815E+03  0.00000000000E+00 0. -1.
<scales pt_clust_5="13000.00000" pt_clust_6="13000.00000" pt_clust_7="13000.00000" pt_clust_8="13000.00000" pt_clust_9="103.77347"></scales>
<clustering>
<clus scale="   91.363">  7  8 -1 -1</clus>
<clus scale="   95.495">  5  6 -1 -1</clus>
<clus scale="  103.773">  1  9  2 -1</clus>
<clus scale="  195.005">  2  7  1 -1</clus>
<clus scale="  103.773">  1  5  2 -1</clus>
</clustering>
</event>
<event>
 9    1  0.1636528E-005  0.9413396E+02  0.7546771E-02  0.1293356E+00
         21   -1    0    0  501  502  0.00000000000E+00  0.00000000000E+00  0.75871408623E+02  0.75871408623E+02  0.00000000000E+00 0. -1.
          2   -1    0    0  502    0 -0.00000000000E+00 -0.00000000000E+00 -0.29886175649E+03  0.29886175649E+03  0.00000000000E+00 0. -1.
         23    2    1    2    0    0 -0.37998748000E+02 -0.10209504940E+02 -0.18187359986E+03  0.20715500189E+03  0.91033233710E+02 0.  0.
         23    2    1    2    0    0 -0.17261414244E+01 -0.59620289658E+01 -0.70999594253E+02  0.11530417497E+03  0.90639864446E+02 0.  0.
        -13    1    3    3    0    0  0.19329661196E+02 -0.24983830704E+02 -0.27728121987E+02  0.42031849204E+02  0.00000000000E+00 0.  1.
         13    1    3    3    0    0 -0.57328409197E+02  0.14774325764E+02 -0.15414547788E+03  0.16512315268E+03  0.00000000000E+00 0. -1.
        -13    1    4    4    0    0  0.19891701944E+02  0.17148414296E+02  0.10185926666E+02  0.28169150167E+02  0.00000000000E+00 0.  1.
         13    1    4    4    0    0 -0.21617843369E+02 -0.23110443261E+02 -0.81185520920E+02  0.87135024798E+02  0.00000000000E+00 0. -1.
          2    1    1    2  501    0  0.39724889425E+02  0.16171533906E+02  0.29882846248E+02  0.52273988260E+02  0.00000000000E+00 0. -1.
<scales pt_clust_5="13000.00000" pt_clust_6="13000.00000" pt_clust_7="13000.00000" pt_clust_8="13000.00000" pt_clust_9="42.89039"></scales>
<clustering>
<clus scale="   42.890">  1  9  2 -1</clus>
<clus scale="   90.640">  7  8 -1 -1</clus>
<clus scale="   91.033">  5  6 -1 -1</clus>
<clus scale="   93.754">  1  7  2 -1</clus>
<clus scale="   42.890">  1  5  2 -1</clus>
</clustering>
</event>
<event>
 9    1  0.1636528E-005  0.9350737E+02  0.7546771E-02  0.1296620E+00
         -3   -1    0    0    0  501 -0.00000000000E+00  0.00000000000E+00  0.19551737522E+03  0.19551737522E+03  0.00000000000E+00 0.  1.
         21   -1    0    0  501  502  0.00000000000E+00 -0.00000000000E+00 -0.14984467308E+03  0.14984467308E+03  0.00000000000E+00 0.  1.
         23    2    1    2    0    0  0.22214705239E+02  0.59347974640E+01  0.94700401204E+02  0.13218714358E+03  0.89311589343E+02 0.  0.
         23    2    1    2    0    0  0.92858856484E+01 -0.65624256200E+01  0.52239387218E+02  0.10711971198E+03  0.92824490385E+02 0.  0.
        -11    1    3    3    0    0  0.81440760475E+01  0.43118838794E+02  0.21450704526E+02  0.48843555955E+02  0.00000000000E+00 0. -1.
         11    1    3    3    0    0  0.14070629191E+02 -0.37184041330E+02  0.73249696678E+02  0.83343587629E+02  0.00000000000E+00 0.  1.
        -13    1    4    4    0    0  0.31423198703E+02 -0.40378401900E+02  0.39829143230E+02  0.64839751751E+02  0.00000000000E+00 0.  1.
         13    1    4    4    0    0 -0.22137313054E+02  0.33815976280E+02  0.12410243989E+02  0.42279960228E+02  0.00000000000E+00 0. -1.
         -3    1    1    2    0  502 -0.31500590887E+02  0.62762815602E+00 -0.10126708628E+03  0.10605519274E+03  0.00000000000E+00 0.  1.
<scales pt_clust_5="13000.00000" pt_clust_6="13000.00000" pt_clust_7="13000.00000" pt_clust_8="13000.00000" pt_clust_9="31.50684"></scales>
<clustering>
<clus scale="   31.507">  2  9  1 -1</clus>
<clus scale="   89.312">  5  6 -1 -1</clus>
<clus scale="   90.021">  1  5  2 -1</clus>
<clus scale="   92.824">  7  8 -1 -1</clus>
<clus scale="   31.507">  2  5  1 -1</clus>
</clustering>
</event>
<event>
 9    1  0.1636528E-005  0.1192847E+03  0.7546771E-02  0.1246791E+00
         21   -1    0    0  501  502  0.00000000000E+00  0.00000000000E+00  0.14418228265E+03  0.14418228265E+03  0.00000000000E+00 0.  1.
         -3   -1    0    0    0  501 -0.00000000000E+00 -0.00000000000E+00 -0.40391466464E+03  0.40391466464E+03  0.00000000000E+00 0.  1.
         23    2    1    2    0    0  0.49591872923E+02 -0.28754197737E+02 -0.19500789678E+03  0.22244824678E+03  0.90382437138E+02 0.  0.
         23    2    1    2    0    0 -0.74304303431E+02  0.44159440372E+02 -0.17122832031E+03  0.21523541955E+03  0.97652252765E+02 0.  0.
        -11    1    3    3    0    0 -0.13083328234E+02  0.22394985844E+02 -0.53275932444E+02  0.59253977474E+02  0.00000000000E+00 0.  1.
         11    1    3    3    0    0  0.62675201156E+02 -0.51149183582E+02 -0.14173196433E+03  0.16319426931E+03  0.00000000000E+00 0. -1.
        -13    1    4    4    0    0  0.83551531994E+01  0.38442750531E+02 -0.94281187785E+02  0.10215965947E+03  0.00000000000E+00 0. -1.
         13    1    4    4    0    0 -0.82659456631E+02  0.57166898408E+01 -0.76947132529E+02  0.11307576008E+03  0.00000000000E+00 0.  1.
         -3    1    1    2    0  502  0.24712430509E+02 -0.15405242635E+02  0.10650383509E+03  0.11041328096E+03  0.00000000000E+00 0.  1.
<scales pt_clust_5="13000.00000" pt_clust_6="13000.00000" pt_clust_7="13000.00000" pt_clust_8="13000.00000" pt_clust_9="29.12088"></scales>
<clustering>
<clus scale="   29.121">  1  9  2 -1</clus>
<clus scale="   90.382">  5  6 -1 -1</clus>
<clus scale="   97.652">  7  8 -1 -1</clus>
<clus scale="  113.410">  2  5  1 -1</clus>
<clus scale="   29.121">  1  5  2 -1</clus>
</clustering>
</event>
<event>
 9    1  0.1636528E-005  0.1155095E+03  0.7546771E-02  0.1254656E+00
         21   -1    0    0  501  502  0.00000000000E+00  0.00000000000E+00  0.21103332642E+03  0.21103332642E+03  0.00000000000E+00 0.  1.
         -1   -1    0    0    0  501 -0.00000000000E+00 -0.00000000000E+00 -0.87447614962E+02  0.87447614962E+02  0.00000000000E+00 0.  1.
         23    2    1    2    0    0  0.55527248782E+02  0.17101631111E+02  0.16451155272E+02  0.10693622730E+03  0.88255170137E+02 0.  0.
         23    2    1    2    0    0 -0.49186309194E+02 -0.44969016229E+02  0.52993338015E+02  0.13032322951E+03  0.98662783475E+02 0.  0.
        -11    1    3    3    0    0  0.16195393438E+01  0.34193218293E+02 -0.20008060919E+02  0.39649988482E+02  0.00000000000E+00 0. -1.
         11    1    3    3    0    0  0.53907709438E+02 -0.17091587181E+02  0.36459216191E+02  0.67286238820E+02  0.00000000000E+00 0.  1.
        -13    1    4    4    0    0 -0.72339562243E+02 -0.28852213163E+02  0.63225910949E+02  0.10031439720E+03  0.00000000000E+00 0. -1.
         13    1    4    4    0    0  0.23153253049E+02 -0.16116803066E+02 -0.10232572934E+02  0.30008832311E+02  0.00000000000E+00 0.  1.
         -1    1    1    2    0  502 -0.63409395877E+01  0.27867385117E+02  0.54141218174E+02  0.61221484575E+02  0.00000000000E+00 0.  1.
<scales pt_clust_5="13000.00000" pt_clust_6="13000.00000" pt_clust_7="13000.00000" pt_clust_8="13000.00000" pt_clust_9="28.57969"></scales>
<clustering>
<clus scale="   28.580">  1  9  2 -1</clus>
<clus scale="   88.255">  5  6 -1 -1</clus>
<clus scale="   98.663">  7  8 -1 -1</clus>
<clus scale="  106.757">  2  5  1 -1</clus>
<clus scale="   28.580">  1  5  2 -1</clus>
</clustering>
</event>
<event>
 9    1  0.1636528E-005  0.1050524E+03  0.7546771E-02  0.1272851E+00
         21   -1    0    0  501  502  0.00000000000E+00  0.00000000000E+00  0.89404765386E+02  0.89404765386E+02  0.00000000000E+00 0.  1.
          4   -1    0    0  502    0 -0.00000000000E+00 -0.00000000000E+00 -0.31291228386E+03  0.31291228386E+03  0.00000000000E+00 0. -1.
         23    2    1    2    0    0  0.34279329202E+02  0.11027330855E+02 -0.17253994131E+03  0.19831093775E+03  0.90887415236E+02 0.  0.
         23    2    1    2    0    0 -0.52210627027E+02  0.15322820991E+02 -0.97308543091E+02  0.14776247127E+03  0.96974516953E+02 0.  0.
        -11    1    4    4    0    0  0.11657747844E+01 -0.26670254245E+02  0.27446703376E+01  0.26836443647E+02  0.00000000000E+00 0.  1.
         11    1    4    4    0    0 -0.53376401811E+02  0.41993075236E+02 -0.10005321343E+03  0.12092602762E+03  0.00000000000E+00 0. -1.
        -13    1    3    3    0    0  0.47025652005E+02  0.42425593950E+02 -0.12202749122E+03  0.13748473218E+03  0.00000000000E+00 0. -1.
         13    1    3    3    0    0 -0.12746322803E+02 -0.31398263095E+02 -0.50512450081E+02  0.60826205566E+02  0.00000000000E+00 0.  1.
          4    1    1    2  501    0  0.17931297824E+02 -0.26350151846E+02  0.46340965922E+02  0.56243640232E+02  0.00000000000E+00 0. -1.
<scales pt_clust_5="13000.00000" pt_clust_6="13000.00000" pt_clust_7="13000.00000" pt_clust_8="13000.00000" pt_clust_9="31.87259"></scales>
<clustering>
<clus scale="   31.873">  1  9  2 -1</clus>
<clus scale="   90.887">  7  8 -1 -1</clus>
<clus scale="   96.975">  5  6 -1 -1</clus>
<clus scale="   99.461">  2  7  1 -1</clus>
<clus scale="   31.873">  1  5  2 -1</clus>
</clustering>
</event>
<event>
 9    1  0.1636528E-005  0.9479722E+02  0.7546771E-02  0.1292923E+00
         21   -1    0    0  501  502  0.00000000000E+00  0.00000000000E+00  0.29701534479E+03  0.29701534479E+03  0.00000000000E+00 0.  1.
         -3   -1    0    0    0  501 -0.00000000000E+00 -0.00000000000E+00 -0.11890097063E+03  0.11890097063E+03  0.00000000000E+00 0.  1.
         23    2    1    2    0    0  0.26955439472E+01 -0.16398512040E+02 -0.63633072688E+02  0.11220955060E+03  0.90915555059E+02 0.  0.
         23    2    1    2    0    0 -0.67242189799E+02 -0.47183262778E+01  0.16616683123E+03  0.20209662848E+03  0.93208673148E+02 0.  0.
        -11    1    3    3    0    0  0.63039167044E+01 -0.54138012969E+02 -0.36871758983E+02  0.65804182424E+02  0.00000000000E+00 0. -1.
         11    1    3    3    0    0 -0.36083727572E+01  0.37739500928E+02 -0.26761313704E+02  0.46405368175E+02  0.00000000000E+00 0.  1.
        -13    1    4    4    0    0 -0.80888785021E+02  0.16087191753E+02  0.15331965007E+03  0.17409396422E+03  0.00000000000E+00 0.  1.
         13    1    4    4    0    0  0.13646595222E+02 -0.20805518031E+02  0.12847181156E+02  0.28002664255E+02  0.00000000000E+00 0. -1.
         -3    1    1    2    0  502  0.64546645852E+02  0.21116838318E+02  0.75580615621E+02  0.10161013635E+03  0.00000000000E+00 0.  1.
<scales pt_clust_5="13000.00000" pt_clust_6="13000.00000" pt_clust_7="13000.00000" pt_clust_8="13000.00000" pt_clust_9="67.91311"></scales>
<clustering>
<clus scale="   67.913">  1  9  2 -1</clus>
<clus scale="   90.916">  5  6 -1 -1</clus>
<clus scale="   92.543">  2  5  1 -1</clus>
<clus scale="   93.209">  7  8 -1 -1</clus>
<clus scale="   67.913">  1  5  2 -1</clus>
</clustering>
</event>
<event>
 9    1  0.1636528E-005  0.1174797E+03  0.7546771E-02  0.1257048E+00
         21   -1    0    0  501  502  0.00000000000E+00  0.00000000000E+00  0.96117751853E+02  0.96117751853E+02  0.00000000000E+00 0. -1.
         -2   -1    0    0    0  501 -0.00000000000E+00 -0.00000000000E+00 -0.34704122759E+03  0.34704122759E+03  0.00000000000E+00 0.  1.
         23    2    1    2    0    0  0.17901500754E+02  0.40969332082E+02 -0.23357955432E+03  0.25453174264E+03  0.90708598897E+02 0.  0.
         23    2    1    2    0    0  0.17904544637E+02 -0.17796746344E+01 -0.51971148788E+02  0.12524784730E+03  0.11252681008E+03 0.  0.
        -13    1    3    3    0    0  0.13273190872E+02 -0.28504558067E+02 -0.68748954861E+02  0.75598321549E+02  0.00000000000E+00 0.  1.
         13    1    3    3    0    0  0.46283098816E+01  0.69473890149E+02 -0.16483059946E+03  0.17893342109E+03  0.00000000000E+00 0. -1.
        -13    1    4    4    0    0 -0.49826696121E+01 -0.26250329153E+02 -0.78237214247E+02  0.82673868122E+02  0.00000000000E+00 0.  1.
         13    1    4    4    0    0  0.22887214249E+02  0.24470654519E+02  0.26266065459E+02  0.42573979181E+02  0.00000000000E+00 0. -1.
         -2    1    1    2    0  502 -0.35806045391E+02 -0.39189657447E+02  0.34627227375E+02  0.63379389497E+02  0.00000000000E+00 0.  1.
<scales pt_clust_5="13000.00000" pt_clust_6="13000.00000" pt_clust_7="13000.00000" pt_clust_8="13000.00000" pt_clust_9="53.08392"></scales>
<clustering>
<clus scale="   53.084">  1  9  2 -1</clus>
<clus scale="   90.709">  5  6 -1 -1</clus>
<clus scale="   96.785">  2  5  1 -1</clus>
<clus scale="  112.527">  7  8 -1 -1</clus>
<clus scale="   53.084">  1  5  2 -1</clus>
</clustering>
</event>
<event>
 9    1  0.1636528E-005  0.1680532E+03  0.7546771E-02  0.1188523E+00
         21   -1    0    0  501  502  0.00000000000E+00  0.00000000000E+00  0.25716711956E+03  0.25716711956E+03  0.00000000000E+00 0. -1.
          1   -1    0    0  502    0 -0.00000000000E+00 -0.00000000000E+00 -0.56217894025E+03  0.56217894025E+03  0.00000000000E+00 0. -1.
         23    2    1    2    0    0  0.96086522174E+02  0.40893086035E+02 -0.24867693181E+03  0.28469986706E+03  0.91153352438E+02 0.  0.
         23    2    1    2    0    0 -0.31362431749E+02 -0.16755037399E+03 -0.23648923075E+03  0.30511000091E+03  0.90045690845E+02 0.  0.
        -13    1    4    4    0    0  0.23904060340E+02 -0.98230419081E+02 -0.15264330285E+03  0.18308631090E+03  0.00000000000E+00 0.  1.
         13    1    4    4    0    0 -0.55266492089E+02 -0.69319954914E+02 -0.83845927900E+02  0.12202369001E+03  0.00000000000E+00 0. -1.
        -13    1    3    3    0    0  0.11030966470E+03  0.21476858392E+02 -0.18300504146E+03  0.21475642662E+03  0.00000000000E+00 0. -1.
         13    1    3    3    0    0 -0.14223142526E+02  0.19416227643E+02 -0.65671890347E+02  0.69943440442E+02  0.00000000000E+00 0.  1.
          1    1    1    2  501    0 -0.64724090425E+02  0.12665728796E+03  0.18015434187E+03  0.22953619185E+03  0.00000000000E+00 0. -1.
<scales pt_clust_5="13000.00000" pt_clust_6="13000.00000" pt_clust_7="13000.00000" pt_clust_8="13000.00000" pt_clust_9="141.89314"></scales>
<clustering>
<clus scale="   90.046">  5  6 -1 -1</clus>
<clus scale="   91.153">  7  8 -1 -1</clus>
<clus scale="  138.614">  2  7  1 -1</clus>
<clus scale="  141.893">  1  9  2 -1</clus>
<clus scale="  141.893">  1  5  2 -1</clus>
</clustering>
</event>
<event>
 9    1  0.1636528E-005  0.9666993E+02  0.7546771E-02  0.1287813E+00
          2   -1    0    0  502    0 -0.00000000000E+00  0.00000000000E+00  0.28058603022E+03  0.28058603022E+03  0.00000000000E+00 0. -1.
         21   -1    0    0  501  502  0.00000000000E+00 -0.00000000000E+00 -0.16079097239E+03  0.16079097239E+03  0.00000000000E+00 0. -1.
         23    2    1    2    0    0  0.30687686743E+02  0.75836607945E+01  0.22466677853E+03  0.24455315316E+03  0.91278898552E+02 0.  0.
         23    2    1    2    0    0 -0.19168871584E+02  0.49899835989E+02 -0.80236522514E+02  0.13323195928E+03  0.91953336862E+02 0.  0.
        -11    1    4    4    0    0  0.35664894468E+00 -0.23483786372E+02 -0.42214134661E+02  0.48307852219E+02  0.00000000000E+00 0.  1.
         11    1    4    4    0    0 -0.19525520528E+02  0.73383622361E+02 -0.38022387853E+02  0.84924107065E+02  0.00000000000E+00 0. -1.
        -13    1    3    3    0    0  0.46275152448E+02 -0.24041209842E+02  0.78847865371E+02  0.94532298069E+02  0.00000000000E+00 0.  1.
         13    1    3    3    0    0 -0.15587465704E+02  0.31624870636E+02  0.14581891315E+03  0.15002085509E+03  0.00000000000E+00 0. -1.
          2    1    1    2  501    0 -0.11518815160E+02 -0.57483496783E+02 -0.24635198186E+02  0.63591890165E+02  0.00000000000E+00 0. -1.
<scales pt_clust_5="13000.00000" pt_clust_6="13000.00000" pt_clust_7="13000.00000" pt_clust_8="13000.00000" pt_clust_9="58.62624"></scales>
<clustering>
<clus scale="   58.626">  2  9  1 -1</clus>
<clus scale="   91.279">  7  8 -1 -1</clus>
<clus scale="   91.953">  5  6 -1 -1</clus>
<clus scale="   96.029">  1  7  2 -1</clus>
<clus scale="   58.626">  2  5  1 -1</clus>
</clustering>
</event>
<event>
 9    1  0.1636528E-005  0.1303935E+03  0.7546771E-02  0.1227240E+00
         21   -1    0    0  501  502  0.00000000000E+00  0.00000000000E+00  0.30232180923E+03  0.30232180923E+03  0.00000000000E+00 0.  1.
         -2   -1    0    0    0  501 -0.00000000000E+00 -0.00000000000E+00 -0.12589811254E+03  0.12589811254E+03  0.00000000000E+00 0.  1.
         23    2    1    2    0    0 -0.21234436373E+02 -0.92260201204E+02 -0.43687716392E-01  0.13377991007E+03  0.94520983998E+02 0.  0.
         23    2    1    2    0    0 -0.90723898386E+01  0.86758887317E+02  0.13208904737E+02  0.12830121625E+03  0.93152102187E+02 0.  0.
        -11    1    4    4    0    0  0.17061841570E+02  0.56558609111E+02 -0.32642788218E+02  0.67494698495E+02  0.00000000000E+00 0.  1.
         11    1    4    4    0    0 -0.26134231409E+02  0.30200278206E+02  0.45851692955E+02  0.60806517758E+02  0.00000000000E+00 0. -1.
        -13    1    3    3    0    0 -0.52233345878E+02 -0.84435787641E+02  0.11140147863E+02  0.99909096436E+02  0.00000000000E+00 0. -1.
         13    1    3    3    0    0  0.30998909505E+02 -0.78244135629E+01 -0.11183835580E+02  0.33870813636E+02  0.00000000000E+00 0.  1.
         -2    1    1    2    0  502  0.30306826211E+02  0.55013138878E+01  0.16325847967E+03  0.16613879545E+03  0.00000000000E+00 0.  1.
<scales pt_clust_5="13000.00000" pt_clust_6="13000.00000" pt_clust_7="13000.00000" pt_clust_8="13000.00000" pt_clust_9="30.80208"></scales>
<clustering>
<clus scale="   30.802">  1  9  2 -1</clus>
<clus scale="   93.152">  5  6 -1 -1</clus>
<clus scale="   94.521">  7  8 -1 -1</clus>
<clus scale="  129.405">  1  5  2 -1</clus>
<clus scale="   30.802">  1  5  2 -1</clus>
</clustering>
</event>
<event>
 9    1  0.1636528E-005  0.1008426E+03  0.7546771E-02  0.1280542E+00
         21   -1    0    0  501  502  0.00000000000E+00  0.00000000000E+00  0.10313131247E+03  0.10313131247E+03  0.00000000000E+00 0. -1.
         -1   -1    0    0    0  501 -0.00000000000E+00 -0.00000000000E+00 -0.27103313906E+03  0.27103313906E+03  0.00000000000E+00 0.  1.
         23    2    1    2    0    0 -0.26268632145E+02 -0.33786832346E+02 -0.17810349560E+03  0.20546904236E+03  0.93086417642E+02 0.  0.
         23    2    1    2    0    0  0.56692131398E+01  0.32641543715E+02 -0.48400456219E+02  0.10656766310E+03  0.88974447476E+02 0.  0.
        -11    1    4    4    0    0  0.35469375942E+02 -0.14130157930E+02 -0.11204035252E+02  0.39790305336E+02  0.00000000000E+00 0.  1.
         11    1    4    4    0    0 -0.29800162802E+02  0.46771701645E+02 -0.37196420968E+02  0.66777357769E+02  0.00000000000E+00 0. -1.
        -13    1    3    3    0    0  0.26627364526E+02 -0.16627354279E+02 -0.12389250913E+03  0.12780782163E+03  0.00000000000E+00 0.  1.
         13    1    3    3    0    0 -0.52895996671E+02 -0.17159478066E+02 -0.54210986477E+02  0.77661220736E+02  0.00000000000E+00 0. -1.
         -1    1    1    2    0  502  0.20599419005E+02  0.11452886310E+01  0.58602125235E+02  0.62127746068E+02  0.00000000000E+00 0.  1.
<scales pt_clust_5="13000.00000" pt_clust_6="13000.00000" pt_clust_7="13000.00000" pt_clust_8="13000.00000" pt_clust_9="20.63123"></scales>
<clustering>
<clus scale="   20.631">  1  9  2 -1</clus>
<clus scale="   88.974">  5  6 -1 -1</clus>
<clus scale="   93.086">  7  8 -1 -1</clus>
<clus scale="   97.060">  1  5  2 -1</clus>
<clus scale="   20.631">  1  5  2 -1</clus>
</clustering>
</event>
<event>
 9    1  0.1636528E-005  0.4415634E+03  0.7546771E-02  0.1030292E+00
         21   -1    0    0  501  502  0.00000000000E+00  0.00000000000E+00  0.10911001438E+03  0.10911001438E+03  0.00000000000E+00 0.  1.
          1   -1    0    0  502    0 -0.00000000000E+00 -0.00000000000E+00 -0.21253991138E+04  0.21253991138E+04  0.00000000000E+00 0. -1.
         23    2    1    2    0    0  0.39122352209E+03 -0.13748635203E+03 -0.10828475025E+04  0.11632694174E+04  0.93159446888E+02 0.  0.
         23    2    1    2    0    0 -0.42990998584E+03  0.14890697259E+03 -0.91685008162E+03  0.10276237570E+04  0.91654957766E+02 0.  0.
        -11    1    3    3    0    0  0.12199772597E+03 -0.27901080450E+01 -0.26403203497E+03  0.29086791734E+03  0.00000000000E+00 0.  1.
         11    1    3    3    0    0  0.26922579612E+03 -0.13469624399E+03 -0.81881546749E+03  0.87240150002E+03  0.00000000000E+00 0. -1.
        -11    1    4    4    0    0 -0.36771065613E+03  0.10321689030E+03 -0.69941212995E+03  0.79689533854E+03  0.00000000000E+00 0.  1.
         11    1    4    4    0    0 -0.62199329714E+02  0.45690082292E+02 -0.21743795167E+03  0.23072841841E+03  0.00000000000E+00 0. -1.
          1    1    1    2  501    0  0.38686463749E+02 -0.11420620555E+02 -0.16591515354E+02  0.43615953882E+02  0.00000000000E+00 0. -1.
<scales pt_clust_5="13000.00000" pt_clust_6="13000.00000" pt_clust_7="13000.00000" pt_clust_8="13000.00000" pt_clust_9="40.33699"></scales>
<clustering>
<clus scale="   40.337">  1  9  2 -1</clus>
<clus scale="   91.655">  7  8 -1 -1</clus>
<clus scale="   93.159">  5  6 -1 -1</clus>
<clus scale="  441.248">  1  7  2 -1</clus>
<clus scale="   40.337">  1  5  2 -1</clus>
</clustering>
</event>
<event>
 9    1  0.1636528E-005  0.1078256E+03  0.7546771E-02  0.1265173E+00
         21   -1    0    0  501  502  0.00000000000E+00  0.00000000000E+00  0.18074946190E+03  0.18074946190E+03  0.00000000000E+00 0.  1.
         -1   -1    0    0    0  501 -0.00000000000E+00 -0.00000000000E+00 -0.14751989503E+03  0.14751989503E+03  0.00000000000E+00 0.  1.
         23    2    1    2    0    0 -0.71355647966E+02  0.59017130652E+01 -0.76626005990E+02  0.13947653396E+03  0.91954880344E+02 0.  0.
         23    2    1    2    0    0  0.21737237577E+02 -0.96755730390E+01  0.37470522011E+02  0.10095305831E+03  0.90671692121E+02 0.  0.
        -11    1    3    3    0    0 -0.37156967253E+02 -0.11487033487E+02  0.13784472269E+02  0.41262620245E+02  0.00000000000E+00 0. -1.
         11    1    3    3    0    0 -0.34198680713E+02  0.17388746552E+02 -0.90410478259E+02  0.98213913720E+02  0.00000000000E+00 0.  1.
        -13    1    4    4    0    0 -0.30109653193E+02  0.85425586217E+01 -0.47447822793E+01  0.31655639025E+02  0.00000000000E+00 0.  1.
         13    1    4    4    0    0  0.51846890771E+02 -0.18218131661E+02  0.42215304290E+02  0.69297419289E+02  0.00000000000E+00 0. -1.
         -1    1    1    2    0  502  0.49618410389E+02  0.37738599738E+01  0.72385050851E+02  0.87839764659E+02  0.00000000000E+00 0.  1.
<scales pt_clust_5="13000.00000" pt_clust_6="13000.00000" pt_clust_7="13000.00000" pt_clust_8="13000.00000" pt_clust_9="49.76172"></scales>
<clustering>
<clus scale="   49.762">  1  9  2 -1</clus>
<clus scale="   90.672">  7  8 -1 -1</clus>
<clus scale="   91.955">  5  6 -1 -1</clus>
<clus scale="  106.733">  1  7  2 -1</clus>
<clus scale="   49.762">  1  5  2 -1</clus>
</clustering>
</event>
<event>
 9    1  0.1636528E-005  0.1043416E+03  0.7546771E-02  0.1271885E+00
         21   -1    0    0  501  502  0.00000000000E+00  0.00000000000E+00  0.65469393825E+02  0.65469393825E+02  0.00000000000E+00 0. -1.
          3   -1    0    0  502    0 -0.00000000000E+00 -0.00000000000E+00 -0.33494049962E+03  0.33494049962E+03  0.00000000000E+00 0. -1.
         23    2    1    2    0    0 -0.34621415285E+02 -0.63094019992E+01 -0.17623630392E+03  0.20374605333E+03  0.95993585608E+02 0.  0.
         23    2    1    2    0    0  0.23741389504E+02  0.61168528224E+02 -0.66644446780E+02  0.13473690191E+03  0.96991278109E+02 0.  0.
        -11    1    4    4    0    0  0.77977237731E+01  0.84080330966E+02 -0.65382647204E+02  0.10679511743E+03  0.00000000000E+00 0. -1.
         11    1    4    4    0    0  0.15943665731E+02 -0.22911802742E+02 -0.12617995752E+01  0.27941784481E+02  0.00000000000E+00 0.  1.
        -11    1    3    3    0    0 -0.57810064482E+02  0.83334248406E+00 -0.16871011041E+03  0.17834180488E+03  0.00000000000E+00 0.  1.
         11    1    3    3    0    0  0.23188649198E+02 -0.71427444832E+01 -0.75261935132E+01  0.25404248447E+02  0.00000000000E+00 0. -1.
          3    1    1    2  501    0  0.10880025781E+02 -0.54859126225E+02 -0.26590355093E+02  0.61926938202E+02  0.00000000000E+00 0. -1.
<scales pt_clust_5="13000.00000" pt_clust_6="13000.00000" pt_clust_7="13000.00000" pt_clust_8="13000.00000" pt_clust_9="55.92762"></scales>
<clustering>
<clus scale="   55.928">  1  9  2 -1</clus>
<clus scale="   95.994">  7  8 -1 -1</clus>
<clus scale="   96.991">  5  6 -1 -1</clus>
<clus scale="  103.415">  2  7  1 -1</clus>
<clus scale="   55.928">  1  5  2 -1</clus>
</clustering>
</event>
<event>
 9    1  0.1636528E-005  0.1270345E+03  0.7546771E-02  0.1247689E+00
          2   -1    0    0  502    0 -0.00000000000E+00  0.00000000000E+00  0.42651429906E+03  0.42651429906E+03  0.00000000000E+00 0. -1.
         21   -1    0    0  501  502  0.00000000000E+00 -0.00000000000E+00 -0.50893544639E+02  0.50893544639E+02  0.00000000000E+00 0. -1.
         23    2    1    2    0    0 -0.17630779477E+02  0.11722324495E+02  0.30881662742E+03  0.33350938018E+03  0.12414725137E+03 0.  0.
         23    2    1    2    0    0  0.38975432092E+02 -0.76272490293E+01  0.73131665514E+02  0.12126217447E+03  0.88198725737E+02 0.  0.
        -11    1    4    4    0    0  0.34693482080E+02  0.36735173531E+02  0.27714867374E+02  0.57630066343E+02  0.00000000000E+00 0. -1.
         11    1    4    4    0    0  0.42819500121E+01 -0.44362422560E+02  0.45416798140E+02  0.63632108126E+02  0.00000000000E+00 0.  1.
        -11    1    3    3    0    0 -0.32033250715E+02  0.63525930761E+02  0.19657665996E+03  0.20905515126E+03  0.00000000000E+00 0. -1.
         11    1    3    3    0    0  0.14402471238E+02 -0.51803606266E+02  0.11223996746E+03  0.12445422892E+03  0.00000000000E+00 0.  1.
          2    1    1    2  501    0 -0.21344652614E+02 -0.40950754656E+01 -0.63275385104E+01  0.22636289049E+02  0.00000000000E+00 0. -1.
<scales pt_clust_5="13000.00000" pt_clust_6="13000.00000" pt_clust_7="13000.00000" pt_clust_8="13000.00000" pt_clust_9="21.73393"></scales>
<clustering>
<clus scale="   21.734">  2  9  1 -1</clus>
<clus scale="   88.199">  5  6 -1 -1</clus>
<clus scale="   92.218">  2  5  1 -1</clus>
<clus scale="  124.147">  7  8 -1 -1</clus>
<clus scale="   21.734">  2  5  1 -1</clus>
</clustering>
</event>
<event>
 9    1  0.1636528E-005  0.1036377E+03  0.7546771E-02  0.1273849E+00
          2   -1    0    0  502    0 -0.00000000000E+00  0.00000000000E+00  0.14211512596E+03  0.14211512596E+03  0.00000000000E+00 0. -1.
         21   -1    0    0  501  502  0.00000000000E+00 -0.00000000000E+00 -0.27494229940E+03  0.27494229940E+03  0.00000000000E+00 0.  1.
         23    2    1    2    0    0  0.29597568905E+02  0.35245206508E+02  0.83898848756E+02  0.13213160458E+03  0.91112586616E+02 0.  0.
         23    2    1    2    0    0  0.41700660171E+01 -0.52985562278E+02 -0.58814367105E+02  0.12247255301E+03  0.93357041530E+02 0.  0.
        -11    1    3    3    0    0  0.29204981449E+02 -0.62409439625E+01  0.85547901052E+02  0.90610836534E+02  0.00000000000E+00 0. -1.
         11    1    3    3    0    0  0.39258745598E+00  0.41486150470E+02 -0.16490522961E+01  0.41520768047E+02  0.00000000000E+00 0.  1.
        -11    1    4    4    0    0  0.28420833110E+02 -0.70497237203E+02 -0.32629086506E+02  0.82717963552E+02  0.00000000000E+00 0.  1.
         11    1    4    4    0    0 -0.24250767093E+02  0.17511674925E+02 -0.26185280599E+02  0.39754589462E+02  0.00000000000E+00 0. -1.
          2    1    1    2  501    0 -0.33767634922E+02  0.17740355771E+02 -0.15791165510E+03  0.16245326776E+03  0.00000000000E+00 0. -1.
<scales pt_clust_5="13000.00000" pt_clust_6="13000.00000" pt_clust_7="13000.00000" pt_clust_8="13000.00000" pt_clust_9="38.14411"></scales>
<clustering>
<clus scale="   38.144">  2  9  1 -1</clus>
<clus scale="   91.113">  5  6 -1 -1</clus>
<clus scale="   93.357">  7  8 -1 -1</clus>
<clus scale="  101.621">  1  5  2 -1</clus>
<clus scale="   38.144">  2  5  1 -1</clus>
</clustering>
</event>
<event>
 9    1  0.1636528E-005  0.9568553E+02  0.7546771E-02  0.1292557E+00
          2   -1    0    0  502    0 -0.00000000000E+00  0.00000000000E+00  0.52455449860E+03  0.52455449860E+03  0.00000000000E+00 0. -1.
         21   -1    0    0  501  502  0.00000000000E+00 -0.00000000000E+00 -0.38409775291E+02  0.38409775291E+02  0.00000000000E+00 0.  1.
         23    2    1    2    0    0  0.19408328087E+02  0.15666052153E+02  0.41772495822E+03  0.42759314724E+03  0.87861541378E+02 0.  0.
         23    2    1    2    0    0 -0.65534895288E+01  0.14511964732E+00  0.42891279591E+02  0.10270702404E+03  0.93091898879E+02 0.  0.
        -11    1    4    4    0    0  0.11310938561E+02  0.38367013800E+02  0.45319129651E+02  0.60446576341E+02  0.00000000000E+00 0. -1.
         11    1    4    4    0    0 -0.17864428090E+02 -0.38221894153E+02 -0.24278500594E+01  0.42260447696E+02  0.00000000000E+00 0.  1.
        -13    1    3    3    0    0  0.59272083459E+01  0.51606488642E+02  0.20830203618E+03  0.21468139124E+03  0.00000000000E+00 0. -1.
         13    1    3    3    0    0  0.13481119742E+02 -0.35940436489E+02  0.20942292204E+03  0.21291175599E+03  0.00000000000E+00 0.  1.
          2    1    1    2  501    0 -0.12854838559E+02 -0.15811171800E+02  0.25528485503E+02  0.32664102622E+02  0.00000000000E+00 0. -1.
<scales pt_clust_5="13000.00000" pt_clust_6="13000.00000" pt_clust_7="13000.00000" pt_clust_8="13000.00000" pt_clust_9="20.37744"></scales>
<clustering>
<clus scale="   20.377">  2  9  1 -1</clus>
<clus scale="   87.862">  7  8 -1 -1</clus>
<clus scale="   90.605">  1  7  2 -1</clus>
<clus scale="   93.092">  5  6 -1 -1</clus>
<clus scale="   20.377">  2  5  1 -1</clus>
</clustering>
</event>
<event>
 9    1  0.1636528E-005  0.1913769E+03  0.7546771E-02  0.1157258E+00
         -3   -1    0    0    0  501 -0.00000000000E+00  0.00000000000E+00  0.29628818832E+03  0.29628818832E+03  0.00000000000E+00 0.  1.
         21   -1    0    0  501  502  0.00000000000E+00 -0.00000000000E+00 -0.15893084704E+03  0.15893084704E+03  0.00000000000E+00 0. -1.
         23    2    1    2    0    0  0.56821326631E+02  0.15417316995E+03  0.10776440799E+03  0.21602286633E+03  0.89747878295E+02 0.  0.
         23    2    1    2    0    0 -0.37504654232E+02 -0.17264306124E+03  0.51537404820E+02  0.20461538611E+03  0.89437835696E+02 0.  0.
        -11    1    4    4    0    0  0.24714313623E+02 -0.42177685664E+02  0.32787327381E+02  0.58862240041E+02  0.00000000000E+00 0.  1.
         11    1    4    4    0    0 -0.62218967855E+02 -0.13046537557E+03  0.18750077439E+02  0.14575314607E+03  0.00000000000E+00 0. -1.
        -11    1    3    3    0    0  0.75801235328E+02  0.10089802961E+03  0.95223194932E+02  0.15809394836E+03  0.00000000000E+00 0.  1.
         11    1    3    3    0    0 -0.18979908696E+02  0.53275140338E+02  0.12541213053E+02  0.57928917969E+02  0.00000000000E+00 0. -1.
         -3    1    1    2    0  502 -0.19316672399E+02  0.18469891291E+02 -0.21944471523E+02  0.34580782919E+02  0.00000000000E+00 0.  1.
<scales pt_clust_5="13000.00000" pt_clust_6="13000.00000" pt_clust_7="13000.00000" pt_clust_8="13000.00000" pt_clust_9="26.72584"></scales>
<clustering>
<clus scale="   26.726">  2  9  1 -1</clus>
<clus scale="   89.438">  5  6 -1 -1</clus>
<clus scale="   89.748">  7  8 -1 -1</clus>
<clus scale="  191.232">  2  5  1 -1</clus>
<clus scale="   26.726">  2  5  1 -1</clus>
</clustering>
</event>
<event>
 9    1  0.1636528E-005  0.1334580E+03  0.7546771E-02  0.1223901E+00
          2   -1    0    0  502    0 -0.00000000000E+00  0.00000000000E+00  0.73309045060E+03  0.73309045060E+03  0.00000000000E+00 0. -1.
         21   -1    0    0  501  502  0.00000000000E+00 -0.00000000000E+00 -0.44024273627E+02  0.44024273627E+02  0.00000000000E+00 0.  1.
         23    2    1    2    0    0 -0.49033963294E+02 -0.88730275271E+02  0.45276897136E+03  0.47323042416E+03  0.93112306522E+02 0.  0.
         23    2    1    2    0    0  0.67188073842E+02  0.50483740980E+02  0.88041511999E+02  0.14970220057E+03  0.87158451396E+02 0.  0.
        -13    1    4    4    0    0  0.28546807980E+02  0.55418385269E+02  0.91364598880E+02  0.11060564000E+03  0.00000000000E+00 0. -1.
         13    1    4    4    0    0  0.38641265861E+02 -0.49346442891E+01 -0.33230868809E+01  0.39096560565E+02  0.00000000000E+00 0.  1.
        -13    1    3    3    0    0 -0.10157257934E+02 -0.96303254493E+02  0.29128031717E+03  0.30695555034E+03  0.00000000000E+00 0. -1.
         13    1    3    3    0    0 -0.38876705360E+02  0.75729792223E+01  0.16148865419E+03  0.16627487383E+03  0.00000000000E+00 0.  1.
          2    1    1    2  501    0 -0.18154110547E+02  0.38246534291E+02  0.14825569361E+03  0.15418209949E+03  0.00000000000E+00 0. -1.
<scales pt_clust_5="13000.00000" pt_clust_6="13000.00000" pt_clust_7="13000.00000" pt_clust_8="13000.00000" pt_clust_9="42.33640"></scales>
<clustering>
<clus scale="   42.336">  2  9  1 -1</clus>
<clus scale="   87.158">  5  6 -1 -1</clus>
<clus scale="   93.112">  7  8 -1 -1</clus>
<clus scale="  129.374">  2  5  1 -1</clus>
<clus scale="   42.336">  2  5  1 -1</clus>
</clustering>
</event>
<event>
 9    1  0.1636528E-005  0.1186673E+03  0.7546771E-02  0.1246741E+00
         21   -1    0    0  501  502  0.00000000000E+00  0.00000000000E+00  0.19752734134E+03  0.19752734134E+03  0.00000000000E+00 0. -1.
          1   -1    0    0  502    0 -0.00000000000E+00 -0.00000000000E+00 -0.14886830626E+03  0.14886830626E+03  0.00000000000E+00 0. -1.
         23    2    1    2    0    0 -0.82120409471E+02 -0.32035516454E+02 -0.35998315909E+02  0.13076655025E+03  0.89632449199E+02 0.  0.
         23    2    1    2    0    0  0.35957012544E+02 -0.11534176782E+02  0.10797575046E+03  0.14800421185E+03  0.93917730247E+02 0.  0.
        -13    1    3    3    0    0 -0.48124411530E+02  0.13798465821E+02 -0.51305010283E+02  0.71683754954E+02  0.00000000000E+00 0. -1.
         13    1    3    3    0    0 -0.33995997941E+02 -0.45833982275E+02  0.15306694374E+02  0.59082795295E+02  0.00000000000E+00 0.  1.
        -13    1    4    4    0    0  0.47757584959E+02  0.16054308419E+02  0.18569335443E+02  0.53696815163E+02  0.00000000000E+00 0.  1.
         13    1    4    4    0    0 -0.11800572414E+02 -0.27588485201E+02  0.89406415013E+02  0.94307396690E+02  0.00000000000E+00 0. -1.
          1    1    1    2  501    0  0.46163396927E+02  0.43569693236E+02 -0.23318399463E+02  0.67624885494E+02  0.00000000000E+00 0. -1.
<scales pt_clust_5="13000.00000" pt_clust_6="13000.00000" pt_clust_7="13000.00000" pt_clust_8="13000.00000" pt_clust_9="63.47741"></scales>
<clustering>
<clus scale="   63.477">  1  9  2 -1</clus>
<clus scale="   89.632">  5  6 -1 -1</clus>
<clus scale="   93.918">  7  8 -1 -1</clus>
<clus scale="  115.306">  2  5  1 -1</clus>
<clus scale="   63.477">  1  5  2 -1</clus>
</clustering>
</event>
<event>
 9    1  0.1636528E-005  0.1220572E+03  0.7546771E-02  0.1239793E+00
         -3   -1    0    0    0  501 -0.00000000000E+00  0.00000000000E+00  0.30189671760E+03  0.30189671760E+03  0.00000000000E+00 0.  1.
         21   -1    0    0  501  502  0.00000000000E+00 -0.00000000000E+00 -0.84131320422E+02  0.84131320422E+02  0.00000000000E+00 0.  1.
         23    2    1    2    0    0  0.96981655629E+02 -0.11905885355E+01  0.17963044414E+03  0.22350802077E+03  0.91004834255E+02 0.  0.
         23    2    1    2    0    0 -0.50201872919E+02 -0.21395855026E+02  0.23289251700E+02  0.10849326137E+03  0.90831645705E+02 0.  0.
        -11    1    3    3    0    0 -0.15198886103E+01  0.28434376310E+02  0.54819397627E+02  0.61773701311E+02  0.00000000000E+00 0.  1.
         11    1    3    3    0    0  0.98501544239E+02 -0.29624964846E+02  0.12481104651E+03  0.16173431946E+03  0.00000000000E+00 0. -1.
        -11    1    4    4    0    0 -0.66241949023E+01 -0.22383659990E+02 -0.31040903987E+02  0.38838716675E+02  0.00000000000E+00 0.  1.
         11    1    4    4    0    0 -0.43577678017E+02  0.98780496434E+00  0.54330155686E+02  0.69654544696E+02  0.00000000000E+00 0. -1.
         -3    1    1    2    0  502 -0.46779782710E+02  0.22586443561E+02  0.14845701346E+02  0.54026755886E+02  0.00000000000E+00 0.  1.
<scales pt_clust_5="13000.00000" pt_clust_6="13000.00000" pt_clust_7="13000.00000" pt_clust_8="13000.00000" pt_clust_9="51.94705"></scales>
<clustering>
<clus scale="   51.947">  2  9  1 -1</clus>
<clus scale="   90.832">  7  8 -1 -1</clus>
<clus scale="   91.005">  5  6 -1 -1</clus>
<clus scale="  121.928">  2  7  1 -1</clus>
<clus scale="   51.947">  2  5  1 -1</clus>
</clustering>
</event>
<event>
 9    1  0.1636528E-005  0.1088645E+03  0.7546771E-02  0.1262767E+00
          3   -1    0    0  502    0 -0.00000000000E+00  0.00000000000E+00  0.39188610435E+02  0.39188610435E+02  0.00000000000E+00 0. -1.
         21   -1    0    0  501  502  0.00000000000E+00 -0.00000000000E+00 -0.61454836354E+03  0.61454836354E+03  0.00000000000E+00 0. -1.
         23    2    1    2    0    0  0.41095495546E+02 -0.21426201991E+02 -0.13976564183E+03  0.17269232421E+03  0.90223513102E+02 0.  0.
         23    2    1    2    0    0 -0.41220938582E+02  0.91014171050E+02 -0.29151892489E+03  0.32104414819E+03  0.90018422617E+02 0.  0.
        -11    1    3    3    0    0  0.62827937714E+02 -0.28497247846E+02 -0.66027658821E+02  0.95493950707E+02  0.00000000000E+00 0.  1.
         11    1    3    3    0    0 -0.21732442168E+02  0.70710458550E+01 -0.73737983013E+02  0.77198373499E+02  0.00000000000E+00 0. -1.
        -13    1    4    4    0    0 -0.24212605257E+02 -0.13611183189E+02 -0.48031295993E+02  0.55484411828E+02  0.00000000000E+00 0.  1.
         13    1    4    4    0    0 -0.17008333325E+02  0.10462535424E+03 -0.24348762890E+03  0.26555973637E+03  0.00000000000E+00 0. -1.
          3    1    1    2  501    0  0.12544303585E+00 -0.69587969059E+02 -0.14407518637E+03  0.16000050157E+03  0.00000000000E+00 0. -1.
<scales pt_clust_5="13000.00000" pt_clust_6="13000.00000" pt_clust_7="13000.00000" pt_clust_8="13000.00000" pt_clust_9="69.58808"></scales>
<clustering>
<clus scale="   69.588">  2  9  1 -1</clus>
<clus scale="   90.018">  7  8 -1 -1</clus>
<clus scale="   90.224">  5  6 -1 -1</clus>
<clus scale="  108.695">  2  7  1 -1</clus>
<clus scale="   69.588">  2  5  1 -1</clus>
</clustering>
</event>
<event>
 9    1  0.1636528E-005  0.9313820E+02  0.7546771E-02  0.1295522E+00
         21   -1    0    0  501  502  0.00000000000E+00  0.00000000000E+00  0.14120637378E+03  0.14120637378E+03  0.00000000000E+00 0. -1.
         -2   -1    0    0    0  501 -0.00000000000E+00 -0.00000000000E+00 -0.30005109369E+03  0.30005109369E+03  0.00000000000E+00 0.  1.
         23    2    1    2    0    0  0.12015942544E+02 -0.65291880311E+01 -0.23914421044E+03  0.25654337967E+03  0.91856078158E+02 0.  0.
         23    2    1    2    0    0 -0.34294258530E+02 -0.21769535090E+02  0.40229432223E+01  0.10036213012E+03  0.91686227233E+02 0.  0.
        -11    1    4    4    0    0 -0.65622293039E+02 -0.19861001038E+02  0.65517415603E+01  0.68874305975E+02  0.00000000000E+00 0. -1.
         11    1    4    4    0    0  0.31328034510E+02 -0.19085340519E+01 -0.25287983380E+01  0.31487824147E+02  0.00000000000E+00 0.  1.
        -13    1    3    3    0    0 -0.21496142347E+02 -0.36648271146E+02 -0.73664953588E+02  0.85039433799E+02  0.00000000000E+00 0. -1.
         13    1    3    3    0    0  0.33512084890E+02  0.30119083115E+02 -0.16547925685E+03  0.17150394587E+03  0.00000000000E+00 0.  1.
         -2    1    1    2    0  502  0.22278315986E+02  0.28298723121E+02  0.76276547308E+02  0.84351957670E+02  0.00000000000E+00 0.  1.
<scales pt_clust_5="13000.00000" pt_clust_6="13000.00000" pt_clust_7="13000.00000" pt_clust_8="13000.00000" pt_clust_9="36.01585"></scales>
<clustering>
<clus scale="   36.016">  1  9  2 -1</clus>
<clus scale="   91.686">  5  6 -1 -1</clus>
<clus scale="   91.856">  7  8 -1 -1</clus>
<clus scale="   92.971">  1  5  2 -1</clus>
<clus scale="   36.016">  1  5  2 -1</clus>
</clustering>
</event>
<event>
 9    1  0.1636528E-005  0.1743637E+03  0.7546771E-02  0.1189787E+00
         -4   -1    0    0    0  501 -0.00000000000E+00  0.00000000000E+00  0.11700245154E+04  0.11700245154E+04  0.00000000000E+00 0.  1.
         21   -1    0    0  501  502  0.00000000000E+00 -0.00000000000E+00 -0.49897319164E+02  0.49897319164E+02  0.00000000000E+00 0.  1.
         23    2    1    2    0    0  0.13247428361E+02  0.77756484484E+02  0.37922520550E+03  0.39796417106E+03  0.91335424278E+02 0.  0.
         23    2    1    2    0    0  0.13321528783E+03 -0.44952470120E+02  0.56575277738E+03  0.59129627199E+03  0.98934517049E+02 0.  0.
        -11    1    4    4    0    0  0.11400705895E+03  0.69565344926E+01  0.42417141568E+03  0.43928053991E+03  0.00000000000E+00 0.  1.
         11    1    4    4    0    0  0.19208228881E+02 -0.51909004612E+02  0.14158136170E+03  0.15201573207E+03  0.00000000000E+00 0. -1.
        -11    1    3    3    0    0 -0.34549284459E+02  0.69714181602E+01  0.11438449188E+03  0.11969154403E+03  0.00000000000E+00 0. -1.
         11    1    3    3    0    0  0.47796712820E+02  0.70785066324E+02  0.26484071361E+03  0.27827262703E+03  0.00000000000E+00 0.  1.
         -4    1    1    2    0  502 -0.14646271620E+03 -0.32804014364E+02  0.17514921332E+03  0.23066139148E+03  0.00000000000E+00 0.  1.
<scales pt_clust_5="13000.00000" pt_clust_6="13000.00000" pt_clust_7="13000.00000" pt_clust_8="13000.00000" pt_clust_9="143.57806"></scales>
<clustering>
<clus scale="   91.335">  7  8 -1 -1</clus>
<clus scale="   98.935">  5  6 -1 -1</clus>
<clus scale="  120.680">  1  7  2 -1</clus>
<clus scale="  143.578">  2  9  1 -1</clus>
<clus scale="  143.578">  2  5  1 -1</clus>
</clustering>
</event>
<event>
 9    1  0.1636528E-005  0.9651358E+02  0.7546771E-02  0.1288645E+00
         21   -1    0    0  501  502  0.00000000000E+00  0.00000000000E+00  0.18377973843E+03  0.18377973843E+03  0.00000000000E+00 0. -1.
         -1   -1    0    0    0  501 -0.00000000000E+00 -0.00000000000E+00 -0.72711860762E+02  0.72711860762E+02  0.00000000000E+00 0.  1.
         23    2    1    2    0    0  0.76975556737E+01 -0.48528167505E+02  0.49135520403E+02  0.11215777192E+03  0.88038804132E+02 0.  0.
         23    2    1    2    0    0 -0.14636703487E+02  0.17935842371E+02  0.64502707445E+02  0.11285925293E+03  0.89669862126E+02 0.  0.
        -11    1    3    3    0    0  0.21723552029E+02 -0.15586359168E+02 -0.20610664057E+02  0.33758654857E+02  0.00000000000E+00 0.  1.
         11    1    3    3    0    0 -0.14025996355E+02 -0.32941808336E+02  0.69746184459E+02  0.78399117067E+02  0.00000000000E+00 0. -1.
        -11    1    4    4    0    0  0.27390682326E+02  0.35662180772E+02  0.43781793183E+02  0.62760545170E+02  0.00000000000E+00 0.  1.
         11    1    4    4    0    0 -0.42027385813E+02 -0.17726338402E+02  0.20720914262E+02  0.50098707760E+02  0.00000000000E+00 0. -1.
         -1    1    1    2    0  502  0.69391478135E+01  0.30592325134E+02 -0.25703501838E+01  0.31474574335E+02  0.00000000000E+00 0.  1.
<scales pt_clust_5="13000.00000" pt_clust_6="13000.00000" pt_clust_7="13000.00000" pt_clust_8="13000.00000" pt_clust_9="31.36946"></scales>
<clustering>
<clus scale="   31.369">  1  9  2 -1</clus>
<clus scale="   88.039">  5  6 -1 -1</clus>
<clus scale="   89.670">  7  8 -1 -1</clus>
<clus scale="   95.000">  2  5  1 -1</clus>
<clus scale="   31.369">  1  5  2 -1</clus>
</clustering>
</event>
<event>
 9    1  0.1636528E-005  0.1039541E+03  0.7546771E-02  0.1273028E+00
         21   -1    0    0  501  502  0.00000000000E+00  0.00000000000E+00  0.10845786277E+03  0.10845786277E+03  0.00000000000E+00 0.  1.
          1   -1    0    0  502    0 -0.00000000000E+00 -0.00000000000E+00 -0.36675202838E+03  0.36675202838E+03  0.00000000000E+00 0. -1.
         23    2    1    2    0    0  0.39214504565E+02 -0.28920476781E+02 -0.26473274911E+03  0.28385520325E+03  0.90089825260E+02 0.  0.
         23    2    1    2    0    0 -0.49806050625E+01  0.64681745955E+02 -0.43851201463E+02  0.12078634713E+03  0.91966728203E+02 0.  0.
        -13    1    4    4    0    0  0.24261027569E+02  0.70393616558E+01 -0.49837760119E+02  0.55874434269E+02  0.00000000000E+00 0. -1.
         13    1    4    4    0    0 -0.29241632631E+02  0.57642384299E+02  0.59865586556E+01  0.64911912860E+02  0.00000000000E+00 0.  1.
        -13    1    3    3    0    0  0.42316406224E+02  0.20343389786E+02 -0.17770672365E+03  0.18380481870E+03  0.00000000000E+00 0.  1.
         13    1    3    3    0    0 -0.31019016590E+01 -0.49263866566E+02 -0.87026025453E+02  0.10005038455E+03  0.00000000000E+00 0. -1.
          1    1    1    2  501    0 -0.34233899503E+02 -0.35761269174E+02  0.50289784956E+02  0.70568340770E+02  0.00000000000E+00 0. -1.
<scales pt_clust_5="13000.00000" pt_clust_6="13000.00000" pt_clust_7="13000.00000" pt_clust_8="13000.00000" pt_clust_9="49.50584"></scales>
<clustering>
<clus scale="   49.506">  1  9  2 -1</clus>
<clus scale="   90.090">  7  8 -1 -1</clus>
<clus scale="   91.967">  5  6 -1 -1</clus>
<clus scale="  102.297">  2  7  1 -1</clus>
<clus scale="   49.506">  1  5  2 -1</clus>
</clustering>
</event>
<event>
 9    1  0.1636528E-005  0.2764754E+03  0.7546771E-02  0.1098548E+00
         21   -1    0    0  501  502  0.00000000000E+00  0.00000000000E+00  0.22220275867E+03  0.22220275867E+03  0.00000000000E+00 0. -1.
          2   -1    0    0  502    0 -0.00000000000E+00 -0.00000000000E+00 -0.63717715171E+03  0.63717715171E+03  0.00000000000E+00 0. -1.
         23    2    1    2    0    0  0.27373881205E+03  0.12055166397E+03 -0.28494303304E+03  0.41884669839E+03  0.69096915742E+02 0.  0.
         23    2    1    2    0    0 -0.23454243323E+03  0.34734958503E+02 -0.11733793611E+03  0.27987390090E+03  0.91348447331E+02 0.  0.
        -13    1    3    3    0    0  0.79154219846E+02  0.50392649437E+02 -0.51839047070E+02  0.10720119607E+03  0.00000000000E+00 0.  1.
         13    1    3    3    0    0  0.19458459220E+03  0.70159014533E+02 -0.23310398597E+03  0.31164550232E+03  0.00000000000E+00 0. -1.
        -13    1    4    4    0    0 -0.42915479223E+02 -0.22634859470E+02 -0.47777335916E+02  0.68093678468E+02  0.00000000000E+00 0.  1.
         13    1    4    4    0    0 -0.19162695400E+03  0.57369817973E+02 -0.69560600197E+02  0.21178022244E+03  0.00000000000E+00 0. -1.
          2    1    1    2  501    0 -0.39196378819E+02 -0.15528662247E+03 -0.12693423890E+02  0.16065931110E+03  0.00000000000E+00 0. -1.
<scales pt_clust_5="13000.00000" pt_clust_6="13000.00000" pt_clust_7="13000.00000" pt_clust_8="13000.00000" pt_clust_9="160.15708"></scales>
<clustering>
<clus scale="   69.097">  5  6 -1 -1</clus>
<clus scale="   91.348">  7  8 -1 -1</clus>
<clus scale="  160.157">  1  9  2 -1</clus>
<clus scale="  269.942">  2  5  1 -1</clus>
<clus scale="  160.157">  1  5  2 -1</clus>
</clustering>
</event>
<event>
 9    1  0.1636528E-005  0.1042682E+03  0.7546771E-02  0.1275891E+00
          1   -1    0    0  502    0 -0.00000000000E+00  0.00000000000E+00  0.21223929278E+03  0.21223929278E+03  0.00000000000E+00 0. -1.
         21   -1    0    0  501  502  0.00000000000E+00 -0.00000000000E+00 -0.20159160936E+03  0.20159160936E+03  0.00000000000E+00 0. -1.
         23    2    1    2    0    0 -0.13039376307E+02  0.32735725305E+02  0.17636874162E+03  0.20515177458E+03  0.98689738811E+02 0.  0.
         23    2    1    2    0    0  0.30221548329E+02 -0.61074595437E+01 -0.12821726128E+03  0.15957896100E+03  0.89861758588E+02 0.  0.
        -11    1    3    3    0    0 -0.73823228005E+01 -0.30422628406E+02  0.21989120224E+02  0.38256455890E+02  0.00000000000E+00 0.  1.
         11    1    3    3    0    0 -0.56570535068E+01  0.63158353710E+02  0.15437962140E+03  0.16689531869E+03  0.00000000000E+00 0. -1.
        -13    1    4    4    0    0  0.78565771911E+01 -0.24080481644E+02 -0.12841211341E+03  0.13088646329E+03  0.00000000000E+00 0.  1.
         13    1    4    4    0    0  0.22364971138E+02  0.17973022100E+02  0.19485212813E+00  0.28692497709E+02  0.00000000000E+00 0. -1.
          1    1    1    2  501    0 -0.17182172022E+02 -0.26628265761E+02 -0.37503796924E+02  0.49100166563E+02  0.00000000000E+00 0. -1.
<scales pt_clust_5="13000.00000" pt_clust_6="13000.00000" pt_clust_7="13000.00000" pt_clust_8="13000.00000" pt_clust_9="31.69056"></scales>
<clustering>
<clus scale="   31.691">  2  9  1 -1</clus>
<clus scale="   89.862">  7  8 -1 -1</clus>
<clus scale="   95.955">  2  7  1 -1</clus>
<clus scale="   98.690">  5  6 -1 -1</clus>
<clus scale="   31.691">  2  5  1 -1</clus>
</clustering>
</event>
<event>
 9    1  0.1636528E-005  0.9443599E+02  0.7546771E-02  0.1292776E+00
         21   -1    0    0  501  502  0.00000000000E+00  0.00000000000E+00  0.16459589509E+03  0.16459589509E+03  0.00000000000E+00 0.  1.
         -1   -1    0    0    0  501 -0.00000000000E+00 -0.00000000000E+00 -0.14298140392E+03  0.14298140392E+03  0.00000000000E+00 0.  1.
         23    2    1    2    0    0  0.23058299191E+01 -0.15689328275E+02 -0.60290287138E+02  0.11144839342E+03  0.92381566336E+02 0.  0.
         23    2    1    2    0    0 -0.41200828143E+02  0.38959428647E+01 -0.43377772442E+01  0.10078907543E+03  0.91798337702E+02 0.  0.
        -13    1    3    3    0    0  0.20511181756E+02  0.18578196345E+02  0.11400085436E+02  0.29930250657E+02  0.00000000000E+00 0. -1.
         13    1    3    3    0    0 -0.18205351837E+02 -0.34267524620E+02 -0.71690372575E+02  0.81518142760E+02  0.00000000000E+00 0.  1.
        -13    1    4    4    0    0 -0.30605866235E+02 -0.32137988195E+02  0.26935784402E+02  0.51914408545E+02  0.00000000000E+00 0.  1.
         13    1    4    4    0    0 -0.10594961908E+02  0.36033931060E+02 -0.31273561646E+02  0.48874666889E+02  0.00000000000E+00 0. -1.
         -1    1    1    2    0  502  0.38894998224E+02  0.11793385411E+02  0.86242555558E+02  0.95339830163E+02  0.00000000000E+00 0.  1.
<scales pt_clust_5="13000.00000" pt_clust_6="13000.00000" pt_clust_7="13000.00000" pt_clust_8="13000.00000" pt_clust_9="40.64363"></scales>
<clustering>
<clus scale="   40.644">  1  9  2 -1</clus>
<clus scale="   91.798">  7  8 -1 -1</clus>
<clus scale="   92.382">  5  6 -1 -1</clus>
<clus scale="   93.866">  1  7  2 -1</clus>
<clus scale="   40.644">  1  5  2 -1</clus>
</clustering>
</event>
<event>
 9    1  0.1636528E-005  0.1047013E+03  0.7546771E-02  0.1271137E+00
          1   -1    0    0  502    0 -0.00000000000E+00  0.00000000000E+00  0.17881155160E+03  0.17881155160E+03  0.00000000000E+00 0. -1.
         21   -1    0    0  501  502  0.00000000000E+00 -0.00000000000E+00 -0.11743292462E+03  0.11743292462E+03  0.00000000000E+00 0. -1.
         23    2    1    2    0    0  0.48412632419E+02 -0.23641987761E+02  0.92240500406E+02  0.14052684008E+03  0.91305839378E+02 0.  0.
         23    2    1    2    0    0 -0.17970328290E+02  0.52675688860E+02 -0.38698248076E+02  0.11292630000E+03  0.90316852981E+02 0.  0.
        -11    1    4    4    0    0  0.13371983348E+02 -0.21637306521E+02 -0.94478406041E+01  0.27133828779E+02  0.00000000000E+00 0.  1.
         11    1    4    4    0    0 -0.31342311638E+02  0.74312995381E+02 -0.29250407471E+02  0.85792471223E+02  0.00000000000E+00 0. -1.
        -13    1    3    3    0    0  0.32210394103E+02  0.22716536962E+02  0.40984028446E+01  0.39627609639E+02  0.00000000000E+00 0.  1.
         13    1    3    3    0    0  0.16202238316E+02 -0.46358524723E+02  0.88142097561E+02  0.10089923044E+03  0.00000000000E+00 0. -1.
          1    1    1    2  501    0 -0.30442304129E+02 -0.29033701099E+02  0.78363746500E+01  0.42791336131E+02  0.00000000000E+00 0. -1.
<scales pt_clust_5="13000.00000" pt_clust_6="13000.00000" pt_clust_7="13000.00000" pt_clust_8="13000.00000" pt_clust_9="42.06768"></scales>
<clustering>
<clus scale="   42.068">  2  9  1 -1</clus>
<clus scale="   90.317">  5  6 -1 -1</clus>
<clus scale="   91.306">  7  8 -1 -1</clus>
<clus scale="  103.840">  2  5  1 -1</clus>
<clus scale="   42.068">  2  5  1 -1</clus>
</clustering>
</event>
<event>
 9    1  0.1636528E-005  0.9302444E+02  0.7546771E-02  0.1295847E+00
         21   -1    0    0  501  502  0.00000000000E+00  0.00000000000E+00  0.48720965792E+02  0.48720965792E+02  0.00000000000E+00 0.  1.
         -3   -1    0    0    0  501 -0.00000000000E+00 -0.00000000000E+00 -0.38032446202E+03  0.38032446202E+03  0.00000000000E+00 0.  1.
         23    2    1    2    0    0  0.43635423539E+01 -0.17906672285E+02 -0.27350654275E+03  0.28885917197E+03  0.91071965452E+02 0.  0.
         23    2    1    2    0    0 -0.33295771306E+02  0.87398360698E+01 -0.41515190288E+02  0.10560216081E+03  0.90792688155E+02 0.  0.
        -13    1    4    4    0    0  0.19457072381E+02  0.27631473300E+02  0.31555674129E+01  0.33941620292E+02  0.00000000000E+00 0. -1.
         13    1    4    4    0    0 -0.52752843686E+02 -0.18891637230E+02 -0.44670757701E+02  0.71660540521E+02  0.00000000000E+00 0.  1.
        -13    1    3    3    0    0  0.36657041901E+01  0.31763138579E+02 -0.46181312461E+02  0.56169813782E+02  0.00000000000E+00 0. -1.
         13    1    3    3    0    0  0.69783816384E+00 -0.49669810864E+02 -0.22732523029E+03  0.23268935819E+03  0.00000000000E+00 0.  1.
         -3    1    1    2    0  502  0.28932228952E+02  0.91668362151E+01 -0.16581763189E+02  0.34584095026E+02  0.00000000000E+00 0.  1.
<scales pt_clust_5="13000.00000" pt_clust_6="13000.00000" pt_clust_7="13000.00000" pt_clust_8="13000.00000" pt_clust_9="30.34971"></scales>
<clustering>
<clus scale="   30.350">  1  9  2 -1</clus>
<clus scale="   90.793">  5  6 -1 -1</clus>
<clus scale="   91.072">  7  8 -1 -1</clus>
<clus scale="   92.751">  1  5  2 -1</clus>
<clus scale="   30.350">  1  5  2 -1</clus>
</clustering>
</event>
<event>
 9    1  0.1636528E-005  0.1451281E+03  0.7546771E-02  0.1209939E+00
          2   -1    0    0  502    0 -0.00000000000E+00  0.00000000000E+00  0.93841443450E+03  0.93841443450E+03  0.00000000000E+00 0. -1.
         21   -1    0    0  501  502  0.00000000000E+00 -0.00000000000E+00 -0.58070612823E+02  0.58070612823E+02  0.00000000000E+00 0. -1.
         23    2    1    2    0    0  0.87502462968E+02 -0.10028348214E+03  0.61159788610E+03  0.63228148598E+03  0.89523435011E+02 0.  0.
         23    2    1    2    0    0 -0.78614523399E+02  0.52803436536E+02  0.28844177837E+03  0.31203770639E+03  0.72113968799E+02 0.  0.
        -11    1    4    4    0    0 -0.66928899630E+02  0.16958515585E+02  0.24487625295E+03  0.25442375698E+03  0.00000000000E+00 0.  1.
         11    1    4    4    0    0 -0.11685623769E+02  0.35844920952E+02  0.43565525428E+02  0.57613949411E+02  0.00000000000E+00 0. -1.
        -13    1    3    3    0    0  0.42614698809E+01 -0.20388150845E+02  0.17861892935E+02  0.27438732472E+02  0.00000000000E+00 0.  1.
         13    1    3    3    0    0  0.83240993087E+02 -0.79895331295E+02  0.59373599316E+03  0.60484275351E+03  0.00000000000E+00 0. -1.
          2    1    1    2  501    0 -0.88879395688E+01  0.47480045604E+02 -0.19695842793E+02  0.52165854959E+02  0.00000000000E+00 0. -1.
<scales pt_clust_5="13000.00000" pt_clust_6="13000.00000" pt_clust_7="13000.00000" pt_clust_8="13000.00000" pt_clust_9="48.30476"></scales>
<clustering>
<clus scale="   48.305">  2  9  1 -1</clus>
<clus scale="   72.114">  5  6 -1 -1</clus>
<clus scale="   89.523">  7  8 -1 -1</clus>
<clus scale="  135.086">  2  5  1 -1</clus>
<clus scale="   48.305">  2  5  1 -1</clus>
</clustering>
</event>
<event>
 9    1  0.1636528E-005  0.9388409E+02  0.7546771E-02  0.1293797E+00
         21   -1    0    0  501  502  0.00000000000E+00  0.00000000000E+00  0.46801621542E+02  0.46801621542E+02  0.00000000000E+00 0. -1.
          1   -1    0    0  502    0 -0.00000000000E+00 -0.00000000000E+00 -0.50513183819E+03  0.50513183819E+03  0.00000000000E+00 0. -1.
         23    2    1    2    0    0  0.53719917057E+01 -0.25422358831E+02 -0.32151076938E+03  0.33532867202E+03  0.91656908248E+02 0.  0.
         23    2    1    2    0    0  0.29300436297E+02  0.70570895202E+01 -0.14728875373E+03  0.17599608472E+03  0.91500419568E+02 0.  0.
        -13    1    3    3    0    0 -0.24631239308E+02 -0.45579244201E+02 -0.12160598194E+03  0.13218237513E+03  0.00000000000E+00 0.  1.
         13    1    3    3    0    0  0.30003231013E+02  0.20156885370E+02 -0.19990478745E+03  0.20314629690E+03  0.00000000000E+00 0. -1.
        -13    1    4    4    0    0 -0.30128270775E+02 -0.62542389682E+01 -0.77418828491E+02  0.83309682570E+02  0.00000000000E+00 0.  1.
         13    1    4    4    0    0  0.59428707071E+02  0.13311328488E+02 -0.69869925237E+02  0.92686402147E+02  0.00000000000E+00 0. -1.
          1    1    1    2  501    0 -0.34672428002E+02  0.18365269311E+02  0.10469306466E+02  0.40608702988E+02  0.00000000000E+00 0. -1.
<scales pt_clust_5="13000.00000" pt_clust_6="13000.00000" pt_clust_7="13000.00000" pt_clust_8="13000.00000" pt_clust_9="39.23596"></scales>
<clustering>
<clus scale="   39.236">  1  9  2 -1</clus>
<clus scale="   91.500">  7  8 -1 -1</clus>
<clus scale="   91.657">  5  6 -1 -1</clus>
<clus scale="   93.731">  1  7  2 -1</clus>
<clus scale="   39.236">  1  5  2 -1</clus>
</clustering>
</event>
<event>
 9    1  0.1636528E-005  0.1139715E+03  0.7546771E-02  0.1253544E+00
         21   -1    0    0  501  502  0.00000000000E+00  0.00000000000E+00  0.54273634538E+02  0.54273634538E+02  0.00000000000E+00 0.  1.
          1   -1    0    0  502    0 -0.00000000000E+00 -0.00000000000E+00 -0.69103591934E+03  0.69103591934E+03  0.00000000000E+00 0. -1.
         23    2    1    2    0    0  0.70970059480E+02 -0.10992729560E+02 -0.40046079928E+03  0.41710932192E+03  0.91944250632E+02 0.  0.
         23    2    1    2    0    0 -0.51379502962E+02  0.42812440246E+02 -0.26022190331E+03  0.28383278579E+03  0.91503294819E+02 0.  0.
        -11    1    3    3    0    0  0.55247013556E+02 -0.38834917052E+02 -0.35597811887E+03  0.36232693027E+03  0.00000000000E+00 0. -1.
         11    1    3    3    0    0  0.15723045924E+02  0.27842187492E+02 -0.44482680414E+02  0.54782391644E+02  0.00000000000E+00 0.  1.
        -11    1    4    4    0    0 -0.22984071606E+02 -0.23198127453E+02 -0.14012000445E+03  0.14387507189E+03  0.00000000000E+00 0. -1.
         11    1    4    4    0    0 -0.28395431357E+02  0.66010567699E+02 -0.12010189886E+03  0.13995771390E+03  0.00000000000E+00 0.  1.
          1    1    1    2  501    0 -0.19590556517E+02 -0.31819710686E+02  0.23920417786E+02  0.44367446173E+02  0.00000000000E+00 0. -1.
<scales pt_clust_5="13000.00000" pt_clust_6="13000.00000" pt_clust_7="13000.00000" pt_clust_8="13000.00000" pt_clust_9="37.36688"></scales>
<clustering>
<clus scale="   37.367">  1  9  2 -1</clus>
<clus scale="   91.503">  7  8 -1 -1</clus>
<clus scale="   91.944">  5  6 -1 -1</clus>
<clus scale="  113.616">  1  7  2 -1</clus>
<clus scale="   37.367">  1  5  2 -1</clus>
</clustering>
</event>
<event>
 9    1  0.1636528E-005  0.1204337E+03  0.7546771E-02  0.1242785E+00
         -2   -1    0    0    0  501 -0.00000000000E+00  0.00000000000E+00  0.48658436381E+03  0.48658436381E+03  0.00000000000E+00 0.  1.
         21   -1    0    0  501  502  0.00000000000E+00 -0.00000000000E+00 -0.63004252113E+02  0.63004252113E+02  0.00000000000E+00 0. -1.
         23    2    1    2    0    0 -0.45526856038E+02  0.58815695896E+02  0.35094453418E+03  0.36984968277E+03  0.89970778993E+02 0.  0.
         23    2    1    2    0    0  0.50626116656E+02 -0.80672585011E+02  0.82111573538E+02  0.15537665573E+03  0.91260752656E+02 0.  0.
        -13    1    4    4    0    0  0.17829537600E+02 -0.91046927462E+02  0.40079576941E+02  0.10106338555E+03  0.00000000000E+00 0. -1.
         13    1    4    4    0    0  0.32796579055E+02  0.10374342451E+02  0.42031996598E+02  0.54313270174E+02  0.00000000000E+00 0.  1.
        -13    1    3    3    0    0  0.24146321827E+02  0.35432162235E+02  0.14366865303E+03  0.14993053339E+03  0.00000000000E+00 0.  1.
         13    1    3    3    0    0 -0.69673177865E+02  0.23383533661E+02  0.20727588115E+03  0.21991914939E+03  0.00000000000E+00 0. -1.
         -2    1    1    2    0  502 -0.50992606182E+01  0.21856889116E+02 -0.94759960216E+01  0.24362277424E+02  0.00000000000E+00 0.  1.
<scales pt_clust_5="13000.00000" pt_clust_6="13000.00000" pt_clust_7="13000.00000" pt_clust_8="13000.00000" pt_clust_9="22.44384"></scales>
<clustering>
<clus scale="   22.444">  2  9  1 -1</clus>
<clus scale="   89.971">  7  8 -1 -1</clus>
<clus scale="   91.261">  5  6 -1 -1</clus>
<clus scale="  119.459">  1  7  2 -1</clus>
<clus scale="   22.444">  2  5  1 -1</clus>
</clustering>
</event>
<event>
 9    1  0.1636528E-005  0.9805122E+02  0.7546771E-02  0.1285544E+00
          1   -1    0    0  502    0 -0.00000000000E+00  0.00000000000E+00  0.29814556023E+03  0.29814556023E+03  0.00000000000E+00 0. -1.
         21   -1    0    0  501  502  0.00000000000E+00 -0.00000000000E+00 -0.64441646753E+02  0.64441646753E+02  0.00000000000E+00 0.  1.
         23    2    1    2    0    0 -0.17849184547E+02  0.53318755878E+01  0.11828777066E+03  0.15055507639E+03  0.91256846612E+02 0.  0.
         23    2    1    2    0    0  0.18961319616E+01 -0.61087485427E+02  0.10477618400E+03  0.15307115503E+03  0.93367304648E+02 0.  0.
        -11    1    4    4    0    0 -0.34368171568E+02 -0.43351021100E+02  0.97427554291E+02  0.11203843351E+03  0.00000000000E+00 0.  1.
         11    1    4    4    0    0  0.36264303529E+02 -0.17736464326E+02  0.73486297085E+01  0.41032721526E+02  0.00000000000E+00 0. -1.
        -13    1    3    3    0    0  0.65245296135E+01 -0.36096177471E+02  0.83558037237E+02  0.91254857962E+02  0.00000000000E+00 0. -1.
         13    1    3    3    0    0 -0.24373714161E+02  0.41428053059E+02  0.34729733420E+02  0.59300218429E+02  0.00000000000E+00 0.  1.
          1    1    1    2  501    0  0.15953052585E+02  0.55755609839E+02  0.10639958819E+02  0.58960975560E+02  0.00000000000E+00 0. -1.
<scales pt_clust_5="13000.00000" pt_clust_6="13000.00000" pt_clust_7="13000.00000" pt_clust_8="13000.00000" pt_clust_9="57.99300"></scales>
<clustering>
<clus scale="   57.993">  2  9  1 -1</clus>
<clus scale="   91.257">  7  8 -1 -1</clus>
<clus scale="   93.367">  5  6 -1 -1</clus>
<clus scale="   96.044">  1  7  2 -1</clus>
<clus scale="   57.993">  2  5  1 -1</clus>
</clustering>
</event>
<event>
 9    1  0.1636528E-005  0.1062514E+03  0.7546771E-02  0.1268345E+00
          1   -1    0    0  502    0 -0.00000000000E+00  0.00000000000E+00  0.46007294550E+02  0.46007294550E+02  0.00000000000E+00 0. -1.
         21   -1    0    0  501  502  0.00000000000E+00 -0.00000000000E+00 -0.33533385732E+03  0.33533385732E+03  0.00000000000E+00 0. -1.
         23    2    1    2    0    0  0.38183707563E+02 -0.35266904446E+02 -0.68424028930E+02  0.12544121182E+03  0.91388729153E+02 0.  0.
         23    2    1    2    0    0 -0.55690123498E+02  0.24423979847E+02 -0.18104645825E+03  0.21103848249E+03  0.89785858574E+02 0.  0.
        -11    1    4    4    0    0 -0.42282280981E+02  0.47006148631E+02 -0.59955410083E+02  0.87132201237E+02  0.00000000000E+00 0. -1.
         11    1    4    4    0    0 -0.13407842517E+02 -0.22582168784E+02 -0.12109104817E+03  0.12390628125E+03  0.00000000000E+00 0.  1.
        -13    1    3    3    0    0  0.42383086126E+02  0.17444104689E+02 -0.53601920666E+02  0.70525092535E+02  0.00000000000E+00 0.  1.
         13    1    3    3    0    0 -0.41993785634E+01 -0.52711009135E+02 -0.14822108264E+02  0.54916119289E+02  0.00000000000E+00 0. -1.
          1    1    1    2  501    0  0.17506415936E+02  0.10842924599E+02 -0.39856075591E+02  0.44861457559E+02  0.00000000000E+00 0. -1.
<scales pt_clust_5="13000.00000" pt_clust_6="13000.00000" pt_clust_7="13000.00000" pt_clust_8="13000.00000" pt_clust_9="20.59232"></scales>
<clustering>
<clus scale="   20.592">  2  9  1 -1</clus>
<clus scale="   89.786">  5  6 -1 -1</clus>
<clus scale="   91.389">  7  8 -1 -1</clus>
<clus scale="  104.876">  2  5  1 -1</clus>
<clus scale="   20.592">  2  5  1 -1</clus>
</clustering>
</event>
<event>
 9    1  0.1636528E-005  0.9729014E+02  0.7546771E-02  0.1287432E+00
         -2   -1    0    0    0  501 -0.00000000000E+00  0.00000000000E+00  0.23449508005E+03  0.23449508005E+03  0.00000000000E+00 0.  1.
         21   -1    0    0  501  502  0.00000000000E+00 -0.00000000000E+00 -0.12692110192E+03  0.12692110192E+03  0.00000000000E+00 0.  1.
         23    2    1    2    0    0 -0.32307882839E+02  0.33226020936E+02  0.11117877839E+03  0.15234497963E+03  0.93276493791E+02 0.  0.
         23    2    1    2    0    0 -0.65476380601E+01 -0.14551089628E+02  0.75401509743E+02  0.11906841582E+03  0.90759540547E+02 0.  0.
        -11    1    4    4    0    0  0.33042307164E+02 -0.26986221562E+02  0.13886158640E+02  0.44865082400E+02  0.00000000000E+00 0. -1.
         11    1    4    4    0    0 -0.39589945224E+02  0.12435131934E+02  0.61515351103E+02  0.74203333419E+02  0.00000000000E+00 0.  1.
        -13    1    3    3    0    0  0.87542383113E+01 -0.26812106107E+02  0.49526288948E+02  0.56994552540E+02  0.00000000000E+00 0. -1.
         13    1    3    3    0    0 -0.41062121150E+02  0.60038127042E+02  0.61652489437E+02  0.95350427088E+02  0.00000000000E+00 0.  1.
         -2    1    1    2    0  502  0.38855520899E+02 -0.18674931308E+02 -0.79006309999E+02  0.90002786531E+02  0.00000000000E+00 0.  1.
<scales pt_clust_5="13000.00000" pt_clust_6="13000.00000" pt_clust_7="13000.00000" pt_clust_8="13000.00000" pt_clust_9="43.11038"></scales>
<clustering>
<clus scale="   43.110">  2  9  1 -1</clus>
<clus scale="   90.760">  5  6 -1 -1</clus>
<clus scale="   93.276">  7  8 -1 -1</clus>
<clus scale="   94.880">  2  5  1 -1</clus>
<clus scale="   43.110">  2  5  1 -1</clus>
</clustering>
</event>
<event>
 9    1  0.1636528E-005  0.1103102E+03  0.7546771E-02  0.1260641E+00
          2   -1    0    0  502    0 -0.00000000000E+00  0.00000000000E+00  0.43199777060E+03  0.43199777060E+03  0.00000000000E+00 0. -1.
         21   -1    0    0  501  502  0.00000000000E+00 -0.00000000000E+00 -0.67674695891E+02  0.67674695891E+02  0.00000000000E+00 0.  1.
         23    2    1    2    0    0  0.43546647632E+02 -0.13670598668E+02  0.23070535630E+03  0.25254167473E+03  0.92027931961E+02 0.  0.
         23    2    1    2    0    0 -0.92404158070E+02  0.49485739004E+02  0.12395112322E+03  0.18578567243E+03  0.90360767698E+02 0.  0.
        -13    1    4    4    0    0 -0.84163380403E+02  0.15607906803E+02  0.39208441726E+02  0.94150853731E+02  0.00000000000E+00 0.  1.
         13    1    4    4    0    0 -0.82407776677E+01  0.33877832201E+02  0.84742681494E+02  0.91634818699E+02  0.00000000000E+00 0. -1.
        -13    1    3    3    0    0  0.36618281856E+02 -0.48776415439E+02  0.18307496945E+03  0.19296756647E+03  0.00000000000E+00 0. -1.
         13    1    3    3    0    0  0.69283657765E+01  0.35105816772E+02  0.47630386846E+02  0.59574108257E+02  0.00000000000E+00 0.  1.
          2    1    1    2  501    0  0.48857510438E+02 -0.35815140336E+02  0.96665951895E+01  0.61345119334E+02  0.00000000000E+00 0. -1.
<scales pt_clust_5="13000.00000" pt_clust_6="13000.00000" pt_clust_7="13000.00000" pt_clust_8="13000.00000" pt_clust_9="60.57871"></scales>
<clustering>
<clus scale="   60.579">  2  9  1 -1</clus>
<clus scale="   90.361">  5  6 -1 -1</clus>
<clus scale="   92.028">  7  8 -1 -1</clus>
<clus scale="  108.923">  2  5  1 -1</clus>
<clus scale="   60.579">  2  5  1 -1</clus>
</clustering>
</event>
<event>
 9    1  0.1636528E-005  0.1288373E+03  0.7546771E-02  0.1229520E+00
         21   -1    0    0  501  502  0.00000000000E+00  0.00000000000E+00  0.15365630445E+03  0.15365630445E+03  0.00000000000E+00 0.  1.
         -3   -1    0    0    0  501 -0.00000000000E+00 -0.00000000000E+00 -0.24417361201E+03  0.24417361201E+03  0.00000000000E+00 0.  1.
         23    2    1    2    0    0  0.87897481580E+02 -0.48126155620E+02 -0.16313823540E+03  0.21195086328E+03  0.90922991990E+02 0.  0.
         23    2    1    2    0    0 -0.66487420727E+02  0.20955746540E+02  0.96079860601E+01  0.11399544819E+03  0.89682374988E+02 0.  0.
        -13    1    3    3    0    0  0.64116137972E+02 -0.36125928916E+02 -0.16930565316E+03  0.18460868365E+03  0.00000000000E+00 0.  1.
         13    1    3    3    0    0  0.23781343607E+02 -0.12000226704E+02  0.61674177619E+01  0.27342179624E+02  0.00000000000E+00 0. -1.
        -13    1    4    4    0    0 -0.58593338870E+01  0.45081417676E+02 -0.85644381323E+01  0.46260302786E+02  0.00000000000E+00 0. -1.
         13    1    4    4    0    0 -0.60628086840E+02 -0.24125671136E+02  0.18172424192E+02  0.67735145402E+02  0.00000000000E+00 0.  1.
         -3    1    1    2    0  502 -0.21410060853E+02  0.27170409080E+02  0.63012941779E+02  0.71883604994E+02  0.00000000000E+00 0.  1.
<scales pt_clust_5="13000.00000" pt_clust_6="13000.00000" pt_clust_7="13000.00000" pt_clust_8="13000.00000" pt_clust_9="34.59222"></scales>
<clustering>
<clus scale="   34.592">  1  9  2 -1</clus>
<clus scale="   89.682">  7  8 -1 -1</clus>
<clus scale="   90.923">  5  6 -1 -1</clus>
<clus scale="  127.965">  1  7  2 -1</clus>
<clus scale="   34.592">  1  5  2 -1</clus>
</clustering>
</event>
<event>
 9    1  0.1636528E-005  0.1024236E+03  0.7546771E-02  0.1275963E+00
         21   -1    0    0  501  502  0.00000000000E+00  0.00000000000E+00  0.29720265628E+03  0.29720265628E+03  0.00000000000E+00 0.  1.
         -3   -1    0    0    0  501 -0.00000000000E+00 -0.00000000000E+00 -0.14038591506E+03  0.14038591506E+03  0.00000000000E+00 0.  1.
         23    2    1    2    0    0  0.45591508450E+02  0.37159158307E+02 -0.87479206515E+02  0.13841312591E+03  0.89700575042E+02 0.  0.
         23    2    1    2    0    0  0.90252921618E+01 -0.11497552380E+02  0.73518017116E+02  0.11804948232E+03  0.91198310434E+02 0.  0.
        -11    1    3    3    0    0  0.31188253451E+02  0.58980170573E+02 -0.90125362092E+02  0.11213361925E+03  0.00000000000E+00 0.  1.
         11    1    3    3    0    0  0.14403254999E+02 -0.21821012266E+02  0.26461555769E+01  0.26279506659E+02  0.00000000000E+00 0. -1.
        -13    1    4    4    0    0  0.57071076212E+01 -0.48740727944E+02  0.20524521750E+02  0.53192909593E+02  0.00000000000E+00 0. -1.
         13    1    4    4    0    0  0.33181845406E+01  0.37243175564E+02  0.52993495366E+02  0.64856572727E+02  0.00000000000E+00 0.  1.
         -3    1    1    2    0  502 -0.54616800612E+02 -0.25661605927E+02  0.17077793061E+03  0.18112596311E+03  0.00000000000E+00 0.  1.
<scales pt_clust_5="13000.00000" pt_clust_6="13000.00000" pt_clust_7="13000.00000" pt_clust_8="13000.00000" pt_clust_9="60.34495"></scales>
<clustering>
<clus scale="   60.345">  1  9  2 -1</clus>
<clus scale="   89.701">  5  6 -1 -1</clus>
<clus scale="   91.198">  7  8 -1 -1</clus>
<clus scale="  101.092">  2  5  1 -1</clus>
<clus scale="   60.345">  1  5  2 -1</clus>
</clustering>
</event>
<event>
 9    1  0.1636528E-005  0.1551737E+03  0.7546771E-02  0.1194584E+00
         21   -1    0    0  501  502  0.00000000000E+00  0.00000000000E+00  0.52790066022E+02  0.52790066022E+02  0.00000000000E+00 0. -1.
          2   -1    0    0  502    0 -0.00000000000E+00 -0.00000000000E+00 -0.11652518474E+04  0.11652518474E+04  0.00000000000E+00 0. -1.
         23    2    1    2    0    0 -0.55128305552E+02 -0.10319784272E+03 -0.72016059332E+03  0.73508767992E+03  0.89630866246E+02 0.  0.
         23    2    1    2    0    0  0.40620795048E+02  0.14153254345E+03 -0.40458223327E+03  0.44016590322E+03  0.91529935183E+02 0.  0.
        -13    1    4    4    0    0  0.41366122385E+02  0.25694327830E+02 -0.63982439789E+02  0.80405890115E+02  0.00000000000E+00 0.  1.
         13    1    4    4    0    0 -0.74532733658E+00  0.11583821562E+03 -0.34059979348E+03  0.35976001310E+03  0.00000000000E+00 0. -1.
        -13    1    3    3    0    0  0.24988678727E+02 -0.21657318212E+02 -0.16403833639E+03  0.16733812865E+03  0.00000000000E+00 0.  1.
         13    1    3    3    0    0 -0.80116984279E+02 -0.81540524504E+02 -0.55612225694E+03  0.56774955127E+03  0.00000000000E+00 0. -1.
          2    1    1    2  501    0  0.14507510504E+02 -0.38334700732E+02  0.12281045173E+02  0.42788330322E+02  0.00000000000E+00 0. -1.
<scales pt_clust_5="13000.00000" pt_clust_6="13000.00000" pt_clust_7="13000.00000" pt_clust_8="13000.00000" pt_clust_9="40.98801"></scales>
<clustering>
<clus scale="   40.988">  1  9  2 -1</clus>
<clus scale="   89.631">  7  8 -1 -1</clus>
<clus scale="   91.530">  5  6 -1 -1</clus>
<clus scale="  154.061">  2  7  1 -1</clus>
<clus scale="   40.988">  1  5  2 -1</clus>
</clustering>
</event>
<event>
 9    1  0.1636528E-005  0.9923905E+02  0.7546771E-02  0.1282857E+00
         21   -1    0    0  501  502  0.00000000000E+00  0.00000000000E+00  0.22388791327E+03  0.22388791327E+03  0.00000000000E+00 0. -1.
          1   -1    0    0  502    0 -0.00000000000E+00 -0.00000000000E+00 -0.87230084903E+02  0.87230084903E+02  0.00000000000E+00 0. -1.
         23    2    1    2    0    0  0.25103538126E+02 -0.36066723587E+02 -0.11954288804E+02  0.10070244142E+03  0.89816927747E+02 0.  0.
         23    2    1    2    0    0 -0.26272418284E+02  0.13583879571E+02  0.48692323180E+02  0.10799090256E+03  0.91740563287E+02 0.  0.
        -11    1    4    4    0    0 -0.56507553819E+02  0.26152336715E+02  0.23026535361E+02  0.66387270504E+02  0.00000000000E+00 0.  1.
         11    1    4    4    0    0  0.30235135535E+02 -0.12568457144E+02  0.25665787819E+02  0.41603632055E+02  0.00000000000E+00 0. -1.
        -11    1    3    3    0    0 -0.93591141514E+01 -0.27784210120E+02  0.32551032069E+02  0.43807819376E+02  0.00000000000E+00 0.  1.
         11    1    3    3    0    0  0.34462652277E+02 -0.82825134668E+01 -0.44505320872E+02  0.56894622042E+02  0.00000000000E+00 0. -1.
          1    1    1    2  501    0  0.11688801580E+01  0.22482844016E+02  0.99919793987E+02  0.10242465419E+03  0.00000000000E+00 0. -1.
<scales pt_clust_5="13000.00000" pt_clust_6="13000.00000" pt_clust_7="13000.00000" pt_clust_8="13000.00000" pt_clust_9="22.51321"></scales>
<clustering>
<clus scale="   22.513">  1  9  2 -1</clus>
<clus scale="   89.817">  7  8 -1 -1</clus>
<clus scale="   91.741">  5  6 -1 -1</clus>
<clus scale="   97.464">  2  7  1 -1</clus>
<clus scale="   22.513">  1  5  2 -1</clus>
</clustering>
</event>
<event>
 9    1  0.1636528E-005  0.1140423E+03  0.7546771E-02  0.1257456E+00
          1   -1    0    0  502    0 -0.00000000000E+00  0.00000000000E+00  0.37724794134E+03  0.37724794134E+03  0.00000000000E+00 0. -1.
         21   -1    0    0  501  502  0.00000000000E+00 -0.00000000000E+00 -0.48702635020E+02  0.48702635020E+02  0.00000000000E+00 0.  1.
         23    2    1    2    0    0  0.31243480949E+02 -0.52549051957E+02  0.26061139843E+03  0.28601084950E+03  0.10072907760E+03 0.  0.
         23    2    1    2    0    0 -0.17000625037E+02  0.32722477570E+02  0.58654895087E+02  0.11382360014E+03  0.90308545782E+02 0.  0.
        -11    1    3    3    0    0  0.16812428522E+01 -0.75983105044E+02  0.13577533899E+03  0.15559949070E+03  0.00000000000E+00 0. -1.
         11    1    3    3    0    0  0.29562238097E+02  0.23434053087E+02  0.12483605944E+03  0.13041135879E+03  0.00000000000E+00 0.  1.
        -13    1    4    4    0    0 -0.13718843082E+02  0.63713635771E+02  0.31054738012E+02  0.72194395847E+02  0.00000000000E+00 0.  1.
         13    1    4    4    0    0 -0.32817819544E+01 -0.30991158202E+02  0.27600157075E+02  0.41629204293E+02  0.00000000000E+00 0. -1.
          1    1    1    2  501    0 -0.14242855912E+02  0.19826574388E+02  0.92790128032E+01  0.26116126724E+02  0.00000000000E+00 0. -1.
<scales pt_clust_5="13000.00000" pt_clust_6="13000.00000" pt_clust_7="13000.00000" pt_clust_8="13000.00000" pt_clust_9="24.41213"></scales>
<clustering>
<clus scale="   24.412">  2  9  1 -1</clus>
<clus scale="   90.309">  7  8 -1 -1</clus>
<clus scale="  100.729">  5  6 -1 -1</clus>
<clus scale="  104.952">  2  7  1 -1</clus>
<clus scale="   24.412">  2  5  1 -1</clus>
</clustering>
</event>
<event>
 9    1  0.1636528E-005  0.2127372E+03  0.7546771E-02  0.1171081E+00
         -1   -1    0    0    0  501 -0.00000000000E+00  0.00000000000E+00  0.65101119372E+02  0.65101119372E+02  0.00000000000E+00 0.  1.
         21   -1    0    0  501  502  0.00000000000E+00 -0.00000000000E+00 -0.12272306811E+04  0.12272306811E+04  0.00000000000E+00 0. -1.
         23    2    1    2    0    0  0.30322557915E+02 -0.25918213486E+02 -0.72285210406E+02  0.12432397832E+03  0.92952077074E+02 0.  0.
         23    2    1    2    0    0 -0.73585689653E+02  0.19264508028E+03 -0.79719025453E+03  0.82842577457E+03  0.90829408058E+02 0.  0.
        -11    1    3    3    0    0 -0.27671000978E-01 -0.35681342995E+02  0.91791632368E+01  0.36843127464E+02  0.00000000000E+00 0.  1.
         11    1    3    3    0    0  0.30350228916E+02  0.97631295088E+01 -0.81464373642E+02  0.87480850853E+02  0.00000000000E+00 0. -1.
        -13    1    4    4    0    0 -0.78905385673E+01  0.13141422204E+03 -0.39612791750E+03  0.41743177332E+03  0.00000000000E+00 0. -1.
         13    1    4    4    0    0 -0.65695151085E+02  0.61230858246E+02 -0.40106233703E+03  0.41099400125E+03  0.00000000000E+00 0.  1.
         -1    1    1    2    0  502  0.43263131737E+02 -0.16672686680E+03 -0.29265409683E+03  0.33958204763E+03  0.00000000000E+00 0.  1.
<scales pt_clust_5="13000.00000" pt_clust_6="13000.00000" pt_clust_7="13000.00000" pt_clust_8="13000.00000" pt_clust_9="192.37252"></scales>
<clustering>
<clus scale="   90.829">  7  8 -1 -1</clus>
<clus scale="   92.952">  5  6 -1 -1</clus>
<clus scale="  101.150">  1  5  2 -1</clus>
<clus scale="  192.373">  2  9  1 -1</clus>
<clus scale="  192.373">  2  5  1 -1</clus>
</clustering>
</event>
<event>
 9    1  0.1636528E-005  0.1291270E+03  0.7546771E-02  0.1244305E+00
         -1   -1    0    0    0  501 -0.00000000000E+00  0.00000000000E+00  0.22295117640E+03  0.22295117640E+03  0.00000000000E+00 0.  1.
         21   -1    0    0  501  502  0.00000000000E+00 -0.00000000000E+00 -0.16288552247E+03  0.16288552247E+03  0.00000000000E+00 0.  1.
         23    2    1    2    0    0  0.13229090745E+02  0.13444926649E+02  0.11668853216E+03  0.14983420148E+03  0.92077681885E+02 0.  0.
         23    2    1    2    0    0  0.79975578250E+02  0.15880723580E+02  0.32073898794E+01  0.12143040190E+03  0.89926440255E+02 0.  0.
        -11    1    3    3    0    0  0.16314109061E+02 -0.31848194537E+02  0.15632222209E+02  0.39048995134E+02  0.00000000000E+00 0.  1.
         11    1    3    3    0    0 -0.30850183168E+01  0.45293121186E+02  0.10105630995E+03  0.11078520635E+03  0.00000000000E+00 0. -1.
        -11    1    4    4    0    0  0.47336581125E+02  0.79951125891E+01  0.46370194945E+02  0.66744802922E+02  0.00000000000E+00 0.  1.
         11    1    4    4    0    0  0.32638997125E+02  0.78856109905E+01 -0.43162805065E+02  0.54685598974E+02  0.00000000000E+00 0. -1.
         -1    1    1    2    0  502 -0.93204668994E+02 -0.29325650228E+02 -0.59830268113E+02  0.11457209550E+03  0.00000000000E+00 0.  1.
<scales pt_clust_5="13000.00000" pt_clust_6="13000.00000" pt_clust_7="13000.00000" pt_clust_8="13000.00000" pt_clust_9="92.66620"></scales>
<clustering>
<clus scale="   89.926">  7  8 -1 -1</clus>
<clus scale="   92.078">  5  6 -1 -1</clus>
<clus scale="   93.990">  1  5  2 -1</clus>
<clus scale="   92.666">  2  9  1 -1</clus>
<clus scale="   92.666">  2  5  1 -1</clus>
</clustering>
</event>
<event>
 9    1  0.1636528E-005  0.1059965E+03  0.7546771E-02  0.1268492E+00
         21   -1    0    0  501  502  0.00000000000E+00  0.00000000000E+00  0.18254789251E+03  0.18254789251E+03  0.00000000000E+00 0.  1.
         -3   -1    0    0    0  501 -0.00000000000E+00 -0.00000000000E+00 -0.24903018461E+03  0.24903018461E+03  0.00000000000E+00 0.  1.
         23    2    1    2    0    0 -0.52511512567E+02  0.30288411860E+02 -0.16600128104E+03  0.19914306707E+03  0.91796998917E+02 0.  0.
         23    2    1    2    0    0  0.17239808163E+02 -0.37148070267E+02 -0.24944392344E+02  0.10288856538E+03  0.91031006077E+02 0.  0.
        -11    1    3    3    0    0 -0.51347632295E+02 -0.18767458658E+02 -0.12007136512E+03  0.13193153364E+03  0.00000000000E+00 0.  1.
         11    1    3    3    0    0 -0.11638802719E+01  0.49055870518E+02 -0.45929915918E+02  0.67211533428E+02  0.00000000000E+00 0. -1.
        -13    1    4    4    0    0  0.28749552136E+02 -0.58886719658E+02 -0.37257640777E+02  0.75381126924E+02  0.00000000000E+00 0.  1.
         13    1    4    4    0    0 -0.11509743973E+02  0.21738649391E+02  0.12313248433E+02  0.27507438461E+02  0.00000000000E+00 0. -1.
         -3    1    1    2    0  502  0.35271704404E+02  0.68596584064E+01  0.12446338128E+03  0.12954644466E+03  0.00000000000E+00 0.  1.
<scales pt_clust_5="13000.00000" pt_clust_6="13000.00000" pt_clust_7="13000.00000" pt_clust_8="13000.00000" pt_clust_9="35.93255"></scales>
<clustering>
<clus scale="   35.933">  1  9  2 -1</clus>
<clus scale="   91.031">  7  8 -1 -1</clus>
<clus scale="   91.797">  5  6 -1 -1</clus>
<clus scale="  105.334">  1  7  2 -1</clus>
<clus scale="   35.933">  1  5  2 -1</clus>
</clustering>
</event>
<event>
 9    1  0.1636528E-005  0.9290026E+02  0.7546771E-02  0.1296957E+00
          3   -1    0    0  502    0 -0.00000000000E+00  0.00000000000E+00  0.32518838219E+03  0.32518838219E+03  0.00000000000E+00 0. -1.
         21   -1    0    0  501  502  0.00000000000E+00 -0.00000000000E+00 -0.15527738365E+03  0.15527738365E+03  0.00000000000E+00 0. -1.
         23    2    1    2    0    0 -0.13843685740E+02 -0.30127732730E+02  0.20024542421E+03  0.22286392428E+03  0.92036791085E+02 0.  0.
         23    2    1    2    0    0 -0.37024444642E+02 -0.26969992372E+02  0.75992169733E+02  0.12663214358E+03  0.90347661490E+02 0.  0.
        -11    1    4    4    0    0 -0.16947786703E+02  0.24397478562E+02  0.63468629199E+02  0.70076610411E+02  0.00000000000E+00 0.  1.
         11    1    4    4    0    0 -0.20076657939E+02 -0.51367470934E+02  0.12523540534E+02  0.56555533166E+02  0.00000000000E+00 0. -1.
        -13    1    3    3    0    0  0.14302828155E+02  0.17816015058E+02  0.10504991111E+02  0.25146294439E+02  0.00000000000E+00 0.  1.
         13    1    3    3    0    0 -0.28146513895E+02 -0.47943747788E+02  0.18974043310E+03  0.19771762984E+03  0.00000000000E+00 0. -1.
          3    1    1    2  501    0  0.50868130382E+02  0.57097725102E+02 -0.10632659540E+03  0.13096969799E+03  0.00000000000E+00 0. -1.
<scales pt_clust_5="13000.00000" pt_clust_6="13000.00000" pt_clust_7="13000.00000" pt_clust_8="13000.00000" pt_clust_9="76.47037"></scales>
<clustering>
<clus scale="   76.470">  2  9  1 -1</clus>
<clus scale="   90.348">  5  6 -1 -1</clus>
<clus scale="   91.227">  2  5  1 -1</clus>
<clus scale="   92.037">  7  8 -1 -1</clus>
<clus scale="   76.470">  2  5  1 -1</clus>
</clustering>
</event>
<event>
 9    1  0.1636528E-005  0.1180960E+03  0.7546771E-02  0.1252327E+00
         -1   -1    0    0    0  501 -0.00000000000E+00  0.00000000000E+00  0.32308871104E+03  0.32308871104E+03  0.00000000000E+00 0.  1.
         21   -1    0    0  501  502  0.00000000000E+00 -0.00000000000E+00 -0.23407085116E+03  0.23407085116E+03  0.00000000000E+00 0.  1.
         23    2    1    2    0    0  0.52076678512E+02 -0.68701583254E+02  0.28155770690E+03  0.30821387371E+03  0.91044833149E+02 0.  0.
         23    2    1    2    0    0 -0.10758117661E+02  0.16074180098E+02 -0.46901831421E+02  0.88673112485E+02  0.72725667585E+02 0.  0.
        -13    1    4    4    0    0 -0.28234504633E+02 -0.19065412251E+02 -0.11901891377E+02  0.36087840259E+02  0.00000000000E+00 0.  1.
         13    1    4    4    0    0  0.17476386972E+02  0.35139592349E+02 -0.34999940045E+02  0.52585272227E+02  0.00000000000E+00 0. -1.
        -13    1    3    3    0    0  0.27594046614E+02  0.17989395951E+02  0.10432824944E+03  0.10940490577E+03  0.00000000000E+00 0.  1.
         13    1    3    3    0    0  0.24482631897E+02 -0.86690979205E+02  0.17722945746E+03  0.19880896794E+03  0.00000000000E+00 0. -1.
         -1    1    1    2    0  502 -0.41318560851E+02  0.52627403157E+02 -0.14563801559E+03  0.16027257601E+03  0.00000000000E+00 0.  1.
<scales pt_clust_5="13000.00000" pt_clust_6="13000.00000" pt_clust_7="13000.00000" pt_clust_8="13000.00000" pt_clust_9="66.90939"></scales>
<clustering>
<clus scale="   66.909">  2  9  1 -1</clus>
<clus scale="   72.726">  5  6 -1 -1</clus>
<clus scale="   91.045">  7  8 -1 -1</clus>
<clus scale="  104.626">  2  5  1 -1</clus>
<clus scale="   66.909">  2  5  1 -1</clus>
</clustering>
</event>
<event>
 9    1  0.1636528E-005  0.1117717E+03  0.7546771E-02  0.1257816E+00
         21   -1    0    0  501  502  0.00000000000E+00  0.00000000000E+00  0.89061374309E+02  0.89061374309E+02  0.00000000000E+00 0.  1.
          1   -1    0    0  502    0 -0.00000000000E+00 -0.00000000000E+00 -0.37618289896E+03  0.37618289896E+03  0.00000000000E+00 0. -1.
         23    2    1    2    0    0 -0.52248894652E+02 -0.30390136108E+02 -0.29560720723E+03  0.31571326546E+03  0.92939430034E+02 0.  0.
         23    2    1    2    0    0  0.36806934986E+02  0.51274988983E+02 -0.15142795920E+02  0.11441781663E+03  0.94224506029E+02 0.  0.
        -13    1    4    4    0    0  0.13333907895E+02  0.45069731183E+02 -0.52119791859E+02  0.70182237583E+02  0.00000000000E+00 0. -1.
         13    1    4    4    0    0  0.23473027090E+02  0.62052577999E+01  0.36976995940E+02  0.44235579050E+02  0.00000000000E+00 0.  1.
        -13    1    3    3    0    0 -0.49128304587E+02 -0.50748925317E+02 -0.28273694682E+03  0.29142619105E+03  0.00000000000E+00 0. -1.
         13    1    3    3    0    0 -0.31205900645E+01  0.20358789209E+02 -0.12870260415E+02  0.24287074413E+02  0.00000000000E+00 0.  1.
          1    1    1    2  501    0  0.15441959666E+02 -0.20884852876E+02  0.23628478504E+02  0.35113191173E+02  0.00000000000E+00 0. -1.
<scales pt_clust_5="13000.00000" pt_clust_6="13000.00000" pt_clust_7="13000.00000" pt_clust_8="13000.00000" pt_clust_9="25.97366"></scales>
<clustering>
<clus scale="   25.974">  1  9  2 -1</clus>
<clus scale="   92.939">  7  8 -1 -1</clus>
<clus scale="   94.225">  5  6 -1 -1</clus>
<clus scale="  110.691">  2  7  1 -1</clus>
<clus scale="   25.974">  1  5  2 -1</clus>
</clustering>
</event>
<event>
 9    1  0.1636528E-005  0.1431081E+03  0.7546771E-02  0.1209603E+00
         21   -1    0    0  501  502  0.00000000000E+00  0.00000000000E+00  0.83650627374E+03  0.83650627374E+03  0.00000000000E+00 0. -1.
          1   -1    0    0  502    0 -0.00000000000E+00 -0.00000000000E+00 -0.46058896473E+02  0.46058896473E+02  0.00000000000E+00 0. -1.
         23    2    1    2    0    0 -0.93480127395E+02  0.81978360344E+02  0.13942513810E+03  0.20740303457E+03  0.90098078963E+02 0.  0.
         23    2    1    2    0    0  0.59174065316E+02 -0.33453721614E+02  0.49892645947E+03  0.51186892494E+03  0.91986210189E+02 0.  0.
        -11    1    4    4    0    0  0.83248295397E+02 -0.24478014515E+02  0.41985301780E+03  0.42872602958E+03  0.00000000000E+00 0. -1.
         11    1    4    4    0    0 -0.24074230081E+02 -0.89757070999E+01  0.79073441666E+02  0.83142895360E+02  0.00000000000E+00 0.  1.
        -13    1    3    3    0    0 -0.99232957900E+02  0.34055431738E+02  0.10201991209E+03  0.14633869901E+03  0.00000000000E+00 0. -1.
         13    1    3    3    0    0  0.57528305044E+01  0.47922928606E+02  0.37405226008E+02  0.61064335563E+02  0.00000000000E+00 0.  1.
          1    1    1    2  501    0  0.34306062079E+02 -0.48524638730E+02  0.15209577970E+03  0.16329321070E+03  0.00000000000E+00 0. -1.
<scales pt_clust_5="13000.00000" pt_clust_6="13000.00000" pt_clust_7="13000.00000" pt_clust_8="13000.00000" pt_clust_9="59.42682"></scales>
<clustering>
<clus scale="   59.427">  1  9  2 -1</clus>
<clus scale="   90.098">  7  8 -1 -1</clus>
<clus scale="   91.986">  5  6 -1 -1</clus>
<clus scale="  141.902">  2  7  1 -1</clus>
<clus scale="   59.427">  1  5  2 -1</clus>
</clustering>
</event>
<event>
 9    1  0.1636528E-005  0.1340874E+03  0.7546771E-02  0.1222099E+00
         -1   -1    0    0    0  501 -0.00000000000E+00  0.00000000000E+00  0.43301051412E+03  0.43301051412E+03  0.00000000000E+00 0.  1.
         21   -1    0    0  501  502  0.00000000000E+00 -0.00000000000E+00 -0.10800806653E+03  0.10800806653E+03  0.00000000000E+00 0. -1.
         23    2    1    2    0    0 -0.92021592513E+02  0.96801995404E+01  0.27064035738E+03  0.30031940211E+03  0.91563423307E+02 0.  0.
         23    2    1    2    0    0  0.10895659369E+03 -0.20741113658E+02  0.11105232430E+03  0.18050847554E+03  0.89156928539E+02 0.  0.
        -11    1    3    3    0    0  0.18397324294E+01  0.24764432593E+02  0.18839066623E+02  0.31170052427E+02  0.00000000000E+00 0. -1.
         11    1    3    3    0    0 -0.93861324942E+02 -0.15084233053E+02  0.25180129076E+03  0.26914934968E+03  0.00000000000E+00 0.  1.
        -13    1    4    4    0    0  0.85649701906E+00 -0.33226922731E+02  0.21572135056E+02  0.39624727030E+02  0.00000000000E+00 0.  1.
         13    1    4    4    0    0  0.10810009667E+03  0.12485809073E+02  0.89480189240E+02  0.14088374851E+03  0.00000000000E+00 0. -1.
         -1    1    1    2    0  502 -0.16935001173E+02  0.11060914117E+02 -0.56690234088E+02  0.60190702993E+02  0.00000000000E+00 0.  1.
<scales pt_clust_5="13000.00000" pt_clust_6="13000.00000" pt_clust_7="13000.00000" pt_clust_8="13000.00000" pt_clust_9="20.22716"></scales>
<clustering>
<clus scale="   20.227">  2  9  1 -1</clus>
<clus scale="   89.157">  7  8 -1 -1</clus>
<clus scale="   91.563">  5  6 -1 -1</clus>
<clus scale="  132.456">  2  7  1 -1</clus>
<clus scale="   20.227">  2  5  1 -1</clus>
</clustering>
</event>
<event>
 9    1  0.1636528E-005  0.1200783E+03  0.7546771E-02  0.1243397E+00
         21   -1    0    0  501  502  0.00000000000E+00  0.00000000000E+00  0.68807251868E+02  0.68807251868E+02  0.00000000000E+00 0. -1.
          2   -1    0    0  502    0 -0.00000000000E+00 -0.00000000000E+00 -0.44907037992E+03  0.44907037992E+03  0.00000000000E+00 0. -1.
         23    2    1    2    0    0  0.29953534417E+02  0.41422246963E+02 -0.14066247705E+03  0.17427107562E+03  0.89283025155E+02 0.  0.
         23    2    1    2    0    0 -0.80168738364E+02 -0.78069978656E+02 -0.24175711280E+03  0.28140307336E+03  0.90660023859E+02 0.  0.
        -11    1    3    3    0    0 -0.28229001210E+02  0.34729919120E+01 -0.68189850526E+02  0.73883651079E+02  0.00000000000E+00 0.  1.
         11    1    3    3    0    0  0.58182535627E+02  0.37949255051E+02 -0.72472626526E+02  0.10038742454E+03  0.00000000000E+00 0. -1.
        -13    1    4    4    0    0  0.20063487383E+02 -0.18771525427E+02 -0.42482531639E+02  0.50593272154E+02  0.00000000000E+00 0.  1.
         13    1    4    4    0    0 -0.10023222575E+03 -0.59298453229E+02 -0.19927458116E+03  0.23080980120E+03  0.00000000000E+00 0. -1.
          2    1    1    2  501    0  0.50215203947E+02  0.36647731693E+02  0.21564618047E+01  0.62203482806E+02  0.00000000000E+00 0. -1.
<scales pt_clust_5="13000.00000" pt_clust_6="13000.00000" pt_clust_7="13000.00000" pt_clust_8="13000.00000" pt_clust_9="62.16609"></scales>
<clustering>
<clus scale="   62.166">  1  9  2 -1</clus>
<clus scale="   89.283">  5  6 -1 -1</clus>
<clus scale="   90.660">  7  8 -1 -1</clus>
<clus scale="  119.042">  2  5  1 -1</clus>
<clus scale="   62.166">  1  5  2 -1</clus>
</clustering>
</event>
<event>
 9    1  0.1636528E-005  0.9723606E+02  0.7546771E-02  0.1287543E+00
          1   -1    0    0  502    0 -0.00000000000E+00  0.00000000000E+00  0.82829449533E+02  0.82829449533E+02  0.00000000000E+00 0. -1.
         21   -1    0    0  501  502  0.00000000000E+00 -0.00000000000E+00 -0.17691592163E+03  0.17691592163E+03  0.00000000000E+00 0.  1.
         23    2    1    2    0    0 -0.20201184011E+01 -0.21567946093E+02 -0.14068329027E+02  0.95693923360E+02  0.92142020324E+02 0.  0.
         23    2    1    2    0    0  0.37233325053E+02  0.37020057846E+02 -0.66326413268E+02  0.12323232061E+03  0.89611419850E+02 0.  0.
        -11    1    4    4    0    0  0.34083300823E+02 -0.11323620523E+02  0.57650661781E+01  0.36374878210E+02  0.00000000000E+00 0. -1.
         11    1    4    4    0    0  0.31500242300E+01  0.48343678369E+02 -0.72091479446E+02  0.86857442396E+02  0.00000000000E+00 0.  1.
        -13    1    3    3    0    0 -0.43936610008E+02 -0.16274282213E+02  0.87689362588E+01  0.47667307493E+02  0.00000000000E+00 0.  1.
         13    1    3    3    0    0  0.41916491607E+02 -0.52936638799E+01 -0.22837265286E+02  0.48026615867E+02  0.00000000000E+00 0. -1.
          1    1    1    2  501    0 -0.35213206652E+02 -0.15452111753E+02 -0.13691729807E+02  0.40819127201E+02  0.00000000000E+00 0. -1.
<scales pt_clust_5="13000.00000" pt_clust_6="13000.00000" pt_clust_7="13000.00000" pt_clust_8="13000.00000" pt_clust_9="38.45438"></scales>
<clustering>
<clus scale="   38.454">  2  9  1 -1</clus>
<clus scale="   89.611">  5  6 -1 -1</clus>
<clus scale="   92.142">  7  8 -1 -1</clus>
<clus scale="   94.841">  2  5  1 -1</clus>
<clus scale="   38.454">  2  5  1 -1</clus>
</clustering>
</event>
<event>
 9    1  0.1636528E-005  0.1155700E+03  0.7546771E-02  0.1252232E+00
          1   -1    0    0  502    0 -0.00000000000E+00  0.00000000000E+00  0.50063322929E+03  0.50063322929E+03  0.00000000000E+00 0. -1.
         21   -1    0    0  501  502  0.00000000000E+00 -0.00000000000E+00 -0.12611269401E+03  0.12611269401E+03  0.00000000000E+00 0. -1.
         23    2    1    2    0    0 -0.35343844106E+02  0.60387370516E+02  0.43928168168E+03  0.45497720179E+03  0.95603537903E+02 0.  0.
         23    2    1    2    0    0  0.13637079157E+02 -0.31200351709E+02  0.30341105979E+00  0.97227039545E+02  0.91069057784E+02 0.  0.
        -11    1    3    3    0    0  0.22147268322E+02  0.54627198221E+02  0.18283988457E+03  0.19210688606E+03  0.00000000000E+00 0.  1.
         11    1    3    3    0    0 -0.57491112427E+02  0.57601722951E+01  0.25644179711E+03  0.26287031574E+03  0.00000000000E+00 0. -1.
        -13    1    4    4    0    0  0.40718755261E+02 -0.29262809432E+02  0.28833938145E+02  0.57842242650E+02  0.00000000000E+00 0.  1.
         13    1    4    4    0    0 -0.27081676103E+02 -0.19375422764E+01 -0.28530527085E+02  0.39384796894E+02  0.00000000000E+00 0. -1.
          1    1    1    2  501    0  0.21706764948E+02 -0.29187018808E+02 -0.65064557461E+02  0.74541681957E+02  0.00000000000E+00 0. -1.
<scales pt_clust_5="13000.00000" pt_clust_6="13000.00000" pt_clust_7="13000.00000" pt_clust_8="13000.00000" pt_clust_9="36.37397"></scales>
<clustering>
<clus scale="   36.374">  2  9  1 -1</clus>
<clus scale="   91.069">  7  8 -1 -1</clus>
<clus scale="   95.604">  5  6 -1 -1</clus>
<clus scale="  111.848">  2  7  1 -1</clus>
<clus scale="   36.374">  2  5  1 -1</clus>
</clustering>
</event>
<event>
 9    1  0.1636528E-005  0.1217607E+03  0.7546771E-02  0.1241018E+00
          1   -1    0    0  502    0 -0.00000000000E+00  0.00000000000E+00  0.37868732510E+03  0.37868732510E+03  0.00000000000E+00 0. -1.
         21   -1    0    0  501  502  0.00000000000E+00 -0.00000000000E+00 -0.22044668136E+03  0.22044668136E+03  0.00000000000E+00 0. -1.
         23    2    1    2    0    0  0.88538024787E+01  0.65303994528E+02  0.22814770879E+03  0.25399780643E+03  0.90113856449E+02 0.  0.
         23    2    1    2    0    0  0.35014693526E+02 -0.14438692540E+03  0.61511545949E+02  0.18560749975E+03  0.92697684364E+02 0.  0.
        -13    1    3    3    0    0  0.44937614421E+02  0.30679674431E+02  0.16317536807E+03  0.17200823340E+03  0.00000000000E+00 0. -1.
         13    1    3    3    0    0 -0.36083811942E+02  0.34624320097E+02  0.64972340723E+02  0.81989573029E+02  0.00000000000E+00 0.  1.
        -13    1    4    4    0    0  0.52898207191E+02 -0.55728122881E+02  0.11028486511E+01  0.76844390030E+02  0.00000000000E+00 0.  1.
         13    1    4    4    0    0 -0.17883513666E+02 -0.88658802523E+02  0.60408697298E+02  0.10876310972E+03  0.00000000000E+00 0. -1.
          1    1    1    2  501    0 -0.43868496004E+02  0.79082930875E+02 -0.13141861100E+03  0.15952870029E+03  0.00000000000E+00 0. -1.
<scales pt_clust_5="13000.00000" pt_clust_6="13000.00000" pt_clust_7="13000.00000" pt_clust_8="13000.00000" pt_clust_9="90.43536"></scales>
<clustering>
<clus scale="   90.114">  5  6 -1 -1</clus>
<clus scale="   90.435">  2  9  1 -1</clus>
<clus scale="   92.698">  7  8 -1 -1</clus>
<clus scale="  119.805">  1  5  2 -1</clus>
<clus scale="   90.435">  2  5  1 -1</clus>
</clustering>
</event>
<event>
 9    1  0.1973576E-005  0.1062799E+03  0.7546771E-02  0.1268019E+00
         21   -1    0    0  501  502  0.00000000000E+00  0.00000000000E+00  0.18549839518E+03  0.18549839518E+03  0.00000000000E+00 0. -1.
         -1   -1    0    0    0  501 -0.00000000000E+00 -0.00000000000E+00 -0.25596005708E+03  0.25596005708E+03  0.00000000000E+00 0.  1.
         23    2    1    2    0    0  0.49643074047E+02  0.22199728050E+02 -0.21182006445E+03  0.23670641416E+03  0.90581035947E+02 0.  0.
         23    2    1    2    0    0 -0.30581784954E+02 -0.50920178774E+02  0.12692184714E+03  0.16738077690E+03  0.91537200187E+02 0.  0.
        -11    1    3    3    0    0  0.58529475045E+02 -0.20433361182E+02 -0.12965214989E+03  0.14371117448E+03  0.00000000000E+00 0.  1.
         11    1    3    3    0    0 -0.88864009990E+01  0.42633089232E+02 -0.82167914561E+02  0.92995239682E+02  0.00000000000E+00 0. -1.
        -11    1    4    4    0    0  0.12895853097E+02 -0.42215835419E+02  0.14389293582E+02  0.46427702474E+02  0.00000000000E+00 0.  1.
         11    1    4    4    0    0 -0.43477638051E+02 -0.87043433550E+01  0.11253255356E+03  0.12095307443E+03  0.00000000000E+00 0. -1.
         -1    1    1    2    0  502 -0.19061289093E+02  0.28720450724E+02  0.14436555411E+02  0.37371261202E+02  0.00000000000E+00 0.  1.
<scales pt_clust_5="13000.00000" pt_clust_6="13000.00000" pt_clust_7="13000.00000" pt_clust_8="13000.00000" pt_clust_9="34.47023"></scales>
<clustering>
<clus scale="   34.470">  1  9  2 -1</clus>
<clus scale="   90.581">  5  6 -1 -1</clus>
<clus scale="   91.537">  7  8 -1 -1</clus>
<clus scale="  105.457">  2  5  1 -1</clus>
<clus scale="   34.470">  1  5  2 -1</clus>
</clustering>
</event>
<event>
 9    1  0.1636528E-005  0.2930254E+03  0.7546771E-02  0.1089096E+00
          2   -1    0    0  502    0 -0.00000000000E+00  0.00000000000E+00  0.19174740667E+04  0.19174740667E+04  0.00000000000E+00 0. -1.
         21   -1    0    0  501  502  0.00000000000E+00 -0.00000000000E+00 -0.57592013043E+02  0.57592013043E+02  0.00000000000E+00 0. -1.
         23    2    1    2    0    0 -0.20167113561E+03  0.19653659002E+03  0.12195148890E+04  0.12553897210E+04  0.97411030815E+02 0.  0.
         23    2    1    2    0    0  0.16084488366E+03 -0.21470641149E+03  0.53412956414E+03  0.60442292920E+03  0.89792907950E+02 0.  0.
        -11    1    3    3    0    0 -0.31965697572E+02  0.79563587800E+02  0.48420772977E+03  0.49174108623E+03  0.00000000000E+00 0. -1.
         11    1    3    3    0    0 -0.16970543804E+03  0.11697300222E+03  0.73530715927E+03  0.76364863480E+03  0.00000000000E+00 0.  1.
        -13    1    4    4    0    0  0.86204681573E+02 -0.89994540052E+02  0.15829151971E+03  0.20146083882E+03  0.00000000000E+00 0. -1.
         13    1    4    4    0    0  0.74640202087E+02 -0.12471187144E+03  0.37583804443E+03  0.40296209038E+03  0.00000000000E+00 0.  1.
          2    1    1    2  501    0  0.40826251951E+02  0.18169821466E+02  0.10623760052E+03  0.11525342956E+03  0.00000000000E+00 0. -1.
<scales pt_clust_5="13000.00000" pt_clust_6="13000.00000" pt_clust_7="13000.00000" pt_clust_8="13000.00000" pt_clust_9="44.68697"></scales>
<clustering>
<clus scale="   44.687">  2  9  1 -1</clus>
<clus scale="   89.793">  7  8 -1 -1</clus>
<clus scale="   97.411">  5  6 -1 -1</clus>
<clus scale="  290.582">  2  7  1 -1</clus>
<clus scale="   44.687">  2  5  1 -1</clus>
</clustering>
</event>
<event>
 9    1  0.1636528E-005  0.1110988E+03  0.7546771E-02  0.1259947E+00
          1   -1    0    0  502    0 -0.00000000000E+00  0.00000000000E+00  0.64122347408E+03  0.64122347408E+03  0.00000000000E+00 0. -1.
         21   -1    0    0  501  502  0.00000000000E+00 -0.00000000000E+00 -0.57870197530E+02  0.57870197530E+02  0.00000000000E+00 0.  1.
         23    2    1    2    0    0  0.79575749416E+01  0.67402923497E+02  0.53415984073E+03  0.54535546808E+03  0.86483374251E+02 0.  0.
         23    2    1    2    0    0  0.24337316992E+02 -0.48832727268E+02  0.49510729396E+02  0.11648350035E+03  0.90222797998E+02 0.  0.
        -11    1    4    4    0    0 -0.21508774029E+02 -0.30972040893E+02 -0.10247887875E+02  0.39075745459E+02  0.00000000000E+00 0.  1.
         11    1    4    4    0    0  0.45846091021E+02 -0.17860686374E+02  0.59758617272E+02  0.77407754895E+02  0.00000000000E+00 0. -1.
        -13    1    3    3    0    0  0.15190262991E+02 -0.13498201241E+02  0.43429073946E+02  0.47948201116E+02  0.00000000000E+00 0.  1.
         13    1    3    3    0    0 -0.72326880495E+01  0.80901124739E+02  0.49073076679E+03  0.49740726697E+03  0.00000000000E+00 0. -1.
          1    1    1    2  501    0 -0.32294891934E+02 -0.18570196230E+02 -0.31729358139E+00  0.37254703169E+02  0.00000000000E+00 0. -1.
<scales pt_clust_5="13000.00000" pt_clust_6="13000.00000" pt_clust_7="13000.00000" pt_clust_8="13000.00000" pt_clust_9="37.25335"></scales>
<clustering>
<clus scale="   37.253">  2  9  1 -1</clus>
<clus scale="   86.483">  7  8 -1 -1</clus>
<clus scale="   90.223">  5  6 -1 -1</clus>
<clus scale="  108.084">  1  7  2 -1</clus>
<clus scale="   37.253">  2  5  1 -1</clus>
</clustering>
</event>
<event>
 9    1  0.1636528E-005  0.1202867E+03  0.7546771E-02  0.1254419E+00
          3   -1    0    0  502    0 -0.00000000000E+00  0.00000000000E+00  0.11678499510E+03  0.11678499510E+03  0.00000000000E+00 0. -1.
         21   -1    0    0  501  502  0.00000000000E+00 -0.00000000000E+00 -0.23458235265E+03  0.23458235265E+03  0.00000000000E+00 0. -1.
         23    2    1    2    0    0 -0.11538846539E+02  0.68337854165E+02  0.20564444242E+02  0.11892528167E+03  0.94430498053E+02 0.  0.
         23    2    1    2    0    0  0.33229698238E+02 -0.74514891419E+02 -0.88913753209E+01  0.10102197565E+03  0.58904168958E+02 0.  0.
        -11    1    4    4    0    0  0.16609494001E+02 -0.23894654389E+02 -0.31730582995E+02  0.43054148424E+02  0.00000000000E+00 0.  1.
         11    1    4    4    0    0  0.16620204237E+02 -0.50620237031E+02  0.22839207675E+02  0.57967827224E+02  0.00000000000E+00 0. -1.
        -13    1    3    3    0    0  0.34399988067E+02  0.59623885729E+02  0.27564975259E+01  0.68890966077E+02  0.00000000000E+00 0. -1.
         13    1    3    3    0    0 -0.45938834606E+02  0.87139684367E+01  0.17807946716E+02  0.50034315596E+02  0.00000000000E+00 0.  1.
          3    1    1    2  501    0 -0.21690851698E+02  0.61770372536E+01 -0.12947042647E+03  0.13142009043E+03  0.00000000000E+00 0. -1.
<scales pt_clust_5="13000.00000" pt_clust_6="13000.00000" pt_clust_7="13000.00000" pt_clust_8="13000.00000" pt_clust_9="22.55324"></scales>
<clustering>
<clus scale="   22.553">  2  9  1 -1</clus>
<clus scale="   58.904">  5  6 -1 -1</clus>
<clus scale="   94.430">  7  8 -1 -1</clus>
<clus scale="   94.981">  2  5  1 -1</clus>
<clus scale="   22.553">  2  5  1 -1</clus>
</clustering>
</event>
<event>
 9    1  0.1732853E-005  0.9381833E+02  0.7546771E-02  0.1293896E+00
         21   -1    0    0  501  502  0.00000000000E+00  0.00000000000E+00  0.18177672827E+03  0.18177672827E+03  0.00000000000E+00 0. -1.
          1   -1    0    0  502    0 -0.00000000000E+00 -0.00000000000E+00 -0.44331026868E+03  0.44331026868E+03  0.00000000000E+00 0. -1.
         23    2    1    2    0    0  0.41478821859E+01  0.26417260266E+02 -0.37299315229E+03  0.38473041076E+03  0.90435174227E+02 0.  0.
         23    2    1    2    0    0 -0.36072980330E+02 -0.26128281169E+01 -0.22989154889E+02  0.10013414231E+03  0.90500046592E+02 0.  0.
        -11    1    4    4    0    0 -0.36144571721E+02 -0.38568025735E+02  0.69933669616E+01  0.53318194413E+02  0.00000000000E+00 0.  1.
         11    1    4    4    0    0  0.71591390825E-01  0.35955197618E+02 -0.29982521850E+02  0.46815947898E+02  0.00000000000E+00 0. -1.
        -13    1    3    3    0    0 -0.25409874731E+02 -0.22813883995E+02 -0.97240525967E+02  0.10306238367E+03  0.00000000000E+00 0.  1.
         13    1    3    3    0    0  0.29557756917E+02  0.49231144262E+02 -0.27575262633E+03  0.28166802709E+03  0.00000000000E+00 0. -1.
          1    1    1    2  501    0  0.31925098144E+02 -0.23804432149E+02  0.13444876677E+03  0.14022244388E+03  0.00000000000E+00 0. -1.
<scales pt_clust_5="13000.00000" pt_clust_6="13000.00000" pt_clust_7="13000.00000" pt_clust_8="13000.00000" pt_clust_9="39.82289"></scales>
<clustering>
<clus scale="   39.823">  1  9  2 -1</clus>
<clus scale="   90.435">  7  8 -1 -1</clus>
<clus scale="   90.500">  5  6 -1 -1</clus>
<clus scale="   93.756">  2  7  1 -1</clus>
<clus scale="   39.823">  1  5  2 -1</clus>
</clustering>
</event>
<event>
 9    1  0.1636528E-005  0.1023951E+03  0.7546771E-02  0.1275375E+00
         -1   -1    0    0    0  501 -0.00000000000E+00  0.00000000000E+00  0.34976256236E+03  0.34976256236E+03  0.00000000000E+00 0.  1.
         21   -1    0    0  501  502  0.00000000000E+00 -0.00000000000E+00 -0.95236223518E+02  0.95236223518E+02  0.00000000000E+00 0.  1.
         23    2    1    2    0    0  0.34784047904E+02  0.35345150694E+02  0.18880928106E+03  0.21617731871E+03  0.92868072256E+02 0.  0.
         23    2    1    2    0    0 -0.43157106892E+02  0.13266448078E+01  0.12317636068E+03  0.16014468658E+03  0.92787978456E+02 0.  0.
        -11    1    3    3    0    0 -0.14640082084E+02 -0.18488567256E+02  0.91447142629E+02  0.94439075692E+02  0.00000000000E+00 0. -1.
         11    1    3    3    0    0  0.49424129989E+02  0.53833717950E+02  0.97362138433E+02  0.12173824302E+03  0.00000000000E+00 0.  1.
        -13    1    4    4    0    0  0.29247614784E+01  0.21535521712E+02  0.10407945941E+03  0.10632434715E+03  0.00000000000E+00 0.  1.
         13    1    4    4    0    0 -0.46081868371E+02 -0.20208876905E+02  0.19096901275E+02  0.53820339432E+02  0.00000000000E+00 0. -1.
         -1    1    1    2    0  502  0.83730589879E+01 -0.36671795501E+02 -0.57459302902E+02  0.68676780589E+02  0.00000000000E+00 0.  1.
<scales pt_clust_5="13000.00000" pt_clust_6="13000.00000" pt_clust_7="13000.00000" pt_clust_8="13000.00000" pt_clust_9="37.61554"></scales>
<clustering>
<clus scale="   37.616">  2  9  1 -1</clus>
<clus scale="   92.788">  7  8 -1 -1</clus>
<clus scale="   92.868">  5  6 -1 -1</clus>
<clus scale="  102.322">  2  7  1 -1</clus>
<clus scale="   37.616">  2  5  1 -1</clus>
</clustering>
</event>
<event>
 9    1  0.1636528E-005  0.1612454E+03  0.7546771E-02  0.1195022E+00
         -1   -1    0    0    0  501 -0.00000000000E+00  0.00000000000E+00  0.63742810317E+02  0.63742810317E+02  0.00000000000E+00 0.  1.
         21   -1    0    0  501  502  0.00000000000E+00 -0.00000000000E+00 -0.42855649906E+03  0.42855649906E+03  0.00000000000E+00 0. -1.
         23    2    1    2    0    0  0.84490752517E+02  0.71632360117E+02 -0.15611047897E+03  0.21163910525E+03  0.90281487303E+02 0.  0.
         23    2    1    2    0    0 -0.68377311711E+02 -0.58723589233E+02 -0.20933596558E+03  0.26000397697E+03  0.12512635560E+03 0.  0.
        -11    1    4    4    0    0 -0.76866530112E+02  0.14986345233E+02 -0.12666531277E+03  0.14891996325E+03  0.00000000000E+00 0.  1.
         11    1    4    4    0    0  0.84892184017E+01 -0.73709934466E+02 -0.82670652819E+02  0.11108401373E+03  0.00000000000E+00 0. -1.
        -13    1    3    3    0    0  0.27642344227E+02 -0.20533062219E+02 -0.33231648131E+02  0.47854448863E+02  0.00000000000E+00 0. -1.
         13    1    3    3    0    0  0.56848408290E+02  0.92165422335E+02 -0.12287883084E+03  0.16378465639E+03  0.00000000000E+00 0.  1.
         -1    1    1    2    0  502 -0.16113440807E+02 -0.12908770884E+02  0.63275581249E+00  0.20656227155E+02  0.00000000000E+00 0.  1.
<scales pt_clust_5="13000.00000" pt_clust_6="13000.00000" pt_clust_7="13000.00000" pt_clust_8="13000.00000" pt_clust_9="20.64654"></scales>
<clustering>
<clus scale="   20.647">  2  9  1 -1</clus>
<clus scale="   90.281">  7  8 -1 -1</clus>
<clus scale="  125.126">  5  6 -1 -1</clus>
<clus scale="  135.993">  1  7  2 -1</clus>
<clus scale="   20.647">  2  5  1 -1</clus>
</clustering>
</event>
<event>
 9    1  0.1636528E-005  0.1287977E+03  0.7546771E-02  0.1229301E+00
          2   -1    0    0  502    0 -0.00000000000E+00  0.00000000000E+00  0.97267421912E+03  0.97267421912E+03  0.00000000000E+00 0. -1.
         21   -1    0    0  501  502  0.00000000000E+00 -0.00000000000E+00 -0.21532804229E+02  0.21532804229E+02  0.00000000000E+00 0.  1.
         23    2    1    2    0    0  0.88916988766E+02 -0.52462323561E+02  0.49015290646E+03  0.50910993792E+03  0.91019398428E+02 0.  0.
         23    2    1    2    0    0 -0.58803055568E+02  0.53292138929E+02  0.36938470683E+03  0.38866683067E+03  0.91208509504E+02 0.  0.
        -13    1    3    3    0    0  0.33154426743E+01 -0.51524477444E+02  0.16605178575E+03  0.17389352917E+03  0.00000000000E+00 0.  1.
         13    1    3    3    0    0  0.85601546091E+02 -0.93784611711E+00  0.32410112071E+03  0.33521640875E+03  0.00000000000E+00 0. -1.
        -13    1    4    4    0    0 -0.18510487792E+02 -0.25409932021E+02  0.12090070254E+03  0.12492110582E+03  0.00000000000E+00 0.  1.
         13    1    4    4    0    0 -0.40292567776E+02  0.78702070950E+02  0.24848400428E+03  0.26374572485E+03  0.00000000000E+00 0. -1.
          2    1    1    2  501    0 -0.30113933198E+02 -0.82981536784E+00  0.91603801596E+02  0.96430254759E+02  0.00000000000E+00 0. -1.
<scales pt_clust_5="13000.00000" pt_clust_6="13000.00000" pt_clust_7="13000.00000" pt_clust_8="13000.00000" pt_clust_9="30.12536"></scales>
<clustering>
<clus scale="   30.125">  2  9  1 -1</clus>
<clus scale="   91.019">  5  6 -1 -1</clus>
<clus scale="   91.209">  7  8 -1 -1</clus>
<clus scale="  128.664">  1  5  2 -1</clus>
<clus scale="   30.125">  2  5  1 -1</clus>
</clustering>
</event>
<event>
 9    1  0.1636528E-005  0.1479547E+03  0.7546771E-02  0.1203473E+00
         21   -1    0    0  501  502  0.00000000000E+00  0.00000000000E+00  0.28298173925E+02  0.28298173925E+02  0.00000000000E+00 0. -1.
          2   -1    0    0  502    0 -0.00000000000E+00 -0.00000000000E+00 -0.11596574486E+04  0.11596574486E+04  0.00000000000E+00 0. -1.
         23    2    1    2    0    0  0.67039641779E+02  0.96871565915E+02 -0.65876840347E+03  0.67460134910E+03  0.85045616864E+02 0.  0.
         23    2    1    2    0    0 -0.96236926709E+02 -0.85144599782E+02 -0.44835894586E+03  0.47364042965E+03  0.82452188135E+02 0.  0.
        -13    1    4    4    0    0 -0.95208753101E+00 -0.50728156796E+02 -0.12998701699E+03  0.13953808422E+03  0.00000000000E+00 0.  1.
         13    1    4    4    0    0 -0.95284839178E+02 -0.34416442986E+02 -0.31837192888E+03  0.33410234543E+03  0.00000000000E+00 0. -1.
        -13    1    3    3    0    0  0.24524514568E+02  0.98904854640E+02 -0.49604992727E+03  0.50640808882E+03  0.00000000000E+00 0. -1.
         13    1    3    3    0    0  0.42515127211E+02 -0.20332887252E+01 -0.16271847620E+03  0.16819326027E+03  0.00000000000E+00 0.  1.
          2    1    1    2  501    0  0.29197284930E+02 -0.11726966133E+02 -0.24231925359E+02  0.39713843790E+02  0.00000000000E+00 0. -1.
<scales pt_clust_5="13000.00000" pt_clust_6="13000.00000" pt_clust_7="13000.00000" pt_clust_8="13000.00000" pt_clust_9="31.46432"></scales>
<clustering>
<clus scale="   31.464">  1  9  2 -1</clus>
<clus scale="   82.452">  5  6 -1 -1</clus>
<clus scale="   85.046">  7  8 -1 -1</clus>
<clus scale="  146.479">  1  5  2 -1</clus>
<clus scale="   31.464">  1  5  2 -1</clus>
</clustering>
</event>
<event>
 9    1  0.2263062E-005  0.1345916E+03  0.7546771E-02  0.1221183E+00
          1   -1    0    0  502    0 -0.00000000000E+00  0.00000000000E+00  0.83312484408E+03  0.83312484408E+03  0.00000000000E+00 0. -1.
         21   -1    0    0  501  502  0.00000000000E+00 -0.00000000000E+00 -0.11593918513E+03  0.11593918513E+03  0.00000000000E+00 0. -1.
         23    2    1    2    0    0 -0.95441456422E+02  0.15837610684E+02  0.67918693946E+03  0.69227359180E+03  0.92671061582E+02 0.  0.
         23    2    1    2    0    0  0.11830430728E+03  0.51505050727E+02 -0.27247344281E+02  0.16027726301E+03  0.91091733420E+02 0.  0.
        -11    1    4    4    0    0  0.65696076725E+02  0.72817971040E+02 -0.18451788815E+01  0.98090958241E+02  0.00000000000E+00 0.  1.
         11    1    4    4    0    0  0.52608230556E+02 -0.21312920313E+02 -0.25402165400E+02  0.62186304774E+02  0.00000000000E+00 0. -1.
        -13    1    3    3    0    0 -0.30233438687E+02  0.51416071713E+02  0.31097496332E+03  0.31664349205E+03  0.00000000000E+00 0.  1.
         13    1    3    3    0    0 -0.65208017735E+02 -0.35578461028E+02  0.36821197615E+03  0.37563009976E+03  0.00000000000E+00 0. -1.
          1    1    1    2  501    0 -0.22862850858E+02 -0.67342661412E+02  0.65246063768E+02  0.96513174399E+02  0.00000000000E+00 0. -1.
<scales pt_clust_5="13000.00000" pt_clust_6="13000.00000" pt_clust_7="13000.00000" pt_clust_8="13000.00000" pt_clust_9="71.11782"></scales>
<clustering>
<clus scale="   71.118">  2  9  1 -1</clus>
<clus scale="   91.092">  5  6 -1 -1</clus>
<clus scale="   92.671">  7  8 -1 -1</clus>
<clus scale="  133.509">  2  5  1 -1</clus>
<clus scale="   71.118">  2  5  1 -1</clus>
</clustering>
</event>
<event>
 9    1  0.1636528E-005  0.9250018E+02  0.7546771E-02  0.1297203E+00
         21   -1    0    0  501  502  0.00000000000E+00  0.00000000000E+00  0.57743522867E+02  0.57743522867E+02  0.00000000000E+00 0.  1.
          1   -1    0    0  502    0 -0.00000000000E+00 -0.00000000000E+00 -0.32004948762E+03  0.32004948762E+03  0.00000000000E+00 0. -1.
         23    2    1    2    0    0  0.12760491424E+02 -0.63896284163E+01 -0.19063490472E+03  0.21213705304E+03  0.91960887790E+02 0.  0.
         23    2    1    2    0    0  0.89515293936E+01  0.12753995754E+02 -0.95260178606E+02  0.13297012665E+03  0.91453587504E+02 0.  0.
        -11    1    3    3    0    0  0.20671369387E+02  0.25132143040E+02 -0.19484910163E+02  0.37928773381E+02  0.00000000000E+00 0.  1.
         11    1    3    3    0    0 -0.79108779623E+01 -0.31521771456E+02 -0.17114999455E+03  0.17420827966E+03  0.00000000000E+00 0. -1.
        -13    1    4    4    0    0 -0.36782036554E+02  0.21335729716E+02 -0.27038993194E+02  0.50390859573E+02  0.00000000000E+00 0. -1.
         13    1    4    4    0    0  0.45733565947E+02 -0.85817339625E+01 -0.68221185412E+02  0.82579267078E+02  0.00000000000E+00 0.  1.
          1    1    1    2  501    0 -0.21712020818E+02 -0.63643673373E+01  0.23589118573E+02  0.32685830794E+02  0.00000000000E+00 0. -1.
<scales pt_clust_5="13000.00000" pt_clust_6="13000.00000" pt_clust_7="13000.00000" pt_clust_8="13000.00000" pt_clust_9="22.62558"></scales>
<clustering>
<clus scale="   22.626">  1  9  2 -1</clus>
<clus scale="   91.454">  7  8 -1 -1</clus>
<clus scale="   91.961">  5  6 -1 -1</clus>
<clus scale="   91.996">  1  7  2 -1</clus>
<clus scale="   22.626">  1  5  2 -1</clus>
</clustering>
</event>
<event>
 9    1  0.1636528E-005  0.1155526E+03  0.7546771E-02  0.1252868E+00
         -2   -1    0    0    0  501 -0.00000000000E+00  0.00000000000E+00  0.33295062868E+03  0.33295062868E+03  0.00000000000E+00 0.  1.
         21   -1    0    0  501  502  0.00000000000E+00 -0.00000000000E+00 -0.21267794603E+03  0.21267794603E+03  0.00000000000E+00 0.  1.
         23    2    1    2    0    0  0.67748676346E+02  0.26025405148E+01  0.28423417776E+03  0.30753242278E+03  0.95866922818E+02 0.  0.
         23    2    1    2    0    0 -0.44846499319E+02 -0.84845645275E+00 -0.33665164766E+02  0.10579074681E+03  0.89701786005E+02 0.  0.
        -11    1    4    4    0    0 -0.69104241363E+02  0.89693681681E+01 -0.97925746715E+01  0.70368602788E+02  0.00000000000E+00 0. -1.
         11    1    4    4    0    0  0.24257742044E+02 -0.98178246209E+01 -0.23872590095E+02  0.35422144023E+02  0.00000000000E+00 0.  1.
        -11    1    3    3    0    0  0.69985782161E+02 -0.31420981920E+02  0.14341734034E+03  0.16264630743E+03  0.00000000000E+00 0.  1.
         11    1    3    3    0    0 -0.22371058149E+01  0.34023522434E+02  0.14081683742E+03  0.14488611535E+03  0.00000000000E+00 0. -1.
         -2    1    1    2    0  502 -0.22902177028E+02 -0.17540840621E+01 -0.13029633034E+03  0.13230540512E+03  0.00000000000E+00 0.  1.
<scales pt_clust_5="13000.00000" pt_clust_6="13000.00000" pt_clust_7="13000.00000" pt_clust_8="13000.00000" pt_clust_9="22.96925"></scales>
<clustering>
<clus scale="   22.969">  2  9  1 -1</clus>
<clus scale="   89.702">  5  6 -1 -1</clus>
<clus scale="   95.867">  7  8 -1 -1</clus>
<clus scale="  110.491">  2  5  1 -1</clus>
<clus scale="   22.969">  2  5  1 -1</clus>
</clustering>
</event>
<event>
 9    1  0.1636528E-005  0.1152842E+03  0.7546771E-02  0.1251992E+00
         21   -1    0    0  501  502  0.00000000000E+00  0.00000000000E+00  0.47989036607E+03  0.47989036607E+03  0.00000000000E+00 0. -1.
          2   -1    0    0  502    0 -0.00000000000E+00 -0.00000000000E+00 -0.49832365460E+02  0.49832365460E+02  0.00000000000E+00 0. -1.
         23    2    1    2    0    0  0.43103831368E+02  0.73319708320E+02  0.71540187617E+02  0.14149603089E+03  0.87575158620E+02 0.  0.
         23    2    1    2    0    0 -0.29797276127E+02 -0.26068959194E+02  0.26262226609E+03  0.28049716142E+03  0.90226019621E+02 0.  0.
        -11    1    3    3    0    0  0.68238387671E+02  0.38455719106E+02  0.53658460513E+02  0.94944985483E+02  0.00000000000E+00 0.  1.
         11    1    3    3    0    0 -0.25134556303E+02  0.34863989214E+02  0.17881727105E+02  0.46551045410E+02  0.00000000000E+00 0. -1.
        -13    1    4    4    0    0 -0.76390490763E+01  0.33042183818E+02  0.69770166985E+02  0.77575880165E+02  0.00000000000E+00 0.  1.
         13    1    4    4    0    0 -0.22158227051E+02 -0.59111143012E+02  0.19285209911E+03  0.20292128125E+03  0.00000000000E+00 0. -1.
          2    1    1    2  501    0 -0.13306555241E+02 -0.47250749126E+02  0.95895546895E+02  0.10772953922E+03  0.00000000000E+00 0. -1.
<scales pt_clust_5="13000.00000" pt_clust_6="13000.00000" pt_clust_7="13000.00000" pt_clust_8="13000.00000" pt_clust_9="49.08867"></scales>
<clustering>
<clus scale="   49.089">  1  9  2 -1</clus>
<clus scale="   87.575">  5  6 -1 -1</clus>
<clus scale="   90.226">  7  8 -1 -1</clus>
<clus scale="  113.222">  2  5  1 -1</clus>
<clus scale="   49.089">  1  5  2 -1</clus>
</clustering>
</event>
<event>
 9    1  0.1636528E-005  0.1287455E+03  0.7546771E-02  0.1230100E+00
         -2   -1    0    0    0  501 -0.00000000000E+00  0.00000000000E+00  0.50282552973E+03  0.50282552973E+03  0.00000000000E+00 0.  1.
         21   -1    0    0  501  502  0.00000000000E+00 -0.00000000000E+00 -0.13152518844E+03  0.13152518844E+03  0.00000000000E+00 0.  1.
         23    2    1    2    0    0 -0.80047971509E+02 -0.54157882040E+02  0.33253823795E+03  0.35809055242E+03  0.91139509025E+02 0.  0.
         23    2    1    2    0    0  0.58725733059E+02  0.56406867181E+02  0.13325163577E+03  0.17936864123E+03  0.88242079721E+02 0.  0.
        -11    1    4    4    0    0  0.32344700055E+02 -0.17589979106E+02  0.67652859151E+02  0.77022700147E+02  0.00000000000E+00 0.  1.
         11    1    4    4    0    0  0.26381033004E+02  0.73996846286E+02  0.65598776616E+02  0.10234594108E+03  0.00000000000E+00 0. -1.
        -13    1    3    3    0    0 -0.55488311448E+02 -0.16233279498E+02  0.29109249346E+03  0.29677821992E+03  0.00000000000E+00 0.  1.
         13    1    3    3    0    0 -0.24559660061E+02 -0.37924602542E+02  0.41445744487E+02  0.61312332498E+02  0.00000000000E+00 0. -1.
         -2    1    1    2    0  502  0.21322238450E+02 -0.22489851401E+01 -0.94489532427E+02  0.96891524526E+02  0.00000000000E+00 0.  1.
<scales pt_clust_5="13000.00000" pt_clust_6="13000.00000" pt_clust_7="13000.00000" pt_clust_8="13000.00000" pt_clust_9="21.44052"></scales>
<clustering>
<clus scale="   21.441">  2  9  1 -1</clus>
<clus scale="   88.242">  5  6 -1 -1</clus>
<clus scale="   91.140">  7  8 -1 -1</clus>
<clus scale="  126.711">  2  5  1 -1</clus>
<clus scale="   21.441">  2  5  1 -1</clus>
</clustering>
</event>
<event>
 9    1  0.1636528E-005  0.1625276E+03  0.7546771E-02  0.1187209E+00
          1   -1    0    0  502    0 -0.00000000000E+00  0.00000000000E+00  0.99107539845E+03  0.99107539845E+03  0.00000000000E+00 0. -1.
         21   -1    0    0  501  502  0.00000000000E+00 -0.00000000000E+00 -0.43437242113E+02  0.43437242113E+02  0.00000000000E+00 0. -1.
         23    2    1    2    0    0  0.88556845863E+02  0.66406638289E+02  0.50048377393E+03  0.52222617741E+03  0.99920047261E+02 0.  0.
         23    2    1    2    0    0 -0.11777513322E+03 -0.11605893255E+03  0.37429433520E+03  0.41940134529E+03  0.91981417889E+02 0.  0.
        -13    1    4    4    0    0 -0.72789623642E+02 -0.10061460824E+02  0.13003029806E+03  0.14935675651E+03  0.00000000000E+00 0.  1.
         13    1    4    4    0    0 -0.44985509583E+02 -0.10599747173E+03  0.24426403714E+03  0.27004458877E+03  0.00000000000E+00 0. -1.
        -13    1    3    3    0    0  0.94377794400E+01  0.53395006422E+02  0.32234670171E+03  0.32687535009E+03  0.00000000000E+00 0. -1.
         13    1    3    3    0    0  0.79119066423E+02  0.13011631867E+02  0.17813707222E+03  0.19535082732E+03  0.00000000000E+00 0.  1.
          1    1    1    2  501    0  0.29218287361E+02  0.49652294263E+02  0.72860047208E+02  0.92885117866E+02  0.00000000000E+00 0. -1.
<scales pt_clust_5="13000.00000" pt_clust_6="13000.00000" pt_clust_7="13000.00000" pt_clust_8="13000.00000" pt_clust_9="57.61127"></scales>
<clustering>
<clus scale="   57.611">  2  9  1 -1</clus>
<clus scale="   91.981">  5  6 -1 -1</clus>
<clus scale="   99.920">  7  8 -1 -1</clus>
<clus scale="  157.771">  2  5  1 -1</clus>
<clus scale="   57.611">  2  5  1 -1</clus>
</clustering>
</event>
<event>
 9    1  0.1636528E-005  0.1666058E+03  0.7546771E-02  0.1207829E+00
         21   -1    0    0  501  502  0.00000000000E+00  0.00000000000E+00  0.19456009633E+03  0.19456009633E+03  0.00000000000E+00 0.  1.
         -3   -1    0    0    0  501 -0.00000000000E+00 -0.00000000000E+00 -0.31864625280E+03  0.31864625280E+03  0.00000000000E+00 0.  1.
         23    2    1    2    0    0  0.26288822447E+02  0.83677113600E+01 -0.82512715497E+02  0.12463577275E+03  0.89244646061E+02 0.  0.
         23    2    1    2    0    0 -0.26079547017E+01 -0.14772935961E+03 -0.13578149839E+03  0.21869529689E+03  0.86949712252E+02 0.  0.
        -11    1    3    3    0    0 -0.33133061160E+02 -0.23661198760E+00 -0.33642438663E+02  0.47219375327E+02  0.00000000000E+00 0.  1.
         11    1    3    3    0    0  0.59421883608E+02  0.86043233476E+01 -0.48870276834E+02  0.77416397421E+02  0.00000000000E+00 0. -1.
        -13    1    4    4    0    0  0.21086971511E+02 -0.51026778213E+02 -0.97458177270E+02  0.11201111007E+03  0.00000000000E+00 0. -1.
         13    1    4    4    0    0 -0.23694926213E+02 -0.96702581392E+02 -0.38323321117E+02  0.10668418682E+03  0.00000000000E+00 0.  1.
         -3    1    1    2    0  502 -0.23680867746E+02  0.13936164825E+03  0.94208057411E+02  0.16987527948E+03  0.00000000000E+00 0.  1.
<scales pt_clust_5="13000.00000" pt_clust_6="13000.00000" pt_clust_7="13000.00000" pt_clust_8="13000.00000" pt_clust_9="142.11705"></scales>
<clustering>
<clus scale="   86.950">  7  8 -1 -1</clus>
<clus scale="   89.245">  5  6 -1 -1</clus>
<clus scale="   93.412">  2  5  1 -1</clus>
<clus scale="  142.117">  1  9  2 -1</clus>
<clus scale="  142.117">  1  5  2 -1</clus>
</clustering>
</event>
<event>
 9    1  0.1636528E-005  0.1127607E+03  0.7546771E-02  0.1255607E+00
         21   -1    0    0  501  502  0.00000000000E+00  0.00000000000E+00  0.51229356562E+02  0.51229356562E+02  0.00000000000E+00 0. -1.
         -4   -1    0    0    0  501 -0.00000000000E+00 -0.00000000000E+00 -0.30609824206E+03  0.30609824206E+03  0.00000000000E+00 0.  1.
         23    2    1    2    0    0 -0.67475948917E+02  0.82334065561E+01 -0.14860864423E+03  0.18762306318E+03  0.92179672552E+02 0.  0.
         23    2    1    2    0    0  0.61463697225E+02  0.11914686560E+02 -0.88582228890E+02  0.14223446176E+03  0.92000461973E+02 0.  0.
        -13    1    3    3    0    0 -0.26795465234E+02 -0.41647426054E+02 -0.74582535560E+02  0.89526865602E+02  0.00000000000E+00 0.  1.
         13    1    3    3    0    0 -0.40680483683E+02  0.49880832610E+02 -0.74026108675E+02  0.98096197583E+02  0.00000000000E+00 0. -1.
        -13    1    4    4    0    0 -0.13591158089E+02 -0.19554393267E+02 -0.27825197886E+01  0.23975743797E+02  0.00000000000E+00 0. -1.
         13    1    4    4    0    0  0.75054855314E+02  0.31469079827E+02 -0.85799709102E+02  0.11825871796E+03  0.00000000000E+00 0.  1.
         -4    1    1    2    0  502  0.60122516919E+01 -0.20148093116E+02 -0.17678012372E+02  0.27470073681E+02  0.00000000000E+00 0.  1.
<scales pt_clust_5="13000.00000" pt_clust_6="13000.00000" pt_clust_7="13000.00000" pt_clust_8="13000.00000" pt_clust_9="21.02600"></scales>
<clustering>
<clus scale="   21.026">  1  9  2 -1</clus>
<clus scale="   92.000">  7  8 -1 -1</clus>
<clus scale="   92.180">  5  6 -1 -1</clus>
<clus scale="  112.614">  1  7  2 -1</clus>
<clus scale="   21.026">  1  5  2 -1</clus>
</clustering>
</event>
<event>
 9    1  0.1636528E-005  0.1100603E+03  0.7546771E-02  0.1262560E+00
          2   -1    0    0  502    0 -0.00000000000E+00  0.00000000000E+00  0.56704644707E+03  0.56704644707E+03  0.00000000000E+00 0. -1.
         21   -1    0    0  501  502  0.00000000000E+00 -0.00000000000E+00 -0.27931576444E+02  0.27931576444E+02  0.00000000000E+00 0. -1.
         23    2    1    2    0    0 -0.35854536579E+00  0.61760272898E+02  0.24644572572E+03  0.27043306856E+03  0.92650358772E+02 0.  0.
         23    2    1    2    0    0 -0.21011789513E+02 -0.36778158928E+02  0.20683984048E+03  0.23263485361E+03  0.97683812537E+02 0.  0.
        -11    1    4    4    0    0  0.40122564295E+01 -0.51934086896E+02  0.19366791962E+03  0.20055051901E+03  0.00000000000E+00 0.  1.
         11    1    4    4    0    0 -0.25024045942E+02  0.15155927969E+02  0.13171920861E+02  0.32084334605E+02  0.00000000000E+00 0. -1.
        -11    1    3    3    0    0  0.42019840199E+02  0.53719327841E+02  0.15296220735E+03  0.16747796880E+03  0.00000000000E+00 0. -1.
         11    1    3    3    0    0 -0.42378385565E+02  0.80409450569E+01  0.93483518373E+02  0.10295509977E+03  0.00000000000E+00 0.  1.
          2    1    1    2  501    0  0.21370334878E+02 -0.24982113971E+02  0.85829304422E+02  0.91910101343E+02  0.00000000000E+00 0. -1.
<scales pt_clust_5="13000.00000" pt_clust_6="13000.00000" pt_clust_7="13000.00000" pt_clust_8="13000.00000" pt_clust_9="32.87550"></scales>
<clustering>
<clus scale="   32.875">  2  9  1 -1</clus>
<clus scale="   92.650">  7  8 -1 -1</clus>
<clus scale="   97.684">  5  6 -1 -1</clus>
<clus scale="  105.618">  1  7  2 -1</clus>
<clus scale="   32.875">  2  5  1 -1</clus>
</clustering>
</event>
<event>
 9    1  0.1636528E-005  0.1547454E+03  0.7546771E-02  0.1195321E+00
          3   -1    0    0  502    0 -0.00000000000E+00  0.00000000000E+00  0.20183150536E+03  0.20183150536E+03  0.00000000000E+00 0. -1.
         21   -1    0    0  501  502  0.00000000000E+00 -0.00000000000E+00 -0.33392883892E+03  0.33392883892E+03  0.00000000000E+00 0. -1.
         23    2    1    2    0    0 -0.13282999102E+03  0.26707673892E+02  0.13303978398E+03  0.21013840417E+03  0.90008102002E+02 0.  0.
         23    2    1    2    0    0  0.76412996383E+02  0.56803003817E+00 -0.13358063502E+03  0.17990320624E+03  0.93177834749E+02 0.  0.
        -11    1    4    4    0    0 -0.41265460887E+01  0.33127942656E+02 -0.32030583763E+02  0.46264967993E+02  0.00000000000E+00 0. -1.
         11    1    4    4    0    0  0.80539542472E+02 -0.32559912617E+02 -0.10155005126E+03  0.13363823825E+03  0.00000000000E+00 0.  1.
        -11    1    3    3    0    0 -0.67364054186E+02 -0.27320132824E+01  0.11933232575E+03  0.13706051095E+03  0.00000000000E+00 0. -1.
         11    1    3    3    0    0 -0.65465936832E+02  0.29439687175E+02  0.13707458233E+02  0.73077893220E+02  0.00000000000E+00 0.  1.
          3    1    1    2  501    0  0.56416994636E+02 -0.27275703930E+02 -0.13155648252E+03  0.14571873387E+03  0.00000000000E+00 0. -1.
<scales pt_clust_5="13000.00000" pt_clust_6="13000.00000" pt_clust_7="13000.00000" pt_clust_8="13000.00000" pt_clust_9="62.66451"></scales>
<clustering>
<clus scale="   62.665">  2  9  1 -1</clus>
<clus scale="   90.008">  7  8 -1 -1</clus>
<clus scale="   93.178">  5  6 -1 -1</clus>
<clus scale="  152.858">  1  7  2 -1</clus>
<clus scale="   62.665">  2  5  1 -1</clus>
</clustering>
</event>
<event>
 9    1  0.1636528E-005  0.9536996E+02  0.7546771E-02  0.1293711E+00
         -2   -1    0    0    0  501 -0.00000000000E+00  0.00000000000E+00  0.20258165358E+03  0.20258165358E+03  0.00000000000E+00 0.  1.
         21   -1    0    0  501  502  0.00000000000E+00 -0.00000000000E+00 -0.14520064138E+03  0.14520064138E+03  0.00000000000E+00 0.  1.
         23    2    1    2    0    0 -0.21948204907E+02  0.24126909139E+02  0.97611078092E+02  0.13582000171E+03  0.88630236682E+02 0.  0.
         23    2    1    2    0    0 -0.11857974511E+02  0.12323529056E+02  0.50503119571E+02  0.10850214074E+03  0.94496923399E+02 0.  0.
        -11    1    4    4    0    0 -0.32013460330E+00 -0.20227586309E+02 -0.20960782740E+02  0.29130948270E+02  0.00000000000E+00 0. -1.
         11    1    4    4    0    0 -0.11537839908E+02  0.32551115364E+02  0.71463902311E+02  0.79371192474E+02  0.00000000000E+00 0.  1.
        -13    1    3    3    0    0 -0.52688232060E+02  0.16880646197E+02  0.85820014135E+02  0.10210818204E+03  0.00000000000E+00 0.  1.
         13    1    3    3    0    0  0.30740027153E+02  0.72462629416E+01  0.11791063958E+02  0.33711819667E+02  0.00000000000E+00 0. -1.
         -2    1    1    2    0  502  0.33806179418E+02 -0.36450438194E+02 -0.90733185469E+02  0.10346015251E+03  0.00000000000E+00 0.  1.
<scales pt_clust_5="13000.00000" pt_clust_6="13000.00000" pt_clust_7="13000.00000" pt_clust_8="13000.00000" pt_clust_9="49.71410"></scales>
<clustering>
<clus scale="   49.714">  2  9  1 -1</clus>
<clus scale="   88.630">  7  8 -1 -1</clus>
<clus scale="   89.560">  1  7  2 -1</clus>
<clus scale="   94.497">  5  6 -1 -1</clus>
<clus scale="   49.714">  2  5  1 -1</clus>
</clustering>
</event>
<event>
 9    1  0.1636528E-005  0.1389768E+03  0.7546771E-02  0.1214792E+00
         21   -1    0    0  501  502  0.00000000000E+00  0.00000000000E+00  0.11229485887E+03  0.11229485887E+03  0.00000000000E+00 0.  1.
          3   -1    0    0  502    0 -0.00000000000E+00 -0.00000000000E+00 -0.36775567394E+03  0.36775567394E+03  0.00000000000E+00 0. -1.
         23    2    1    2    0    0  0.91688469846E+02 -0.59432167338E+02 -0.28963759374E+03  0.32284571885E+03  0.91654047661E+02 0.  0.
         23    2    1    2    0    0 -0.66988572406E+02  0.51232488528E+02  0.15677510656E+02  0.12527453706E+03  0.91299992230E+02 0.  0.
        -13    1    4    4    0    0 -0.40784378473E+02  0.70933577350E+02  0.32962869345E+02  0.88212746689E+02  0.00000000000E+00 0.  1.
         13    1    4    4    0    0 -0.26204193933E+02 -0.19701088822E+02 -0.17285358688E+02  0.37061790370E+02  0.00000000000E+00 0. -1.
        -13    1    3    3    0    0  0.61980151361E+02 -0.53046688168E+02 -0.27894899786E+03  0.29063384816E+03  0.00000000000E+00 0. -1.
         13    1    3    3    0    0  0.29708318485E+02 -0.63854791702E+01 -0.10688595883E+02  0.32211870691E+02  0.00000000000E+00 0.  1.
          3    1    1    2  501    0 -0.24699897441E+02  0.81996788102E+01  0.18499268018E+02  0.31930276907E+02  0.00000000000E+00 0. -1.
<scales pt_clust_5="13000.00000" pt_clust_6="13000.00000" pt_clust_7="13000.00000" pt_clust_8="13000.00000" pt_clust_9="26.02537"></scales>
<clustering>
<clus scale="   26.025">  1  9  2 -1</clus>
<clus scale="   91.300">  5  6 -1 -1</clus>
<clus scale="   91.654">  7  8 -1 -1</clus>
<clus scale="  138.744">  1  5  2 -1</clus>
<clus scale="   26.025">  1  5  2 -1</clus>
</clustering>
</event>
<event>
 9    1  0.1636528E-005  0.9284319E+02  0.7546771E-02  0.1297164E+00
         21   -1    0    0  501  502  0.00000000000E+00  0.00000000000E+00  0.32251987313E+03  0.32251987313E+03  0.00000000000E+00 0. -1.
          3   -1    0    0  502    0 -0.00000000000E+00 -0.00000000000E+00 -0.63368670433E+02  0.63368670433E+02  0.00000000000E+00 0. -1.
         23    2    1    2    0    0  0.21639412884E+01  0.58330928087E+01 -0.16173561057E+01  0.90953672906E+02  0.90726220911E+02 0.  0.
         23    2    1    2    0    0 -0.26560072476E+02  0.15037088500E+02  0.14424288639E+03  0.17406730671E+03  0.92530349121E+02 0.  0.
        -11    1    4    4    0    0 -0.21400035644E+02 -0.24424909570E+02  0.98935865966E+01  0.33947323736E+02  0.00000000000E+00 0. -1.
         11    1    4    4    0    0 -0.51600368317E+01  0.39461998071E+02  0.13434929980E+03  0.14011998297E+03  0.00000000000E+00 0.  1.
        -13    1    3    3    0    0  0.38025524647E+02  0.29364966837E+02 -0.53791669869E+00  0.48047176362E+02  0.00000000000E+00 0.  1.
         13    1    3    3    0    0 -0.35861583359E+02 -0.23531874028E+02 -0.10794394070E+01  0.42906496544E+02  0.00000000000E+00 0. -1.
          3    1    1    2  501    0  0.24396131188E+02 -0.20870181309E+02  0.11652567241E+03  0.12086756395E+03  0.00000000000E+00 0. -1.
<scales pt_clust_5="13000.00000" pt_clust_6="13000.00000" pt_clust_7="13000.00000" pt_clust_8="13000.00000" pt_clust_9="32.10507"></scales>
<clustering>
<clus scale="   32.105">  1  9  2 -1</clus>
<clus scale="   90.726">  7  8 -1 -1</clus>
<clus scale="   91.045">  2  7  1 -1</clus>
<clus scale="   92.530">  5  6 -1 -1</clus>
<clus scale="   32.105">  1  5  2 -1</clus>
</clustering>
</event>
<event>
 9    1  0.1636528E-005  0.9892979E+02  0.7546771E-02  0.1284041E+00
          3   -1    0    0  502    0 -0.00000000000E+00  0.00000000000E+00  0.38523796171E+03  0.38523796171E+03  0.00000000000E+00 0. -1.
         21   -1    0    0  501  502  0.00000000000E+00 -0.00000000000E+00 -0.51586369636E+02  0.51586369636E+02  0.00000000000E+00 0. -1.
         23    2    1    2    0    0 -0.73745081897E+01  0.37291038775E+02  0.29722467357E+03  0.31352316025E+03  0.92245652939E+02 0.  0.
         23    2    1    2    0    0 -0.13177478270E+02 -0.28719699104E+02  0.34974065932E+02  0.10098609118E+03  0.89311467764E+02 0.  0.
        -11    1    3    3    0    0  0.21392662591E+02 -0.13205895600E+02  0.26096295711E+02  0.36236146886E+02  0.00000000000E+00 0.  1.
         11    1    3    3    0    0 -0.28767170781E+02  0.50496934374E+02  0.27112837786E+03  0.27728701336E+03  0.00000000000E+00 0. -1.
        -11    1    4    4    0    0  0.26963895605E+02 -0.74747779833E+01 -0.16385979778E+02  0.32425673554E+02  0.00000000000E+00 0.  1.
         11    1    4    4    0    0 -0.40141373876E+02 -0.21244921121E+02  0.51360045709E+02  0.68560417628E+02  0.00000000000E+00 0. -1.
          3    1    1    2  501    0  0.20551986460E+02 -0.85713396705E+01  0.14528525703E+01  0.22315079919E+02  0.00000000000E+00 0. -1.
<scales pt_clust_5="13000.00000" pt_clust_6="13000.00000" pt_clust_7="13000.00000" pt_clust_8="13000.00000" pt_clust_9="22.26773"></scales>
<clustering>
<clus scale="   22.268">  2  9  1 -1</clus>
<clus scale="   89.311">  7  8 -1 -1</clus>
<clus scale="   92.246">  5  6 -1 -1</clus>
<clus scale="   96.200">  2  7  1 -1</clus>
<clus scale="   22.268">  2  5  1 -1</clus>
</clustering>
</event>
<event>
 9    1  0.1636528E-005  0.9408818E+02  0.7546771E-02  0.1295640E+00
          1   -1    0    0  502    0 -0.00000000000E+00  0.00000000000E+00  0.32836466228E+03  0.32836466228E+03  0.00000000000E+00 0. -1.
         21   -1    0    0  501  502  0.00000000000E+00 -0.00000000000E+00 -0.10951041157E+03  0.10951041157E+03  0.00000000000E+00 0.  1.
         23    2    1    2    0    0  0.13794053893E+01 -0.29090205711E+02  0.22626505164E+03  0.24627106870E+03  0.92765418441E+02 0.  0.
         23    2    1    2    0    0 -0.26919555173E+02 -0.46118865987E+02  0.23990050094E+02  0.10619488875E+03  0.88601465243E+02 0.  0.
        -13    1    4    4    0    0  0.30796195748E+02 -0.81590024419E+01  0.18632744674E+02  0.36907372806E+02  0.00000000000E+00 0.  1.
         13    1    4    4    0    0 -0.57715750921E+02 -0.37959863545E+02  0.53573054203E+01  0.69287515947E+02  0.00000000000E+00 0. -1.
        -13    1    3    3    0    0  0.13658107283E+02  0.26195540007E+02  0.30429221624E+02  0.42410938912E+02  0.00000000000E+00 0.  1.
         13    1    3    3    0    0 -0.12278701893E+02 -0.55285745718E+02  0.19583583002E+03  0.20386012979E+03  0.00000000000E+00 0. -1.
          1    1    1    2  501    0  0.25540149783E+02  0.75209071698E+02 -0.31400851025E+02  0.85409116386E+02  0.00000000000E+00 0. -1.
<scales pt_clust_5="13000.00000" pt_clust_6="13000.00000" pt_clust_7="13000.00000" pt_clust_8="13000.00000" pt_clust_9="79.42735"></scales>
<clustering>
<clus scale="   79.427">  2  9  1 -1</clus>
<clus scale="   88.601">  5  6 -1 -1</clus>
<clus scale="   89.985">  2  5  1 -1</clus>
<clus scale="   92.765">  7  8 -1 -1</clus>
<clus scale="   79.427">  2  5  1 -1</clus>
</clustering>
</event>
<event>
 9    1  0.1636528E-005  0.1816433E+03  0.7546771E-02  0.1166650E+00
         21   -1    0    0  501  502  0.00000000000E+00  0.00000000000E+00  0.66438405662E+02  0.66438405662E+02  0.00000000000E+00 0. -1.
          1   -1    0    0  502    0 -0.00000000000E+00 -0.00000000000E+00 -0.61768567914E+03  0.61768567914E+03  0.00000000000E+00 0. -1.
         23    2    1    2    0    0  0.13574616286E+03 -0.29649369297E+02 -0.24404064525E+03  0.29535978291E+03  0.91517533824E+02 0.  0.
         23    2    1    2    0    0 -0.17319638288E+03  0.26231436098E+02 -0.27257717791E+03  0.33764287707E+03  0.94970096499E+02 0.  0.
        -11    1    4    4    0    0 -0.65338330663E+02  0.57209923579E+02 -0.11152839935E+03  0.14135295070E+03  0.00000000000E+00 0.  1.
         11    1    4    4    0    0 -0.10785805222E+03 -0.30978487482E+02 -0.16104877857E+03  0.19628992637E+03  0.00000000000E+00 0. -1.
        -11    1    3    3    0    0  0.61547905807E+02 -0.51929195284E+02 -0.77883547344E+02  0.11202960760E+03  0.00000000000E+00 0.  1.
         11    1    3    3    0    0  0.74198257052E+02  0.22279825987E+02 -0.16615709790E+03  0.18333017531E+03  0.00000000000E+00 0. -1.
          1    1    1    2  501    0  0.37450220025E+02  0.34179331993E+01 -0.34629450322E+02  0.51121424832E+02  0.00000000000E+00 0. -1.
<scales pt_clust_5="13000.00000" pt_clust_6="13000.00000" pt_clust_7="13000.00000" pt_clust_8="13000.00000" pt_clust_9="37.60587"></scales>
<clustering>
<clus scale="   37.606">  1  9  2 -1</clus>
<clus scale="   91.518">  7  8 -1 -1</clus>
<clus scale="   94.970">  5  6 -1 -1</clus>
<clus scale="  179.862">  2  7  1 -1</clus>
<clus scale="   37.606">  1  5  2 -1</clus>
</clustering>
</event>
<event>
 9    1  0.1636528E-005  0.1218924E+03  0.7546771E-02  0.1240312E+00
         21   -1    0    0  501  502  0.00000000000E+00  0.00000000000E+00  0.11978202052E+03  0.11978202052E+03  0.00000000000E+00 0.  1.
         -4   -1    0    0    0  501 -0.00000000000E+00 -0.00000000000E+00 -0.29508208602E+03  0.29508208602E+03  0.00000000000E+00 0.  1.
         23    2    1    2    0    0  0.18319618768E+02  0.47302579586E+02 -0.44614647478E+02  0.11391443341E+03  0.91721801670E+02 0.  0.
         23    2    1    2    0    0  0.61610210272E+02 -0.11192854676E+03 -0.12047467156E+03  0.19765614698E+03  0.90719283303E+02 0.  0.
        -13    1    4    4    0    0  0.30640852777E+02 -0.57215225738E+02 -0.11807850626E+03  0.13474040803E+03  0.00000000000E+00 0.  1.
         13    1    4    4    0    0  0.30969357496E+02 -0.54713321018E+02 -0.23961653085E+01  0.62915738958E+02  0.00000000000E+00 0. -1.
        -13    1    3    3    0    0  0.55073203013E+02  0.19658523522E+02 -0.20349653967E+02  0.61916263241E+02  0.00000000000E+00 0. -1.
         13    1    3    3    0    0 -0.36753584245E+02  0.27644056064E+02 -0.24264993511E+02  0.51998170166E+02  0.00000000000E+00 0.  1.
         -4    1    1    2    0  502 -0.79929829040E+02  0.64625967170E+02 -0.10210746457E+02  0.10329352616E+03  0.00000000000E+00 0.  1.
<scales pt_clust_5="13000.00000" pt_clust_6="13000.00000" pt_clust_7="13000.00000" pt_clust_8="13000.00000" pt_clust_9="102.78761"></scales>
<clustering>
<clus scale="   90.719">  5  6 -1 -1</clus>
<clus scale="   91.722">  7  8 -1 -1</clus>
<clus scale="  102.788">  1  9  2 -1</clus>
<clus scale="  121.140">  1  5  2 -1</clus>
<clus scale="  102.788">  1  5  2 -1</clus>
</clustering>
</event>
<event>
 9    1  0.1636528E-005  0.1037591E+03  0.7546771E-02  0.1273036E+00
         21   -1    0    0  501  502  0.00000000000E+00  0.00000000000E+00  0.90203576948E+02  0.90203576948E+02  0.00000000000E+00 0.  1.
         -2   -1    0    0    0  501 -0.00000000000E+00 -0.00000000000E+00 -0.33245362366E+03  0.33245362366E+03  0.00000000000E+00 0.  1.
         23    2    1    2    0    0  0.28465361607E+02 -0.39018805698E+02 -0.22575991221E+03  0.24803922622E+03  0.90681727878E+02 0.  0.
         23    2    1    2    0    0 -0.48336135154E+02  0.33177907894E+02 -0.62599745176E+02  0.12407037381E+03  0.89652518241E+02 0.  0.
        -13    1    3    3    0    0  0.48836191640E+02 -0.31301666127E+02 -0.21690038962E+03  0.22452293187E+03  0.00000000000E+00 0.  1.
         13    1    3    3    0    0 -0.20370830032E+02 -0.77171395704E+01 -0.88595225875E+01  0.23516294347E+02  0.00000000000E+00 0. -1.
        -13    1    4    4    0    0 -0.55078869335E+02  0.53243427906E+02 -0.24401397841E+02  0.80398835060E+02  0.00000000000E+00 0. -1.
         13    1    4    4    0    0  0.67427341812E+01 -0.20065520011E+02 -0.38198347335E+02  0.43671538749E+02  0.00000000000E+00 0.  1.
         -2    1    1    2    0  502  0.19870773547E+02  0.58408978036E+01  0.46109610673E+02  0.50547600585E+02  0.00000000000E+00 0.  1.
<scales pt_clust_5="13000.00000" pt_clust_6="13000.00000" pt_clust_7="13000.00000" pt_clust_8="13000.00000" pt_clust_9="20.71144"></scales>
<clustering>
<clus scale="   20.711">  1  9  2 -1</clus>
<clus scale="   89.653">  7  8 -1 -1</clus>
<clus scale="   90.682">  5  6 -1 -1</clus>
<clus scale="  102.861">  1  7  2 -1</clus>
<clus scale="   20.711">  1  5  2 -1</clus>
</clustering>
</event>
<event>
 9    1  0.1636528E-005  0.1541921E+03  0.7546771E-02  0.1195452E+00
          2   -1    0    0  502    0 -0.00000000000E+00  0.00000000000E+00  0.42608786926E+03  0.42608786926E+03  0.00000000000E+00 0. -1.
         21   -1    0    0  501  502  0.00000000000E+00 -0.00000000000E+00 -0.77742539647E+02  0.77742539647E+02  0.00000000000E+00 0.  1.
         23    2    1    2    0    0  0.86088964178E+02 -0.83903241280E+02  0.25916924936E+03  0.29986021822E+03  0.91084504759E+02 0.  0.
         23    2    1    2    0    0 -0.10651899031E+03  0.82948108558E+02  0.78502693816E+02  0.18090030936E+03  0.91299315335E+02 0.  0.
        -13    1    3    3    0    0  0.66805296477E+02 -0.97653951320E+02  0.16680079776E+03  0.20450366251E+03  0.00000000000E+00 0. -1.
         13    1    3    3    0    0  0.19283667701E+02  0.13750710040E+02  0.92368451595E+02  0.95356555709E+02  0.00000000000E+00 0.  1.
        -13    1    4    4    0    0  0.15277675432E+02  0.18448989136E+02  0.19885316797E+02  0.31131951286E+02  0.00000000000E+00 0. -1.
         13    1    4    4    0    0 -0.12179666574E+03  0.64499119422E+02  0.58617377019E+02  0.14976835808E+03  0.00000000000E+00 0.  1.
          2    1    1    2  501    0  0.20430026134E+02  0.95513272192E+00  0.10673386443E+02  0.23069881328E+02  0.00000000000E+00 0. -1.
<scales pt_clust_5="13000.00000" pt_clust_6="13000.00000" pt_clust_7="13000.00000" pt_clust_8="13000.00000" pt_clust_9="20.45234"></scales>
<clustering>
<clus scale="   20.452">  2  9  1 -1</clus>
<clus scale="   91.085">  5  6 -1 -1</clus>
<clus scale="   91.299">  7  8 -1 -1</clus>
<clus scale="  154.065">  1  5  2 -1</clus>
<clus scale="   20.452">  2  5  1 -1</clus>
</clustering>
</event>
<event>
 9    1  0.1636528E-005  0.9078945E+02  0.7546771E-02  0.1301663E+00
          1   -1    0    0  502    0 -0.00000000000E+00  0.00000000000E+00  0.29669183538E+03  0.29669183538E+03  0.00000000000E+00 0. -1.
         21   -1    0    0  501  502  0.00000000000E+00 -0.00000000000E+00 -0.78235652692E+02  0.78235652692E+02  0.00000000000E+00 0. -1.
         23    2    1    2    0    0  0.64815343724E+00 -0.58816144802E+01  0.14667904485E+03  0.17116351753E+03  0.88018146109E+02 0.  0.
         23    2    1    2    0    0  0.63805869325E+01  0.31343757117E+02  0.11749789720E+03  0.15096139736E+03  0.89221323947E+02 0.  0.
        -11    1    3    3    0    0 -0.30125744099E+02  0.23509721818E+02  0.35657909271E+02  0.52266183819E+02  0.00000000000E+00 0. -1.
         11    1    3    3    0    0  0.30773897536E+02 -0.29391336298E+02  0.11102113558E+03  0.11889733371E+03  0.00000000000E+00 0.  1.
        -13    1    4    4    0    0 -0.11497741143E+02  0.59911277035E+02  0.72755718932E+02  0.94947110565E+02  0.00000000000E+00 0. -1.
         13    1    4    4    0    0  0.17878328075E+02 -0.28567519918E+02  0.44742178263E+02  0.56014286792E+02  0.00000000000E+00 0.  1.
          1    1    1    2  501    0 -0.70287403697E+01 -0.25462142637E+02 -0.45720759355E+02  0.52802573184E+02  0.00000000000E+00 0. -1.
<scales pt_clust_5="13000.00000" pt_clust_6="13000.00000" pt_clust_7="13000.00000" pt_clust_8="13000.00000" pt_clust_9="26.41446"></scales>
<clustering>
<clus scale="   26.414">  2  9  1 -1</clus>
<clus scale="   88.018">  5  6 -1 -1</clus>
<clus scale="   89.221">  7  8 -1 -1</clus>
<clus scale="   89.607">  1  5  2 -1</clus>
<clus scale="   26.414">  2  5  1 -1</clus>
</clustering>
</event>
<event>
 9    1  0.1636528E-005  0.2071958E+03  0.7546771E-02  0.1172572E+00
         21   -1    0    0  501  502  0.00000000000E+00  0.00000000000E+00  0.64637564490E+03  0.64637564490E+03  0.00000000000E+00 0.  1.
         -1   -1    0    0    0  501 -0.00000000000E+00 -0.00000000000E+00 -0.15423245098E+03  0.15423245098E+03  0.00000000000E+00 0.  1.
         23    2    1    2    0    0  0.19696976678E+02 -0.45780252289E+02 -0.26882902396E+02  0.10918657349E+03  0.93355315859E+02 0.  0.
         23    2    1    2    0    0  0.11141657787E+03 -0.97649048888E+02  0.49299278729E+02  0.18308500809E+03  0.95607064228E+02 0.  0.
        -11    1    3    3    0    0  0.25902115622E+02  0.17835998183E+02  0.12797485966E+02  0.33953174696E+02  0.00000000000E+00 0.  1.
         11    1    3    3    0    0 -0.62051389438E+01 -0.63616250472E+02 -0.39680388362E+02  0.75233398793E+02  0.00000000000E+00 0. -1.
        -11    1    4    4    0    0  0.11073751559E+03 -0.39776204374E+02  0.24872363112E+02  0.12026461757E+03  0.00000000000E+00 0.  1.
         11    1    4    4    0    0  0.67906228044E+00 -0.57872844515E+02  0.24426915617E+02  0.62820390514E+02  0.00000000000E+00 0. -1.
         -1    1    1    2    0  502 -0.13111355455E+03  0.14342930118E+03  0.46972681758E+03  0.50833651431E+03  0.00000000000E+00 0.  1.
<scales pt_clust_5="13000.00000" pt_clust_6="13000.00000" pt_clust_7="13000.00000" pt_clust_8="13000.00000" pt_clust_9="183.81891"></scales>
<clustering>
<clus scale="   93.355">  5  6 -1 -1</clus>
<clus scale="   95.607">  7  8 -1 -1</clus>
<clus scale="  105.825">  2  5  1 -1</clus>
<clus scale="  183.819">  1  9  2 -1</clus>
<clus scale="  183.819">  1  5  2 -1</clus>
</clustering>
</event>
<event>
 9    1  0.1636528E-005  0.1041444E+03  0.7546771E-02  0.1290318E+00
          1   -1    0    0  502    0 -0.00000000000E+00  0.00000000000E+00  0.29733661767E+03  0.29733661767E+03  0.00000000000E+00 0. -1.
         21   -1    0    0  501  502  0.00000000000E+00 -0.00000000000E+00 -0.35359724247E+02  0.35359724247E+02  0.00000000000E+00 0.  1.
         23    2    1    2    0    0  0.23272052722E+02 -0.39010160696E+01  0.15730361369E+03  0.18881138166E+03  0.10172760000E+03 0.  0.
         23    2    1    2    0    0 -0.11194048186E+02  0.24075900376E+02  0.85696739465E+02  0.11366885145E+03  0.69797714446E+02 0.  0.
        -11    1    4    4    0    0  0.19318121652E+02  0.36792065659E+02  0.50092532256E+02  0.65085387819E+02  0.00000000000E+00 0.  1.
         11    1    4    4    0    0 -0.30512169838E+02 -0.12716165283E+02  0.35604207208E+02  0.48583463634E+02  0.00000000000E+00 0. -1.
        -13    1    3    3    0    0 -0.26795018418E+02  0.46390983613E+01  0.42162927553E+01  0.27518564102E+02  0.00000000000E+00 0.  1.
         13    1    3    3    0    0  0.50067071140E+02 -0.85401144309E+01  0.15308732093E+03  0.16129281756E+03  0.00000000000E+00 0. -1.
          1    1    1    2  501    0 -0.12078004536E+02 -0.20174884307E+02  0.18976540272E+02  0.30216108801E+02  0.00000000000E+00 0. -1.
<scales pt_clust_5="13000.00000" pt_clust_6="13000.00000" pt_clust_7="13000.00000" pt_clust_8="13000.00000" pt_clust_9="23.51391"></scales>
<clustering>
<clus scale="   23.514">  2  9  1 -1</clus>
<clus scale="   69.798">  5  6 -1 -1</clus>
<clus scale="   73.275">  2  5  1 -1</clus>
<clus scale="  101.728">  7  8 -1 -1</clus>
<clus scale="   23.514">  2  5  1 -1</clus>
</clustering>
</event>
<event>
 9    1  0.1636528E-005  0.1080397E+03  0.7546771E-02  0.1264964E+00
         -3   -1    0    0    0  501 -0.00000000000E+00  0.00000000000E+00  0.67601574360E+03  0.67601574360E+03  0.00000000000E+00 0.  1.
         21   -1    0    0  501  502  0.00000000000E+00 -0.00000000000E+00 -0.20718082618E+02  0.20718082618E+02  0.00000000000E+00 0. -1.
         23    2    1    2    0    0 -0.80076443683E+01 -0.65860782353E+02  0.35034039009E+03  0.36762168275E+03  0.89473726184E+02 0.  0.
         23    2    1    2    0    0 -0.16127758325E+01  0.47917028990E+02  0.24553599538E+03  0.26629957504E+03  0.91262784993E+02 0.  0.
        -11    1    3    3    0    0  0.34825251882E+02 -0.89145219827E+01  0.16905568684E+03  0.17283544811E+03  0.00000000000E+00 0.  1.
         11    1    3    3    0    0 -0.42832896250E+02 -0.56946260371E+02  0.18128470324E+03  0.19478623463E+03  0.00000000000E+00 0. -1.
        -13    1    4    4    0    0 -0.44491273377E+02  0.35191107578E+02  0.16030031577E+03  0.17004140288E+03  0.00000000000E+00 0.  1.
         13    1    4    4    0    0  0.42878497545E+02  0.12725921412E+02  0.85235679615E+02  0.96258172156E+02  0.00000000000E+00 0. -1.
         -3    1    1    2    0  502  0.96204202009E+01  0.17943753363E+02  0.59421275509E+02  0.62812568429E+02  0.00000000000E+00 0.  1.
<scales pt_clust_5="13000.00000" pt_clust_6="13000.00000" pt_clust_7="13000.00000" pt_clust_8="13000.00000" pt_clust_9="20.36004"></scales>
<clustering>
<clus scale="   20.360">  2  9  1 -1</clus>
<clus scale="   89.474">  5  6 -1 -1</clus>
<clus scale="   91.263">  7  8 -1 -1</clus>
<clus scale="  106.533">  1  5  2 -1</clus>
<clus scale="   20.360">  2  5  1 -1</clus>
</clustering>
</event>
<event>
 9    1  0.1636528E-005  0.1062047E+03  0.7546771E-02  0.1269731E+00
         21   -1    0    0  501  502  0.00000000000E+00  0.00000000000E+00  0.50325803168E+02  0.50325803168E+02  0.00000000000E+00 0.  1.
         -3   -1    0    0    0  501 -0.00000000000E+00 -0.00000000000E+00 -0.52062910286E+03  0.52062910286E+03  0.00000000000E+00 0.  1.
         23    2    1    2    0    0 -0.41938445089E+02 -0.64950228322E+02 -0.33955305881E+03  0.35787543144E+03  0.82469263059E+02 0.  0.
         23    2    1    2    0    0 -0.21155086876E+02  0.35819582250E+02 -0.92033947592E+02  0.13352861235E+03  0.87344505452E+02 0.  0.
        -11    1    3    3    0    0  0.11731494734E+02 -0.27369099664E+02 -0.33213184909E+02  0.44607300264E+02  0.00000000000E+00 0. -1.
         11    1    3    3    0    0 -0.53669939822E+02 -0.37581128658E+02 -0.30633987390E+03  0.31326813118E+03  0.00000000000E+00 0.  1.
        -11    1    4    4    0    0  0.30624954139E+02  0.14030676280E+02 -0.12027326365E+02  0.35768761124E+02  0.00000000000E+00 0. -1.
         11    1    4    4    0    0 -0.51780041015E+02  0.21788905970E+02 -0.80006621227E+02  0.97759851222E+02  0.00000000000E+00 0.  1.
         -3    1    1    2    0  502  0.63093531964E+02  0.29130646072E+02 -0.38716293288E+02  0.79550862234E+02  0.00000000000E+00 0.  1.
<scales pt_clust_5="13000.00000" pt_clust_6="13000.00000" pt_clust_7="13000.00000" pt_clust_8="13000.00000" pt_clust_9="69.49380"></scales>
<clustering>
<clus scale="   69.494">  1  9  2 -1</clus>
<clus scale="   82.469">  5  6 -1 -1</clus>
<clus scale="   87.345">  7  8 -1 -1</clus>
<clus scale="  102.233">  2  5  1 -1</clus>
<clus scale="   69.494">  1  5  2 -1</clus>
</clustering>
</event>
<event>
 9    1  0.1636528E-005  0.1030347E+03  0.7546771E-02  0.1279132E+00
         21   -1    0    0  501  502  0.00000000000E+00  0.00000000000E+00  0.71081920785E+03  0.71081920785E+03  0.00000000000E+00 0. -1.
         -1   -1    0    0    0  501 -0.00000000000E+00 -0.00000000000E+00 -0.42987011714E+03  0.42987011714E+03  0.00000000000E+00 0.  1.
         23    2    1    2    0    0  0.19601322142E+02 -0.11058341982E+02 -0.41061150939E+03  0.42329650697E+03  0.10035747316E+03 0.  0.
         23    2    1    2    0    0 -0.78857153764E+02  0.37107105763E+02  0.47801047787E+03  0.49424836620E+03  0.90509902980E+02 0.  0.
        -11    1    3    3    0    0 -0.38857929458E+02  0.95028217961E+01 -0.13488282821E+03  0.14068979938E+03  0.00000000000E+00 0. -1.
         11    1    3    3    0    0  0.58459251600E+02 -0.20561163778E+02 -0.27572868117E+03  0.28260670759E+03  0.00000000000E+00 0.  1.
        -13    1    4    4    0    0 -0.51329722663E+02  0.63166102064E+02  0.39031949932E+03  0.39871544794E+03  0.00000000000E+00 0.  1.
         13    1    4    4    0    0 -0.27527431102E+02 -0.26058996301E+02  0.87690978554E+02  0.95532918259E+02  0.00000000000E+00 0. -1.
         -1    1    1    2    0  502  0.59255831622E+02 -0.26048763781E+02  0.21355012222E+03  0.22314445182E+03  0.00000000000E+00 0.  1.
<scales pt_clust_5="13000.00000" pt_clust_6="13000.00000" pt_clust_7="13000.00000" pt_clust_8="13000.00000" pt_clust_9="64.72860"></scales>
<clustering>
<clus scale="   64.729">  1  9  2 -1</clus>
<clus scale="   90.510">  7  8 -1 -1</clus>
<clus scale="   93.470">  1  7  2 -1</clus>
<clus scale="  100.357">  5  6 -1 -1</clus>
<clus scale="   64.729">  1  5  2 -1</clus>
</clustering>
</event>
<event>
 9    1  0.1636528E-005  0.2907169E+03  0.7546771E-02  0.1090029E+00
          2   -1    0    0  502    0 -0.00000000000E+00  0.00000000000E+00  0.17945136873E+04  0.17945136873E+04  0.00000000000E+00 0. -1.
         21   -1    0    0  501  502  0.00000000000E+00 -0.00000000000E+00 -0.10263681035E+03  0.10263681035E+03  0.00000000000E+00 0.  1.
         23    2    1    2    0    0  0.18224998864E+03 -0.19055547289E+03  0.11171687389E+04  0.11516332488E+04  0.93095123214E+02 0.  0.
         23    2    1    2    0    0 -0.16740131630E+03  0.25652681793E+03  0.59451229978E+03  0.67505515794E+03  0.91789883193E+02 0.  0.
        -11    1    4    4    0    0 -0.12497854373E+03  0.16603856028E+03  0.48005225696E+03  0.52310477852E+03  0.00000000000E+00 0.  1.
         11    1    4    4    0    0 -0.42422772570E+02  0.90488257651E+02  0.11446004282E+03  0.15195037942E+03  0.00000000000E+00 0. -1.
        -13    1    3    3    0    0  0.97208223115E+02 -0.85742561706E+02  0.36221541670E+03  0.38470928456E+03  0.00000000000E+00 0.  1.
         13    1    3    3    0    0  0.85041765527E+02 -0.10481291118E+03  0.75495332222E+03  0.76692396426E+03  0.00000000000E+00 0. -1.
          2    1    1    2  501    0 -0.14848672346E+02 -0.65971345041E+02 -0.19804161705E+02  0.70462090927E+02  0.00000000000E+00 0. -1.
<scales pt_clust_5="13000.00000" pt_clust_6="13000.00000" pt_clust_7="13000.00000" pt_clust_8="13000.00000" pt_clust_9="67.62175"></scales>
<clustering>
<clus scale="   67.622">  2  9  1 -1</clus>
<clus scale="   91.790">  5  6 -1 -1</clus>
<clus scale="   93.095">  7  8 -1 -1</clus>
<clus scale="  290.302">  2  5  1 -1</clus>
<clus scale="   67.622">  2  5  1 -1</clus>
</clustering>
</event>
<event>
 9    1  0.1636528E-005  0.9241915E+02  0.7546771E-02  0.1299914E+00
          4   -1    0    0  502    0 -0.00000000000E+00  0.00000000000E+00  0.30567527798E+03  0.30567527798E+03  0.00000000000E+00 0. -1.
         21   -1    0    0  501  502  0.00000000000E+00 -0.00000000000E+00 -0.51191977213E+02  0.51191977213E+02  0.00000000000E+00 0.  1.
         23    2    1    2    0    0 -0.24220448184E+02 -0.65477114248E+01  0.17308623400E+03  0.19653559587E+03  0.89654299448E+02 0.  0.
         23    2    1    2    0    0  0.16632575696E+02 -0.29313117616E+02  0.83386703080E+02  0.12362289306E+03  0.84813772456E+02 0.  0.
        -13    1    4    4    0    0 -0.25664557491E+02 -0.40027832901E+02  0.46110955573E+02  0.66235316424E+02  0.00000000000E+00 0.  1.
         13    1    4    4    0    0  0.42297133186E+02  0.10714715285E+02  0.37275747506E+02  0.57387576631E+02  0.00000000000E+00 0. -1.
        -13    1    3    3    0    0 -0.46757949606E+02 -0.27139877352E+02  0.66717142084E+02  0.85872322909E+02  0.00000000000E+00 0.  1.
         13    1    3    3    0    0  0.22537501421E+02  0.20592165927E+02  0.10636909191E+03  0.11066327296E+03  0.00000000000E+00 0. -1.
          4    1    1    2  501    0  0.75878724885E+01  0.35860829041E+02 -0.19896363085E+01  0.36708766270E+02  0.00000000000E+00 0. -1.
<scales pt_clust_5="13000.00000" pt_clust_6="13000.00000" pt_clust_7="13000.00000" pt_clust_8="13000.00000" pt_clust_9="36.65481"></scales>
<clustering>
<clus scale="   36.655">  2  9  1 -1</clus>
<clus scale="   84.814">  5  6 -1 -1</clus>
<clus scale="   87.731">  2  5  1 -1</clus>
<clus scale="   89.654">  7  8 -1 -1</clus>
<clus scale="   36.655">  2  5  1 -1</clus>
</clustering>
</event>
<event>
 9    1  0.1636528E-005  0.9182843E+02  0.7546771E-02  0.1298648E+00
          1   -1    0    0  502    0 -0.00000000000E+00  0.00000000000E+00  0.29551546165E+03  0.29551546165E+03  0.00000000000E+00 0. -1.
         21   -1    0    0  501  502  0.00000000000E+00 -0.00000000000E+00 -0.10881444726E+03  0.10881444726E+03  0.00000000000E+00 0. -1.
         23    2    1    2    0    0  0.12241984527E+01 -0.12757597328E+02  0.17179520307E+03  0.19493604672E+03  0.91226178045E+02 0.  0.
         23    2    1    2    0    0  0.26001001518E+02 -0.38234347493E+02  0.74220910200E+02  0.12657073194E+03  0.91506771685E+02 0.  0.
        -11    1    4    4    0    0 -0.60416170676E+01 -0.59590701042E+02  0.61913610402E+02  0.86144343636E+02  0.00000000000E+00 0. -1.
         11    1    4    4    0    0  0.32042618586E+02  0.21356353549E+02  0.12307299798E+02  0.40426388301E+02  0.00000000000E+00 0.  1.
        -13    1    3    3    0    0 -0.43104119963E+02  0.68074148358E+01  0.78937702990E+02  0.90196823713E+02  0.00000000000E+00 0.  1.
         13    1    3    3    0    0  0.44328318416E+02 -0.19565012164E+02  0.92857500081E+02  0.10473922301E+03  0.00000000000E+00 0. -1.
          1    1    1    2  501    0 -0.27225199971E+02  0.50991944821E+02 -0.59315098877E+02  0.82823130253E+02  0.00000000000E+00 0. -1.
<scales pt_clust_5="13000.00000" pt_clust_6="13000.00000" pt_clust_7="13000.00000" pt_clust_8="13000.00000" pt_clust_9="57.80476"></scales>
<clustering>
<clus scale="   57.805">  2  9  1 -1</clus>
<clus scale="   91.226">  7  8 -1 -1</clus>
<clus scale="   91.507">  5  6 -1 -1</clus>
<clus scale="   91.549">  1  7  2 -1</clus>
<clus scale="   57.805">  2  5  1 -1</clus>
</clustering>
</event>
<event>
 9    1  0.1636528E-005  0.9155593E+02  0.7546771E-02  0.1300368E+00
         -1   -1    0    0    0  501 -0.00000000000E+00  0.00000000000E+00  0.41023882013E+03  0.41023882013E+03  0.00000000000E+00 0.  1.
         21   -1    0    0  501  502  0.00000000000E+00 -0.00000000000E+00 -0.37612070653E+02  0.37612070653E+02  0.00000000000E+00 0. -1.
         23    2    1    2    0    0 -0.13631680600E+02 -0.39497895877E+01  0.21644613818E+03  0.23541569037E+03  0.91488758794E+02 0.  0.
         23    2    1    2    0    0 -0.10970038556E+02 -0.99143246640E+01  0.16005319743E+03  0.18393160112E+03  0.89415727388E+02 0.  0.
        -11    1    3    3    0    0 -0.35963500091E+02  0.24930115185E+02  0.17405425745E+03  0.17947080130E+03  0.00000000000E+00 0. -1.
         11    1    3    3    0    0  0.22331819491E+02 -0.28879904772E+02  0.42391880728E+02  0.55944889070E+02  0.00000000000E+00 0.  1.
        -13    1    4    4    0    0  0.21437919918E+02 -0.30053872316E+02  0.13063697030E+03  0.13575285508E+03  0.00000000000E+00 0.  1.
         13    1    4    4    0    0 -0.32407958474E+02  0.20139547652E+02  0.29416227123E+02  0.48178746042E+02  0.00000000000E+00 0. -1.
         -1    1    1    2    0  502  0.24601719156E+02  0.13864114252E+02 -0.38725861286E+01  0.28503599295E+02  0.00000000000E+00 0.  1.
<scales pt_clust_5="13000.00000" pt_clust_6="13000.00000" pt_clust_7="13000.00000" pt_clust_8="13000.00000" pt_clust_9="28.23930"></scales>
<clustering>
<clus scale="   28.239">  2  9  1 -1</clus>
<clus scale="   89.416">  7  8 -1 -1</clus>
<clus scale="   89.484">  2  7  1 -1</clus>
<clus scale="   91.489">  5  6 -1 -1</clus>
<clus scale="   28.239">  2  5  1 -1</clus>
</clustering>
</event>
<event>
 9    1  0.1636528E-005  0.1264208E+03  0.7546771E-02  0.1246202E+00
         21   -1    0    0  501  502  0.00000000000E+00  0.00000000000E+00  0.74864898193E+02  0.74864898193E+02  0.00000000000E+00 0. -1.
         -1   -1    0    0    0  501 -0.00000000000E+00 -0.00000000000E+00 -0.36304621350E+03  0.36304621350E+03  0.00000000000E+00 0.  1.
         23    2    1    2    0    0 -0.25693507325E+02 -0.18732494109E+02 -0.19731125484E+03  0.21807258991E+03  0.87251707888E+02 0.  0.
         23    2    1    2    0    0  0.77425550310E+02  0.21557748753E+02 -0.86000713301E+02  0.16780106530E+03  0.11958939107E+03 0.  0.
        -11    1    4    4    0    0 -0.12414659087E+02  0.41279901002E+02 -0.56785256720E+02  0.71293192997E+02  0.00000000000E+00 0.  1.
         11    1    4    4    0    0  0.89840209397E+02 -0.19722152249E+02 -0.29215456581E+02  0.96507872306E+02  0.00000000000E+00 0. -1.
        -13    1    3    3    0    0 -0.24947530694E+02  0.20941003496E+02 -0.24481506310E+02  0.40746154007E+02  0.00000000000E+00 0.  1.
         13    1    3    3    0    0 -0.74597663138E+00 -0.39673497604E+02 -0.17282974853E+03  0.17732643591E+03  0.00000000000E+00 0. -1.
         -1    1    1    2    0  502 -0.51732042985E+02 -0.28252546443E+01 -0.48693471681E+01  0.52037456481E+02  0.00000000000E+00 0.  1.
<scales pt_clust_5="13000.00000" pt_clust_6="13000.00000" pt_clust_7="13000.00000" pt_clust_8="13000.00000" pt_clust_9="51.80913"></scales>
<clustering>
<clus scale="   51.809">  1  9  2 -1</clus>
<clus scale="   87.252">  7  8 -1 -1</clus>
<clus scale="   96.403">  2  7  1 -1</clus>
<clus scale="  119.589">  5  6 -1 -1</clus>
<clus scale="   51.809">  1  5  2 -1</clus>
</clustering>
</event>
<event>
 9    1  0.1636528E-005  0.1055669E+03  0.7546771E-02  0.1271285E+00
         -1   -1    0    0    0  501 -0.00000000000E+00  0.00000000000E+00  0.13302575001E+03  0.13302575001E+03  0.00000000000E+00 0.  1.
         21   -1    0    0  501  502  0.00000000000E+00 -0.00000000000E+00 -0.12598899691E+03  0.12598899691E+03  0.00000000000E+00 0. -1.
         23    2    1    2    0    0  0.48350964279E+02  0.31217353171E+02  0.33775058487E+02  0.11456488344E+03  0.93123676128E+02 0.  0.
         23    2    1    2    0    0 -0.22720951126E+02 -0.37436740868E+02  0.10525256292E+02  0.98797356575E+02  0.87933983529E+02 0.  0.
        -11    1    3    3    0    0  0.65363335462E+02 -0.84174634951E+01  0.15377296431E+02  0.67673337142E+02  0.00000000000E+00 0. -1.
         11    1    3    3    0    0 -0.17012371182E+02  0.39634816666E+02  0.18397762056E+02  0.46891546296E+02  0.00000000000E+00 0.  1.
        -11    1    4    4    0    0 -0.21273366563E+02 -0.64391544431E+02  0.19137295943E+02  0.70463204689E+02  0.00000000000E+00 0.  1.
         11    1    4    4    0    0 -0.14475845638E+01  0.26954803562E+02 -0.86120396511E+01  0.28334151886E+02  0.00000000000E+00 0. -1.
         -1    1    1    2    0  502 -0.25630013153E+02  0.62193876973E+01 -0.37263561677E+02  0.45652506901E+02  0.00000000000E+00 0.  1.
<scales pt_clust_5="13000.00000" pt_clust_6="13000.00000" pt_clust_7="13000.00000" pt_clust_8="13000.00000" pt_clust_9="26.37382"></scales>
<clustering>
<clus scale="   26.374">  2  9  1 -1</clus>
<clus scale="   87.934">  7  8 -1 -1</clus>
<clus scale="   93.124">  5  6 -1 -1</clus>
<clus scale="  101.018">  2  7  1 -1</clus>
<clus scale="   26.374">  2  5  1 -1</clus>
</clustering>
</event>
<event>
 9    1  0.1636528E-005  0.9314711E+02  0.7546771E-02  0.1296505E+00
         -3   -1    0    0    0  501 -0.00000000000E+00  0.00000000000E+00  0.44189579962E+03  0.44189579962E+03  0.00000000000E+00 0.  1.
         21   -1    0    0  501  502  0.00000000000E+00 -0.00000000000E+00 -0.54244382165E+02  0.54244382165E+02  0.00000000000E+00 0.  1.
         23    2    1    2    0    0 -0.35238495022E+02  0.94414066699E+01  0.26359482606E+03  0.28123692402E+03  0.91000458311E+02 0.  0.
         23    2    1    2    0    0 -0.48650875194E+01 -0.22102171516E+01  0.14409922808E+03  0.16949076258E+03  0.89072874280E+02 0.  0.
        -11    1    3    3    0    0 -0.13044854451E+01  0.47042022912E+02  0.13853618444E+03  0.14631106589E+03  0.00000000000E+00 0. -1.
         11    1    3    3    0    0 -0.33934009577E+02 -0.37600616242E+02  0.12505864162E+03  0.13492585813E+03  0.00000000000E+00 0.  1.
        -13    1    4    4    0    0  0.10290838358E+02  0.22316898352E+02  0.21792906304E+01  0.24671737146E+02  0.00000000000E+00 0. -1.
         13    1    4    4    0    0 -0.15155925877E+02 -0.24527115503E+02  0.14191993745E+03  0.14481902544E+03  0.00000000000E+00 0.  1.
         -3    1    1    2    0  502  0.40103582541E+02 -0.72311895184E+01 -0.20042636676E+02  0.45412495191E+02  0.00000000000E+00 0.  1.
<scales pt_clust_5="13000.00000" pt_clust_6="13000.00000" pt_clust_7="13000.00000" pt_clust_8="13000.00000" pt_clust_9="40.75031"></scales>
<clustering>
<clus scale="   40.750">  2  9  1 -1</clus>
<clus scale="   89.073">  7  8 -1 -1</clus>
<clus scale="   91.000">  5  6 -1 -1</clus>
<clus scale="   91.265">  2  7  1 -1</clus>
<clus scale="   40.750">  2  5  1 -1</clus>
</clustering>
</event>
<event>
 9    1  0.1636528E-005  0.1234980E+03  0.7546771E-02  0.1237775E+00
          2   -1    0    0  502    0 -0.00000000000E+00  0.00000000000E+00  0.79505320161E+03  0.79505320161E+03  0.00000000000E+00 0. -1.
         21   -1    0    0  501  502  0.00000000000E+00 -0.00000000000E+00 -0.31373770119E+02  0.31373770119E+02  0.00000000000E+00 0.  1.
         23    2    1    2    0    0  0.86909929938E+02  0.52826727879E+01  0.45741460285E+03  0.47458092974E+03  0.91748010405E+02 0.  0.
         23    2    1    2    0    0 -0.67588821943E+02 -0.40834483334E+02  0.16012769804E+03  0.20021063258E+03  0.90596433920E+02 0.  0.
        -11    1    4    4    0    0 -0.84755257578E+02 -0.51681449982E+02  0.12484079281E+03  0.15949811757E+03  0.00000000000E+00 0.  1.
         11    1    4    4    0    0  0.17166435635E+02  0.10846966648E+02  0.35286905228E+02  0.40712515010E+02  0.00000000000E+00 0. -1.
        -13    1    3    3    0    0  0.14230179688E+02 -0.34781268623E+02  0.83495869381E+02  0.91563064959E+02  0.00000000000E+00 0.  1.
         13    1    3    3    0    0  0.72679750250E+02  0.40063941411E+02  0.37391873347E+03  0.38301786478E+03  0.00000000000E+00 0. -1.
          2    1    1    2  501    0 -0.19321107995E+02  0.35551810546E+02  0.14613713060E+03  0.15163540941E+03  0.00000000000E+00 0. -1.
<scales pt_clust_5="13000.00000" pt_clust_6="13000.00000" pt_clust_7="13000.00000" pt_clust_8="13000.00000" pt_clust_9="40.46280"></scales>
<clustering>
<clus scale="   40.463">  2  9  1 -1</clus>
<clus scale="   90.596">  5  6 -1 -1</clus>
<clus scale="   91.748">  7  8 -1 -1</clus>
<clus scale="  122.645">  2  5  1 -1</clus>
<clus scale="   40.463">  2  5  1 -1</clus>
</clustering>
</event>
<event>
 9    1  0.1636528E-005  0.1320628E+03  0.7546771E-02  0.1224747E+00
         21   -1    0    0  501  502  0.00000000000E+00  0.00000000000E+00  0.30822002476E+03  0.30822002476E+03  0.00000000000E+00 0. -1.
          1   -1    0    0  502    0 -0.00000000000E+00 -0.00000000000E+00 -0.19001382222E+03  0.19001382222E+03  0.00000000000E+00 0. -1.
         23    2    1    2    0    0 -0.10096596408E+03 -0.47445908855E+02 -0.68515009183E+02  0.15968206437E+03  0.91426555381E+02 0.  0.
         23    2    1    2    0    0  0.77110161379E+02  0.85144871428E+01 -0.23757621993E+02  0.12317747039E+03  0.92681126070E+02 0.  0.
        -11    1    4    4    0    0 -0.32394690576E+01 -0.29837579076E+02 -0.15453242011E+02  0.33757635781E+02  0.00000000000E+00 0. -1.
         11    1    4    4    0    0  0.80349630437E+02  0.38352066219E+02 -0.83043799823E+01  0.89419834609E+02  0.00000000000E+00 0.  1.
        -13    1    3    3    0    0 -0.41415228100E+02  0.26548332453E+02 -0.21185320198E+02  0.53561673485E+02  0.00000000000E+00 0.  1.
         13    1    3    3    0    0 -0.59550735981E+02 -0.73994241308E+02 -0.47329688985E+02  0.10612039089E+03  0.00000000000E+00 0. -1.
          1    1    1    2  501    0  0.23855802702E+02  0.38931421712E+02  0.21047883372E+03  0.21537431221E+03  0.00000000000E+00 0. -1.
<scales pt_clust_5="13000.00000" pt_clust_6="13000.00000" pt_clust_7="13000.00000" pt_clust_8="13000.00000" pt_clust_9="45.65912"></scales>
<clustering>
<clus scale="   45.659">  1  9  2 -1</clus>
<clus scale="   91.427">  7  8 -1 -1</clus>
<clus scale="   92.681">  5  6 -1 -1</clus>
<clus scale="  131.185">  2  7  1 -1</clus>
<clus scale="   45.659">  1  5  2 -1</clus>
</clustering>
</event>
<event>
 9    1  0.1636528E-005  0.1179639E+03  0.7546771E-02  0.1248418E+00
          2   -1    0    0  502    0 -0.00000000000E+00  0.00000000000E+00  0.29265758219E+03  0.29265758219E+03  0.00000000000E+00 0. -1.
         21   -1    0    0  501  502  0.00000000000E+00 -0.00000000000E+00 -0.16526887193E+03  0.16526887193E+03  0.00000000000E+00 0.  1.
         23    2    1    2    0    0 -0.10567141915E+01  0.70914967496E+02  0.23043771840E+03  0.25816324000E+03  0.92285790702E+02 0.  0.
         23    2    1    2    0    0 -0.30198790412E+02 -0.92066480232E+02 -0.61761208861E+02  0.14382596867E+03  0.86505829973E+02 0.  0.
        -11    1    3    3    0    0  0.35682962457E+02  0.36857079178E+02  0.52886574140E+02  0.73679765333E+02  0.00000000000E+00 0.  1.
         11    1    3    3    0    0 -0.36739676648E+02  0.34057888318E+02  0.17755114426E+03  0.18448347467E+03  0.00000000000E+00 0. -1.
        -13    1    4    4    0    0  0.26238442185E+02 -0.17546684088E+02  0.39689150881E+00  0.31567380215E+02  0.00000000000E+00 0. -1.
         13    1    4    4    0    0 -0.56437232596E+02 -0.74519796145E+02 -0.62158100370E+02  0.11225858846E+03  0.00000000000E+00 0.  1.
          2    1    1    2  501    0  0.31255504603E+02  0.21151512736E+02 -0.41287799283E+02  0.55937245451E+02  0.00000000000E+00 0. -1.
<scales pt_clust_5="13000.00000" pt_clust_6="13000.00000" pt_clust_7="13000.00000" pt_clust_8="13000.00000" pt_clust_9="37.73981"></scales>
<clustering>
<clus scale="   37.740">  2  9  1 -1</clus>
<clus scale="   86.506">  7  8 -1 -1</clus>
<clus scale="   92.286">  5  6 -1 -1</clus>
<clus scale="  113.499">  2  7  1 -1</clus>
<clus scale="   37.740">  2  5  1 -1</clus>
</clustering>
</event>
<event>
 9    1  0.1636528E-005  0.1769827E+03  0.7546771E-02  0.1199466E+00
          2   -1    0    0  502    0 -0.00000000000E+00  0.00000000000E+00  0.92906498586E+03  0.92906498586E+03  0.00000000000E+00 0. -1.
         21   -1    0    0  501  502  0.00000000000E+00 -0.00000000000E+00 -0.81340312580E+02  0.81340312580E+02  0.00000000000E+00 0. -1.
         23    2    1    2    0    0  0.11762947736E+02  0.14188453342E+02  0.36260222408E+03  0.37442341183E+03  0.91503220003E+02 0.  0.
         23    2    1    2    0    0 -0.14730394228E+03  0.49888382607E+02  0.44553076201E+03  0.48091833899E+03  0.92722633451E+02 0.  0.
        -11    1    3    3    0    0  0.47566703335E+02  0.27719863344E+02  0.21672715959E+03  0.22361047335E+03  0.00000000000E+00 0. -1.
         11    1    3    3    0    0 -0.35803755598E+02 -0.13531410002E+02  0.14587506449E+03  0.15081293848E+03  0.00000000000E+00 0.  1.
        -13    1    4    4    0    0 -0.33374809160E+02  0.24428245233E+02  0.35220036538E+02  0.54323733536E+02  0.00000000000E+00 0.  1.
         13    1    4    4    0    0 -0.11392913312E+03  0.25460137374E+02  0.41031072547E+03  0.42659460545E+03  0.00000000000E+00 0. -1.
          2    1    1    2  501    0  0.13554099454E+03 -0.64076835949E+02  0.39591687195E+02  0.15506354762E+03  0.00000000000E+00 0. -1.
<scales pt_clust_5="13000.00000" pt_clust_6="13000.00000" pt_clust_7="13000.00000" pt_clust_8="13000.00000" pt_clust_9="150.74941"></scales>
<clustering>
<clus scale="   91.503">  5  6 -1 -1</clus>
<clus scale="   92.723">  7  8 -1 -1</clus>
<clus scale="   93.341">  1  5  2 -1</clus>
<clus scale="  150.749">  2  9  1 -1</clus>
<clus scale="  150.749">  2  5  1 -1</clus>
</clustering>
</event>
<event>
 9    1  0.1636528E-005  0.9284608E+02  0.7546771E-02  0.1296920E+00
         21   -1    0    0  501  502  0.00000000000E+00  0.00000000000E+00  0.21082083146E+03  0.21082083146E+03  0.00000000000E+00 0. -1.
          1   -1    0    0  502    0 -0.00000000000E+00 -0.00000000000E+00 -0.11342059805E+03  0.11342059805E+03  0.00000000000E+00 0. -1.
         23    2    1    2    0    0 -0.10004066318E+02  0.49208439942E+01 -0.34916130534E+02  0.98866203131E+02  0.91820988350E+02 0.  0.
         23    2    1    2    0    0 -0.26447711983E+01 -0.24792028028E+02  0.28956576215E+01  0.93828366782E+02  0.90408728071E+02 0.  0.
        -11    1    4    4    0    0 -0.83736207416E+01 -0.46695871407E+02 -0.28331940844E+02  0.55256862043E+02  0.00000000000E+00 0. -1.
         11    1    4    4    0    0  0.57288495432E+01  0.21903843379E+02  0.31227598466E+02  0.38571504739E+02  0.00000000000E+00 0.  1.
        -13    1    3    3    0    0  0.32212426145E+02  0.16750853915E+02 -0.40816795903E+02  0.54628219199E+02  0.00000000000E+00 0.  1.
         13    1    3    3    0    0 -0.42216492463E+02 -0.11830009921E+02  0.59006653693E+01  0.44237983932E+02  0.00000000000E+00 0. -1.
          1    1    1    2  501    0  0.12648837516E+02  0.19871184034E+02  0.12942070632E+03  0.13154685959E+03  0.00000000000E+00 0. -1.
<scales pt_clust_5="13000.00000" pt_clust_6="13000.00000" pt_clust_7="13000.00000" pt_clust_8="13000.00000" pt_clust_9="23.55540"></scales>
<clustering>
<clus scale="   23.555">  1  9  2 -1</clus>
<clus scale="   90.409">  5  6 -1 -1</clus>
<clus scale="   91.450">  1  5  2 -1</clus>
<clus scale="   91.821">  7  8 -1 -1</clus>
<clus scale="   23.555">  1  5  2 -1</clus>
</clustering>
</event>
<event>
 9    1  0.1636528E-005  0.1099887E+03  0.7546771E-02  0.1261448E+00
         21   -1    0    0  501  502  0.00000000000E+00  0.00000000000E+00  0.38218200936E+02  0.38218200936E+02  0.00000000000E+00 0.  1.
          1   -1    0    0  502    0 -0.00000000000E+00 -0.00000000000E+00 -0.44436128884E+03  0.44436128884E+03  0.00000000000E+00 0. -1.
         23    2    1    2    0    0 -0.35155312157E+02  0.40695085784E+02 -0.27030838352E+03  0.29097046364E+03  0.93301674845E+02 0.  0.
         23    2    1    2    0    0  0.55618912821E+02 -0.41321877292E+02 -0.11869932517E+03  0.16491121648E+03  0.91132971633E+02 0.  0.
        -13    1    4    4    0    0  0.14738869724E+01 -0.57850670604E+02 -0.59643823913E+02  0.83103899807E+02  0.00000000000E+00 0. -1.
         13    1    4    4    0    0  0.54145025849E+02  0.16528793312E+02 -0.59055501254E+02  0.81807316671E+02  0.00000000000E+00 0.  1.
        -13    1    3    3    0    0 -0.21692980825E+02 -0.29255820946E+02 -0.87982327442E+02  0.95222783085E+02  0.00000000000E+00 0.  1.
         13    1    3    3    0    0 -0.13462331332E+02  0.69950906730E+02 -0.18232605608E+03  0.19574768056E+03  0.00000000000E+00 0. -1.
          1    1    1    2  501    0 -0.20463600664E+02  0.62679150821E+00 -0.17135379217E+02  0.26697809660E+02  0.00000000000E+00 0. -1.
<scales pt_clust_5="13000.00000" pt_clust_6="13000.00000" pt_clust_7="13000.00000" pt_clust_8="13000.00000" pt_clust_9="20.47320"></scales>
<clustering>
<clus scale="   20.473">  1  9  2 -1</clus>
<clus scale="   91.133">  5  6 -1 -1</clus>
<clus scale="   93.302">  7  8 -1 -1</clus>
<clus scale="  108.155">  1  5  2 -1</clus>
<clus scale="   20.473">  1  5  2 -1</clus>
</clustering>
</event>
<event>
 9    1  0.1636528E-005  0.1060455E+03  0.7546771E-02  0.1270462E+00
         21   -1    0    0  501  502  0.00000000000E+00  0.00000000000E+00  0.34212922085E+03  0.34212922085E+03  0.00000000000E+00 0. -1.
          2   -1    0    0  502    0 -0.00000000000E+00 -0.00000000000E+00 -0.11621515635E+03  0.11621515635E+03  0.00000000000E+00 0. -1.
         23    2    1    2    0    0  0.13016658512E+02 -0.49797800636E+02 -0.64248939345E+02  0.12264955003E+03  0.90916068819E+02 0.  0.
         23    2    1    2    0    0 -0.48822621531E+01  0.70128711131E+02  0.11621778948E+03  0.16037668228E+03  0.85277388666E+02 0.  0.
        -11    1    3    3    0    0 -0.38039824866E+02 -0.32281610199E+02 -0.37465858968E+02  0.62392477280E+02  0.00000000000E+00 0. -1.
         11    1    3    3    0    0  0.51056483378E+02 -0.17516190437E+02 -0.26783080376E+02  0.60257072753E+02  0.00000000000E+00 0.  1.
        -11    1    4    4    0    0  0.21383506142E+02  0.44258834479E+01  0.75812097309E+02  0.78894339959E+02  0.00000000000E+00 0.  1.
         11    1    4    4    0    0 -0.26265768296E+02  0.65702827683E+02  0.40405692172E+02  0.81482342318E+02  0.00000000000E+00 0. -1.
          2    1    1    2  501    0 -0.81343963586E+01 -0.20330910495E+02  0.17394521437E+03  0.17531814489E+03  0.00000000000E+00 0. -1.
<scales pt_clust_5="13000.00000" pt_clust_6="13000.00000" pt_clust_7="13000.00000" pt_clust_8="13000.00000" pt_clust_9="21.89782"></scales>
<clustering>
<clus scale="   21.898">  1  9  2 -1</clus>
<clus scale="   85.277">  7  8 -1 -1</clus>
<clus scale="   90.916">  5  6 -1 -1</clus>
<clus scale="  101.253">  1  7  2 -1</clus>
<clus scale="   21.898">  1  5  2 -1</clus>
</clustering>
</event>
<event>
 9    1  0.1636528E-005  0.1042452E+03  0.7546771E-02  0.1272458E+00
         21   -1    0    0  501  502  0.00000000000E+00  0.00000000000E+00  0.80565344849E+02  0.80565344849E+02  0.00000000000E+00 0.  1.
          2   -1    0    0  502    0 -0.00000000000E+00 -0.00000000000E+00 -0.33301867278E+03  0.33301867278E+03  0.00000000000E+00 0. -1.
         23    2    1    2    0    0  0.18769001498E+01  0.41585999306E+02 -0.21254685996E+03  0.23491652261E+03  0.90976298163E+02 0.  0.
         23    2    1    2    0    0  0.11092540139E+02 -0.78945837622E+02  0.12857006775E+00  0.12239344974E+03  0.92868995283E+02 0.  0.
        -13    1    3    3    0    0  0.34326352441E+02  0.21564542793E+02 -0.35734402949E+02  0.54039573757E+02  0.00000000000E+00 0.  1.
         13    1    3    3    0    0 -0.32449452291E+02  0.20021456513E+02 -0.17681245701E+03  0.18087694886E+03  0.00000000000E+00 0. -1.
        -13    1    4    4    0    0  0.39771176376E+02 -0.46529957831E+02  0.31593700721E+02  0.68883563870E+02  0.00000000000E+00 0.  1.
         13    1    4    4    0    0 -0.28678636238E+02 -0.32415879790E+02 -0.31465130653E+02  0.53509885872E+02  0.00000000000E+00 0. -1.
          2    1    1    2  501    0 -0.12969440289E+02  0.37359838316E+02 -0.40035038044E+02  0.56274045274E+02  0.00000000000E+00 0. -1.
<scales pt_clust_5="13000.00000" pt_clust_6="13000.00000" pt_clust_7="13000.00000" pt_clust_8="13000.00000" pt_clust_9="39.54700"></scales>
<clustering>
<clus scale="   39.547">  1  9  2 -1</clus>
<clus scale="   90.976">  5  6 -1 -1</clus>
<clus scale="   92.869">  7  8 -1 -1</clus>
<clus scale="  102.563">  2  5  1 -1</clus>
<clus scale="   39.547">  1  5  2 -1</clus>
</clustering>
</event>
<event>
 9    1  0.1636528E-005  0.1187785E+03  0.7546771E-02  0.1245580E+00
          1   -1    0    0  502    0 -0.00000000000E+00  0.00000000000E+00  0.25222959351E+03  0.25222959351E+03  0.00000000000E+00 0. -1.
         21   -1    0    0  501  502  0.00000000000E+00 -0.00000000000E+00 -0.76200117522E+02  0.76200117522E+02  0.00000000000E+00 0. -1.
         23    2    1    2    0    0 -0.45271330553E+01 -0.86814473308E+02  0.13312958514E+03  0.18276967335E+03  0.90133342040E+02 0.  0.
         23    2    1    2    0    0  0.65791206078E+01  0.58730838069E+02  0.43930587464E+02  0.11748267875E+03  0.91540630994E+02 0.  0.
        -11    1    3    3    0    0  0.25193028174E+02 -0.87622082043E+01  0.78657032924E+02  0.83056569816E+02  0.00000000000E+00 0. -1.
         11    1    3    3    0    0 -0.29720161229E+02 -0.78052265104E+02  0.54472552215E+02  0.99713103533E+02  0.00000000000E+00 0.  1.
        -11    1    4    4    0    0  0.47491344077E+02  0.17839724932E+02  0.15614541712E+02  0.53080104189E+02  0.00000000000E+00 0. -1.
         11    1    4    4    0    0 -0.40912223469E+02  0.40891113137E+02  0.28316045752E+02  0.64402574559E+02  0.00000000000E+00 0.  1.
          1    1    1    2  501    0 -0.20519875525E+01  0.28083635239E+02 -0.10306966126E+01  0.28177358937E+02  0.00000000000E+00 0. -1.
<scales pt_clust_5="13000.00000" pt_clust_6="13000.00000" pt_clust_7="13000.00000" pt_clust_8="13000.00000" pt_clust_9="28.15850"></scales>
<clustering>
<clus scale="   28.159">  2  9  1 -1</clus>
<clus scale="   90.133">  5  6 -1 -1</clus>
<clus scale="   91.541">  7  8 -1 -1</clus>
<clus scale="  117.697">  1  5  2 -1</clus>
<clus scale="   28.159">  2  5  1 -1</clus>
</clustering>
</event>
<event>
 9    1  0.1636528E-005  0.1041001E+03  0.7546771E-02  0.1272258E+00
         21   -1    0    0  501  502  0.00000000000E+00  0.00000000000E+00  0.16837417191E+03  0.16837417191E+03  0.00000000000E+00 0. -1.
          1   -1    0    0  502    0 -0.00000000000E+00 -0.00000000000E+00 -0.63497800604E+03  0.63497800604E+03  0.00000000000E+00 0. -1.
         23    2    1    2    0    0 -0.43358745809E+02 -0.42318441825E+02 -0.50580009763E+03  0.51761899477E+03  0.91787001411E+02 0.  0.
         23    2    1    2    0    0  0.25519542038E+00  0.18997750559E+02 -0.10097719254E+03  0.13723951841E+03  0.90979735924E+02 0.  0.
        -11    1    4    4    0    0 -0.36970409095E+02  0.33037597446E+02 -0.74351458707E+02  0.89366847351E+02  0.00000000000E+00 0. -1.
         11    1    4    4    0    0  0.37225604515E+02 -0.14039846887E+02 -0.26625733838E+02  0.47872671061E+02  0.00000000000E+00 0.  1.
        -11    1    3    3    0    0 -0.57773067578E+02 -0.62231207740E+02 -0.41129570583E+03  0.41996977057E+03  0.00000000000E+00 0. -1.
         11    1    3    3    0    0  0.14414321769E+02  0.19912765915E+02 -0.94504391798E+02  0.97649224204E+02  0.00000000000E+00 0.  1.
          1    1    1    2  501    0  0.43103550388E+02  0.23320691266E+02  0.14017345604E+03  0.14849366477E+03  0.00000000000E+00 0. -1.
<scales pt_clust_5="13000.00000" pt_clust_6="13000.00000" pt_clust_7="13000.00000" pt_clust_8="13000.00000" pt_clust_9="49.00786"></scales>
<clustering>
<clus scale="   49.008">  1  9  2 -1</clus>
<clus scale="   90.980">  5  6 -1 -1</clus>
<clus scale="   91.787">  7  8 -1 -1</clus>
<clus scale="  103.389">  1  5  2 -1</clus>
<clus scale="   49.008">  1  5  2 -1</clus>
</clustering>
</event>
<event>
 9    1  0.1636528E-005  0.1018921E+03  0.7546771E-02  0.1277186E+00
          1   -1    0    0  502    0 -0.00000000000E+00  0.00000000000E+00  0.66958212455E+02  0.66958212455E+02  0.00000000000E+00 0. -1.
         21   -1    0    0  501  502  0.00000000000E+00 -0.00000000000E+00 -0.28691686113E+03  0.28691686113E+03  0.00000000000E+00 0.  1.
         23    2    1    2    0    0  0.36898097579E+02  0.37379724601E+02 -0.34901121440E+02  0.10998361883E+03  0.90108793789E+02 0.  0.
         23    2    1    2    0    0 -0.29675729463E+02 -0.18285241448E+02 -0.55733605851E+02  0.11296613814E+03  0.91870096172E+02 0.  0.
        -13    1    3    3    0    0  0.44918641378E+02 -0.16102767914E+02 -0.28359251972E+02  0.55508833983E+02  0.00000000000E+00 0.  1.
         13    1    3    3    0    0 -0.80205437998E+01  0.53482492515E+02 -0.65418694683E+01  0.54474784852E+02  0.00000000000E+00 0. -1.
        -13    1    4    4    0    0 -0.35037383286E+02  0.21050061925E+02 -0.60466725049E+02  0.72985945035E+02  0.00000000000E+00 0.  1.
         13    1    4    4    0    0  0.53616538227E+01 -0.39335303373E+02  0.47331191981E+01  0.39980193102E+02  0.00000000000E+00 0. -1.
          1    1    1    2  501    0 -0.72223681155E+01 -0.19094483154E+02 -0.12932392138E+03  0.13092531661E+03  0.00000000000E+00 0. -1.
<scales pt_clust_5="13000.00000" pt_clust_6="13000.00000" pt_clust_7="13000.00000" pt_clust_8="13000.00000" pt_clust_9="20.41475"></scales>
<clustering>
<clus scale="   20.415">  2  9  1 -1</clus>
<clus scale="   90.109">  5  6 -1 -1</clus>
<clus scale="   91.870">  7  8 -1 -1</clus>
<clus scale="  100.307">  1  5  2 -1</clus>
<clus scale="   20.415">  2  5  1 -1</clus>
</clustering>
</event>
<event>
 9    1  0.1636528E-005  0.9451172E+02  0.7546771E-02  0.1293579E+00
          2   -1    0    0  502    0 -0.00000000000E+00  0.00000000000E+00  0.83462855477E+03  0.83462855477E+03  0.00000000000E+00 0. -1.
         21   -1    0    0  501  502  0.00000000000E+00 -0.00000000000E+00 -0.27511821869E+02  0.27511821869E+02  0.00000000000E+00 0. -1.
         23    2    1    2    0    0 -0.12234955925E+02  0.32597058080E+02  0.51598601665E+03  0.52521165568E+03  0.91615782143E+02 0.  0.
         23    2    1    2    0    0  0.31442988680E+02  0.25071035838E+02  0.23336008482E+03  0.25307167931E+03  0.89281169944E+02 0.  0.
        -11    1    3    3    0    0  0.28955163856E+02  0.46272948487E+02  0.28189500321E+03  0.28713129420E+03  0.00000000000E+00 0. -1.
         11    1    3    3    0    0 -0.41190119782E+02 -0.13675890407E+02  0.23409101344E+03  0.23808036148E+03  0.00000000000E+00 0.  1.
        -11    1    4    4    0    0  0.27869186293E+02  0.53084840722E+02  0.20272767411E+03  0.21140766710E+03  0.00000000000E+00 0. -1.
         11    1    4    4    0    0  0.35738023872E+01 -0.28013804884E+02  0.30632410719E+02  0.41664012218E+02  0.00000000000E+00 0.  1.
          2    1    1    2  501    0 -0.19208032755E+02 -0.57668093918E+02  0.57770631419E+02  0.83857041642E+02  0.00000000000E+00 0. -1.
<scales pt_clust_5="13000.00000" pt_clust_6="13000.00000" pt_clust_7="13000.00000" pt_clust_8="13000.00000" pt_clust_9="60.78287"></scales>
<clustering>
<clus scale="   60.783">  2  9  1 -1</clus>
<clus scale="   89.281">  7  8 -1 -1</clus>
<clus scale="   91.616">  5  6 -1 -1</clus>
<clus scale="   92.250">  2  7  1 -1</clus>
<clus scale="   60.783">  2  5  1 -1</clus>
</clustering>
</event>
<event>
 9    1  0.1636528E-005  0.1066262E+03  0.7546771E-02  0.1267362E+00
         21   -1    0    0  501  502  0.00000000000E+00  0.00000000000E+00  0.30207027169E+02  0.30207027169E+02  0.00000000000E+00 0. -1.
          1   -1    0    0  502    0 -0.00000000000E+00 -0.00000000000E+00 -0.68530327683E+03  0.68530327683E+03  0.00000000000E+00 0. -1.
         23    2    1    2    0    0 -0.62569624561E+02  0.25424618130E+02 -0.37241170253E+03  0.38946030174E+03  0.91801314389E+02 0.  0.
         23    2    1    2    0    0  0.36813905225E+02 -0.18000181123E+02 -0.28216929342E+03  0.29924058545E+03  0.90808301900E+02 0.  0.
        -13    1    3    3    0    0  0.14617386052E+02  0.28522253743E+02 -0.16602957822E+03  0.16909467105E+03  0.00000000000E+00 0. -1.
         13    1    3    3    0    0 -0.77187010613E+02 -0.30976356122E+01 -0.20638212431E+03  0.22036563069E+03  0.00000000000E+00 0.  1.
        -13    1    4    4    0    0  0.63713660810E+02 -0.24339744109E+02 -0.23366188840E+03  0.24341267800E+03  0.00000000000E+00 0. -1.
         13    1    4    4    0    0 -0.26899755585E+02  0.63395629860E+01 -0.48507405014E+02  0.55827907453E+02  0.00000000000E+00 0.  1.
          1    1    1    2  501    0  0.25755719336E+02 -0.74244370078E+01 -0.51525371403E+00  0.26809416812E+02  0.00000000000E+00 0. -1.
<scales pt_clust_5="13000.00000" pt_clust_6="13000.00000" pt_clust_7="13000.00000" pt_clust_8="13000.00000" pt_clust_9="26.80446"></scales>
<clustering>
<clus scale="   26.804">  1  9  2 -1</clus>
<clus scale="   90.808">  7  8 -1 -1</clus>
<clus scale="   91.801">  5  6 -1 -1</clus>
<clus scale="  105.772">  1  7  2 -1</clus>
<clus scale="   26.804">  1  5  2 -1</clus>
</clustering>
</event>
<event>
 9    1  0.1636528E-005  0.1202603E+03  0.7546771E-02  0.1256003E+00
          1   -1    0    0  502    0 -0.00000000000E+00  0.00000000000E+00  0.65593197415E+03  0.65593197415E+03  0.00000000000E+00 0. -1.
         21   -1    0    0  501  502  0.00000000000E+00 -0.00000000000E+00 -0.40829478875E+02  0.40829478875E+02  0.00000000000E+00 0. -1.
         23    2    1    2    0    0 -0.40345375693E+02 -0.79304818052E+01  0.46916381734E+03  0.48362916554E+03  0.10996290456E+03 0.  0.
         23    2    1    2    0    0  0.59239952441E+02  0.31033325943E+02  0.15114134523E+03  0.18283683923E+03  0.78186726868E+02 0.  0.
        -13    1    3    3    0    0 -0.50030805589E+02 -0.50636894506E+02  0.24065400409E+03  0.25096120473E+03  0.00000000000E+00 0. -1.
         13    1    3    3    0    0  0.96854298953E+01  0.42706412700E+02  0.22850981325E+03  0.23266796081E+03  0.00000000000E+00 0.  1.
        -13    1    4    4    0    0  0.23931003027E+02  0.47250870528E+02  0.43966208562E+02  0.68835784058E+02  0.00000000000E+00 0.  1.
         13    1    4    4    0    0  0.35308949414E+02 -0.16217544585E+02  0.10717513667E+03  0.11400105518E+03  0.00000000000E+00 0. -1.
          1    1    1    2  501    0 -0.18894576747E+02 -0.23102844137E+02 -0.52026672979E+01  0.30295448251E+02  0.00000000000E+00 0. -1.
<scales pt_clust_5="13000.00000" pt_clust_6="13000.00000" pt_clust_7="13000.00000" pt_clust_8="13000.00000" pt_clust_9="29.84538"></scales>
<clustering>
<clus scale="   29.845">  2  9  1 -1</clus>
<clus scale="   78.187">  7  8 -1 -1</clus>
<clus scale="   92.108">  2  7  1 -1</clus>
<clus scale="  109.963">  5  6 -1 -1</clus>
<clus scale="   29.845">  2  5  1 -1</clus>
</clustering>
</event>
<event>
 9    1  0.1636528E-005  0.1014353E+03  0.7546771E-02  0.1277923E+00
         -1   -1    0    0    0  501 -0.00000000000E+00  0.00000000000E+00  0.18568185592E+03  0.18568185592E+03  0.00000000000E+00 0.  1.
         21   -1    0    0  501  502  0.00000000000E+00 -0.00000000000E+00 -0.79290723468E+02  0.79290723468E+02  0.00000000000E+00 0. -1.
         23    2    1    2    0    0 -0.36776886617E+02  0.24514625414E+02  0.46885563377E+02  0.11253883787E+03  0.92267154111E+02 0.  0.
         23    2    1    2    0    0  0.40650697604E+02  0.12668064725E+02  0.40318501654E+02  0.11041347957E+03  0.93555308863E+02 0.  0.
        -11    1    4    4    0    0  0.43404677896E+02 -0.29974314332E+02  0.42332540951E+02  0.67634825395E+02  0.00000000000E+00 0.  1.
         11    1    4    4    0    0 -0.27539802921E+01  0.42642379056E+02 -0.20140392967E+01  0.42778654178E+02  0.00000000000E+00 0. -1.
        -13    1    3    3    0    0 -0.53103562006E+02  0.72479326291E+01 -0.66107452458E+01  0.54002062718E+02  0.00000000000E+00 0. -1.
         13    1    3    3    0    0  0.16326675390E+02  0.17266692785E+02  0.53496308623E+02  0.58536775153E+02  0.00000000000E+00 0.  1.
         -1    1    1    2    0  502 -0.38738109873E+01 -0.37182690139E+02  0.19187067421E+02  0.42020261943E+02  0.00000000000E+00 0.  1.
<scales pt_clust_5="13000.00000" pt_clust_6="13000.00000" pt_clust_7="13000.00000" pt_clust_8="13000.00000" pt_clust_9="37.38396"></scales>
<clustering>
<clus scale="   37.384">  2  9  1 -1</clus>
<clus scale="   92.267">  7  8 -1 -1</clus>
<clus scale="   93.555">  5  6 -1 -1</clus>
<clus scale="  100.248">  1  7  2 -1</clus>
<clus scale="   37.384">  2  5  1 -1</clus>
</clustering>
</event>
<event>
 9    1  0.1636528E-005  0.1019202E+03  0.7546771E-02  0.1276866E+00
         21   -1    0    0  501  502  0.00000000000E+00  0.00000000000E+00  0.47407824348E+02  0.47407824348E+02  0.00000000000E+00 0.  1.
         -3   -1    0    0    0  501 -0.00000000000E+00 -0.00000000000E+00 -0.36914851884E+03  0.36914851884E+03  0.00000000000E+00 0.  1.
         23    2    1    2    0    0  0.24125928476E+02 -0.22576262471E+02 -0.17665947374E+03  0.20154165641E+03  0.91207025799E+02 0.  0.
         23    2    1    2    0    0 -0.42367583909E+02  0.37658767005E+02 -0.15516989612E+03  0.18928491207E+03  0.92400683839E+02 0.  0.
        -13    1    3    3    0    0 -0.25014429811E+02 -0.69157645914E+01 -0.11264952294E+02  0.28292201201E+02  0.00000000000E+00 0. -1.
         13    1    3    3    0    0  0.49140358287E+02 -0.15660497880E+02 -0.16539452144E+03  0.17324945521E+03  0.00000000000E+00 0.  1.
        -13    1    4    4    0    0  0.16827053980E+02  0.37234793668E+02 -0.29581073583E+02  0.50444221864E+02  0.00000000000E+00 0.  1.
         13    1    4    4    0    0 -0.59194637889E+02  0.42397333653E+00 -0.12558882254E+03  0.13884069020E+03  0.00000000000E+00 0. -1.
         -3    1    1    2    0  502  0.18241655433E+02 -0.15082504534E+02  0.10088675372E+02  0.25729774711E+02  0.00000000000E+00 0.  1.
<scales pt_clust_5="13000.00000" pt_clust_6="13000.00000" pt_clust_7="13000.00000" pt_clust_8="13000.00000" pt_clust_9="23.66939"></scales>
<clustering>
<clus scale="   23.669">  1  9  2 -1</clus>
<clus scale="   91.207">  5  6 -1 -1</clus>
<clus scale="   92.401">  7  8 -1 -1</clus>
<clus scale="  100.839">  2  5  1 -1</clus>
<clus scale="   23.669">  1  5  2 -1</clus>
</clustering>
</event>
<event>
 9    1  0.1636528E-005  0.9961861E+02  0.7546771E-02  0.1286832E+00
         -1   -1    0    0    0  501 -0.00000000000E+00  0.00000000000E+00  0.33244513385E+03  0.33244513385E+03  0.00000000000E+00 0.  1.
         21   -1    0    0  501  502  0.00000000000E+00 -0.00000000000E+00 -0.42470223226E+02  0.42470223226E+02  0.00000000000E+00 0.  1.
         23    2    1    2    0    0  0.48242138134E+02 -0.14058978352E+02  0.19873422870E+03  0.21997672612E+03  0.79809195041E+02 0.  0.
         23    2    1    2    0    0 -0.17897294949E+02  0.84491158824E+01  0.77092422694E+02  0.12099082832E+03  0.91125398076E+02 0.  0.
        -13    1    3    3    0    0 -0.91756175508E+01 -0.24087116730E+02  0.11564054820E+03  0.11847834206E+03  0.00000000000E+00 0.  1.
         13    1    3    3    0    0  0.57417755685E+02  0.10028138377E+02  0.83093680503E+02  0.10149838406E+03  0.00000000000E+00 0. -1.
        -13    1    4    4    0    0 -0.62941045424E+01 -0.37014708365E+02  0.95354797046E+01  0.38737962782E+02  0.00000000000E+00 0.  1.
         13    1    4    4    0    0 -0.11603190406E+02  0.45463824247E+02  0.67556942989E+02  0.82252865536E+02  0.00000000000E+00 0. -1.
         -1    1    1    2    0  502 -0.30344843185E+02  0.56098624697E+01  0.14148259231E+02  0.33947802641E+02  0.00000000000E+00 0.  1.
<scales pt_clust_5="13000.00000" pt_clust_6="13000.00000" pt_clust_7="13000.00000" pt_clust_8="13000.00000" pt_clust_9="30.85904"></scales>
<clustering>
<clus scale="   30.859">  2  9  1 -1</clus>
<clus scale="   79.809">  5  6 -1 -1</clus>
<clus scale="   89.384">  1  5  2 -1</clus>
<clus scale="   91.125">  7  8 -1 -1</clus>
<clus scale="   30.859">  2  5  1 -1</clus>
</clustering>
</event>
<event>
 9    1  0.1636528E-005  0.1396826E+03  0.7546771E-02  0.1214442E+00
         21   -1    0    0  501  502  0.00000000000E+00  0.00000000000E+00  0.20156430071E+03  0.20156430071E+03  0.00000000000E+00 0.  1.
         -1   -1    0    0    0  501 -0.00000000000E+00 -0.00000000000E+00 -0.48830186551E+03  0.48830186551E+03  0.00000000000E+00 0.  1.
         23    2    1    2    0    0 -0.10105696456E+03  0.11438121459E+02 -0.41365039737E+03  0.43626062234E+03  0.94198400476E+02 0.  0.
         23    2    1    2    0    0  0.11967683771E+03  0.31582679873E+02  0.46649404142E+02  0.16065551986E+03  0.91181237114E+02 0.  0.
        -11    1    3    3    0    0 -0.93642554468E+01  0.39744751033E+02 -0.15805843564E+03  0.16324767561E+03  0.00000000000E+00 0.  1.
         11    1    3    3    0    0 -0.91692709113E+02 -0.28306629574E+02 -0.25559196173E+03  0.27301294673E+03  0.00000000000E+00 0. -1.
        -13    1    4    4    0    0  0.80465801561E+02  0.53037312408E+02  0.45052994742E+00  0.96373776026E+02  0.00000000000E+00 0.  1.
         13    1    4    4    0    0  0.39211036149E+02 -0.21454632536E+02  0.46198874195E+02  0.64281743831E+02  0.00000000000E+00 0. -1.
         -1    1    1    2    0  502 -0.18619873150E+02 -0.43020801332E+02  0.80263428427E+02  0.92950024025E+02  0.00000000000E+00 0.  1.
<scales pt_clust_5="13000.00000" pt_clust_6="13000.00000" pt_clust_7="13000.00000" pt_clust_8="13000.00000" pt_clust_9="46.87738"></scales>
<clustering>
<clus scale="   46.877">  1  9  2 -1</clus>
<clus scale="   91.181">  7  8 -1 -1</clus>
<clus scale="   94.198">  5  6 -1 -1</clus>
<clus scale="  137.666">  1  7  2 -1</clus>
<clus scale="   46.877">  1  5  2 -1</clus>
</clustering>
</event>
<event>
 9    1  0.1636528E-005  0.1813266E+03  0.7546771E-02  0.1181903E+00
         21   -1    0    0  501  502  0.00000000000E+00  0.00000000000E+00  0.47536391927E+03  0.47536391927E+03  0.00000000000E+00 0. -1.
          1   -1    0    0  502    0 -0.00000000000E+00 -0.00000000000E+00 -0.17869710914E+03  0.17869710914E+03  0.00000000000E+00 0. -1.
         23    2    1    2    0    0  0.22777111791E+02 -0.66551972419E+02  0.96029475386E+02  0.15992521723E+03  0.10680099770E+03 0.  0.
         23    2    1    2    0    0 -0.89804532884E+02  0.19722068103E+03 -0.13066110979E+02  0.23483646813E+03  0.89535425129E+02 0.  0.
        -13    1    3    3    0    0 -0.24565203701E+02 -0.39478958579E+02 -0.32939102989E+01  0.46614238687E+02  0.00000000000E+00 0.  1.
         13    1    3    3    0    0  0.47342315493E+02 -0.27073013841E+02  0.99323385685E+02  0.11331097854E+03  0.00000000000E+00 0. -1.
        -13    1    4    4    0    0 -0.72512920793E+01  0.10732259254E+03 -0.29858996416E+02  0.11163458144E+03  0.00000000000E+00 0. -1.
         13    1    4    4    0    0 -0.82553240804E+02  0.89898088492E+02  0.16792885437E+02  0.12320188669E+03  0.00000000000E+00 0.  1.
          1    1    1    2  501    0  0.67027421092E+02 -0.13066870861E+03  0.21370344572E+03  0.25929934304E+03  0.00000000000E+00 0. -1.
<scales pt_clust_5="13000.00000" pt_clust_6="13000.00000" pt_clust_7="13000.00000" pt_clust_8="13000.00000" pt_clust_9="157.67922"></scales>
<clustering>
<clus scale="   89.535">  7  8 -1 -1</clus>
<clus scale="  106.801">  5  6 -1 -1</clus>
<clus scale="  127.884">  2  5  1 -1</clus>
<clus scale="  157.679">  1  9  2 -1</clus>
<clus scale="  157.679">  1  5  2 -1</clus>
</clustering>
</event>
<event>
 9    1  0.1636528E-005  0.1109581E+03  0.7546771E-02  0.1261322E+00
          1   -1    0    0  502    0 -0.00000000000E+00  0.00000000000E+00  0.44789921660E+03  0.44789921660E+03  0.00000000000E+00 0. -1.
         21   -1    0    0  501  502  0.00000000000E+00 -0.00000000000E+00 -0.42037942201E+02  0.42037942201E+02  0.00000000000E+00 0.  1.
         23    2    1    2    0    0  0.48284966427E+01 -0.46170004175E+02  0.27420885235E+03  0.29450980919E+03  0.96904846844E+02 0.  0.
         23    2    1    2    0    0  0.14621151183E+01  0.73018043868E+02  0.11185063299E+03  0.16147886095E+03  0.90725332313E+02 0.  0.
        -11    1    3    3    0    0 -0.36254588919E+02 -0.53828763522E+02  0.14930924342E+03  0.16280411902E+03  0.00000000000E+00 0. -1.
         11    1    3    3    0    0  0.41083085562E+02  0.76587593475E+01  0.12489960893E+03  0.13170569017E+03  0.00000000000E+00 0.  1.
        -11    1    4    4    0    0 -0.37297231404E+02  0.54426756590E+02  0.38309214254E+02  0.76295158431E+02  0.00000000000E+00 0.  1.
         11    1    4    4    0    0  0.38759346522E+02  0.18591287279E+02  0.73541418736E+02  0.85183702521E+02  0.00000000000E+00 0. -1.
          1    1    1    2  501    0 -0.62906117610E+01 -0.26848039694E+02  0.19801789061E+02  0.33948488652E+02  0.00000000000E+00 0. -1.
<scales pt_clust_5="13000.00000" pt_clust_6="13000.00000" pt_clust_7="13000.00000" pt_clust_8="13000.00000" pt_clust_9="27.57515"></scales>
<clustering>
<clus scale="   27.575">  2  9  1 -1</clus>
<clus scale="   90.725">  7  8 -1 -1</clus>
<clus scale="   96.905">  5  6 -1 -1</clus>
<clus scale="  105.604">  2  7  1 -1</clus>
<clus scale="   27.575">  2  5  1 -1</clus>
</clustering>
</event>
<event>
 9    1  0.1636528E-005  0.1477326E+03  0.7546771E-02  0.1204712E+00
         -1   -1    0    0    0  501 -0.00000000000E+00  0.00000000000E+00  0.51271513622E+03  0.51271513622E+03  0.00000000000E+00 0.  1.
         21   -1    0    0  501  502  0.00000000000E+00 -0.00000000000E+00 -0.74008951552E+02  0.74008951552E+02  0.00000000000E+00 0.  1.
         23    2    1    2    0    0 -0.10091196166E+03 -0.90125062105E+01  0.23392195557E+03  0.27173382366E+03  0.94102817963E+02 0.  0.
         23    2    1    2    0    0  0.11205043705E+03  0.37566240475E+02  0.22846368097E+03  0.27625916787E+03  0.10078170193E+03 0.  0.
        -13    1    3    3    0    0 -0.11030092708E+03 -0.30476530439E+02  0.20160758488E+03  0.23182047300E+03  0.00000000000E+00 0. -1.
         13    1    3    3    0    0  0.93889654164E+01  0.21464024228E+02  0.32314370695E+02  0.39913350662E+02  0.00000000000E+00 0.  1.
        -13    1    4    4    0    0 -0.13387362267E+02  0.21948781738E+02  0.62941890320E+02  0.67990087846E+02  0.00000000000E+00 0. -1.
         13    1    4    4    0    0  0.12543779931E+03  0.15617458738E+02  0.16552179065E+03  0.20826908003E+03  0.00000000000E+00 0.  1.
         -1    1    1    2    0  502 -0.11138475386E+02 -0.28553734265E+02 -0.23679451879E+02  0.38731096236E+02  0.00000000000E+00 0.  1.
<scales pt_clust_5="13000.00000" pt_clust_6="13000.00000" pt_clust_7="13000.00000" pt_clust_8="13000.00000" pt_clust_9="30.64933"></scales>
<clustering>
<clus scale="   30.649">  2  9  1 -1</clus>
<clus scale="   94.103">  5  6 -1 -1</clus>
<clus scale="  100.782">  7  8 -1 -1</clus>
<clus scale="  143.260">  1  5  2 -1</clus>
<clus scale="   30.649">  2  5  1 -1</clus>
</clustering>
</event>
<event>
 9    1  0.1636528E-005  0.1031655E+03  0.7546771E-02  0.1276190E+00
          2   -1    0    0  502    0 -0.00000000000E+00  0.00000000000E+00  0.59998169622E+03  0.59998169622E+03  0.00000000000E+00 0. -1.
         21   -1    0    0  501  502  0.00000000000E+00 -0.00000000000E+00 -0.49656031654E+02  0.49656031654E+02  0.00000000000E+00 0. -1.
         23    2    1    2    0    0  0.44660155098E+02  0.24691341098E+02  0.34457025150E+03  0.35970058124E+03  0.89731032240E+02 0.  0.
         23    2    1    2    0    0 -0.15519436884E+02 -0.60156993735E+02  0.21849332772E+03  0.24230051740E+03  0.84323719412E+02 0.  0.
        -11    1    4    4    0    0 -0.10842965228E+02 -0.35964485313E+02  0.21397773276E+03  0.21724981983E+03  0.00000000000E+00 0. -1.
         11    1    4    4    0    0 -0.46764716559E+01 -0.24192508422E+02  0.45155949651E+01  0.25050697571E+02  0.00000000000E+00 0.  1.
        -13    1    3    3    0    0 -0.14215410618E+02  0.21710605149E+02  0.30054011583E+02  0.39707327878E+02  0.00000000000E+00 0.  1.
         13    1    3    3    0    0  0.58875565717E+02  0.29807359485E+01  0.31451623992E+03  0.31999325337E+03  0.00000000000E+00 0. -1.
          2    1    1    2  501    0 -0.29140718215E+02  0.35465652637E+02 -0.12737914658E+02  0.47636629235E+02  0.00000000000E+00 0. -1.
<scales pt_clust_5="13000.00000" pt_clust_6="13000.00000" pt_clust_7="13000.00000" pt_clust_8="13000.00000" pt_clust_9="45.90200"></scales>
<clustering>
<clus scale="   45.902">  2  9  1 -1</clus>
<clus scale="   84.324">  5  6 -1 -1</clus>
<clus scale="   89.731">  7  8 -1 -1</clus>
<clus scale="   98.499">  2  5  1 -1</clus>
<clus scale="   45.902">  2  5  1 -1</clus>
</clustering>
</event>
<event>
 9    1  0.1636528E-005  0.1078002E+03  0.7546771E-02  0.1266799E+00
         21   -1    0    0  501  502  0.00000000000E+00  0.00000000000E+00  0.44456318746E+02  0.44456318746E+02  0.00000000000E+00 0. -1.
          1   -1    0    0  502    0 -0.00000000000E+00 -0.00000000000E+00 -0.51006726721E+03  0.51006726721E+03  0.00000000000E+00 0. -1.
         23    2    1    2    0    0 -0.45767932025E+02  0.55708150071E+02 -0.27202331304E+03  0.29595924442E+03  0.91635636823E+02 0.  0.
         23    2    1    2    0    0 -0.26400671290E+01 -0.48667536578E+02 -0.18346221598E+03  0.20861007505E+03  0.86511731290E+02 0.  0.
        -11    1    3    3    0    0 -0.73546101076E+02  0.40214581292E+02 -0.21322140592E+03  0.22910610964E+03  0.00000000000E+00 0. -1.
         11    1    3    3    0    0  0.27778169050E+02  0.15493568779E+02 -0.58801907114E+02  0.66853134777E+02  0.00000000000E+00 0.  1.
        -11    1    4    4    0    0  0.34554491777E+02  0.23386987698E+01 -0.48311648131E+02  0.59443231398E+02  0.00000000000E+00 0.  1.
         11    1    4    4    0    0 -0.37194558906E+02 -0.51006235348E+02 -0.13515056785E+03  0.14916684365E+03  0.00000000000E+00 0. -1.
          1    1    1    2  501    0  0.48407999154E+02 -0.70406134926E+01 -0.10125419445E+02  0.49954266479E+02  0.00000000000E+00 0. -1.
<scales pt_clust_5="13000.00000" pt_clust_6="13000.00000" pt_clust_7="13000.00000" pt_clust_8="13000.00000" pt_clust_9="48.91732"></scales>
<clustering>
<clus scale="   48.917">  1  9  2 -1</clus>
<clus scale="   86.512">  7  8 -1 -1</clus>
<clus scale="   91.636">  5  6 -1 -1</clus>
<clus scale="  103.480">  1  7  2 -1</clus>
<clus scale="   48.917">  1  5  2 -1</clus>
</clustering>
</event>
<event>
 9    1  0.1636528E-005  0.1285235E+03  0.7546771E-02  0.1230131E+00
         21   -1    0    0  501  502  0.00000000000E+00  0.00000000000E+00  0.16392637881E+04  0.16392637881E+04  0.00000000000E+00 0.  1.
         -1   -1    0    0    0  501 -0.00000000000E+00 -0.00000000000E+00 -0.24306020377E+02  0.24306020377E+02  0.00000000000E+00 0.  1.
         23    2    1    2    0    0 -0.52028263148E+02  0.57743237927E+02  0.33309969326E+03  0.35417812007E+03  0.91899474410E+02 0.  0.
         23    2    1    2    0    0  0.13427800937E+03 -0.32856121580E+00  0.69435590570E+03  0.71338811110E+03  0.93604388413E+02 0.  0.
        -13    1    3    3    0    0 -0.28285659705E+02  0.80796908652E+02  0.26460070919E+03  0.27810385523E+03  0.00000000000E+00 0.  1.
         13    1    3    3    0    0 -0.23742603443E+02 -0.23053670726E+02  0.68498984072E+02  0.76074264841E+02  0.00000000000E+00 0. -1.
        -13    1    4    4    0    0  0.11373331371E+03 -0.31519337130E+02  0.60725406033E+03  0.61861638278E+03  0.00000000000E+00 0.  1.
         13    1    4    4    0    0  0.20544695653E+02  0.31190775914E+02  0.87101845365E+02  0.94771728314E+02  0.00000000000E+00 0. -1.
         -1    1    1    2    0  502 -0.82249746218E+02 -0.57414676711E+02  0.58750216880E+03  0.59600357734E+03  0.00000000000E+00 0.  1.
<scales pt_clust_5="13000.00000" pt_clust_6="13000.00000" pt_clust_7="13000.00000" pt_clust_8="13000.00000" pt_clust_9="100.30686"></scales>
<clustering>
<clus scale="   91.899">  5  6 -1 -1</clus>
<clus scale="   93.604">  7  8 -1 -1</clus>
<clus scale="  100.307">  1  9  2 -1</clus>
<clus scale="  127.287">  2  5  1 -1</clus>
<clus scale="  100.307">  1  5  2 -1</clus>
</clustering>
</event>
<event>
 9    1  0.1636528E-005  0.1340968E+03  0.7546771E-02  0.1221904E+00
          2   -1    0    0  502    0 -0.00000000000E+00  0.00000000000E+00  0.58159229234E+03  0.58159229234E+03  0.00000000000E+00 0. -1.
         21   -1    0    0  501  502  0.00000000000E+00 -0.00000000000E+00 -0.62933820474E+02  0.62933820474E+02  0.00000000000E+00 0. -1.
         23    2    1    2    0    0 -0.75981659679E+02 -0.52844739527E+02  0.36573156610E+03  0.38786705744E+03  0.90086051639E+02 0.  0.
         23    2    1    2    0    0  0.10949501410E+03  0.53634563698E+02  0.71311605129E+02  0.16842739414E+03  0.91742125186E+02 0.  0.
        -11    1    3    3    0    0 -0.38868875840E+02  0.10106822529E+02  0.51816276218E+02  0.65558095242E+02  0.00000000000E+00 0.  1.
         11    1    3    3    0    0 -0.37112783839E+02 -0.62951562056E+02  0.31391528988E+03  0.32230896220E+03  0.00000000000E+00 0. -1.
        -13    1    4    4    0    0  0.20856976438E+02  0.54393157042E+02  0.51146005515E+02  0.77521241471E+02  0.00000000000E+00 0.  1.
         13    1    4    4    0    0  0.88638037664E+02 -0.75859334379E+00  0.20165599614E+02  0.90906152667E+02  0.00000000000E+00 0. -1.
          2    1    1    2  501    0 -0.33513354422E+02 -0.78982417103E+00  0.81615300634E+02  0.88231661236E+02  0.00000000000E+00 0. -1.
<scales pt_clust_5="13000.00000" pt_clust_6="13000.00000" pt_clust_7="13000.00000" pt_clust_8="13000.00000" pt_clust_9="33.52268"></scales>
<clustering>
<clus scale="   33.523">  2  9  1 -1</clus>
<clus scale="   90.086">  5  6 -1 -1</clus>
<clus scale="   91.742">  7  8 -1 -1</clus>
<clus scale="  132.969">  1  5  2 -1</clus>
<clus scale="   33.523">  2  5  1 -1</clus>
</clustering>
</event>
<event>
 9    1  0.1636528E-005  0.1519771E+03  0.7546771E-02  0.1199633E+00
         21   -1    0    0  501  502  0.00000000000E+00  0.00000000000E+00  0.15528203583E+03  0.15528203583E+03  0.00000000000E+00 0. -1.
          2   -1    0    0  502    0 -0.00000000000E+00 -0.00000000000E+00 -0.39578087329E+03  0.39578087329E+03  0.00000000000E+00 0. -1.
         23    2    1    2    0    0 -0.35426555270E+02  0.11214188327E+03 -0.30319952223E+03  0.33633621300E+03  0.85797756918E+02 0.  0.
         23    2    1    2    0    0  0.75320902027E+02 -0.11092566269E+03  0.39620971144E+02  0.16862125960E+03  0.94263285060E+02 0.  0.
        -11    1    3    3    0    0  0.21020952351E+02  0.53448223548E+02 -0.77985301111E+02  0.96851950045E+02  0.00000000000E+00 0.  1.
         11    1    3    3    0    0 -0.56447507621E+02  0.58693659723E+02 -0.22521422112E+03  0.23948426296E+03  0.00000000000E+00 0. -1.
        -13    1    4    4    0    0 -0.16316866316E+02 -0.29956740586E+02  0.30899494336E+02  0.46026353138E+02  0.00000000000E+00 0.  1.
         13    1    4    4    0    0  0.91637768343E+02 -0.80968922101E+02  0.87214768079E+01  0.12259490646E+03  0.00000000000E+00 0. -1.
          2    1    1    2  501    0 -0.39894346757E+02 -0.12162205843E+01  0.23079713628E+02  0.46105436521E+02  0.00000000000E+00 0. -1.
<scales pt_clust_5="13000.00000" pt_clust_6="13000.00000" pt_clust_7="13000.00000" pt_clust_8="13000.00000" pt_clust_9="39.91288"></scales>
<clustering>
<clus scale="   39.913">  1  9  2 -1</clus>
<clus scale="   85.798">  5  6 -1 -1</clus>
<clus scale="   94.263">  7  8 -1 -1</clus>
<clus scale="  146.877">  2  5  1 -1</clus>
<clus scale="   39.913">  1  5  2 -1</clus>
</clustering>
</event>
<event>
 9    1  0.1636528E-005  0.1146436E+03  0.7546771E-02  0.1252268E+00
          2   -1    0    0  502    0 -0.00000000000E+00  0.00000000000E+00  0.38700993277E+03  0.38700993277E+03  0.00000000000E+00 0. -1.
         21   -1    0    0  501  502  0.00000000000E+00 -0.00000000000E+00 -0.77477202372E+02  0.77477202372E+02  0.00000000000E+00 0. -1.
         23    2    1    2    0    0 -0.68701686692E+01 -0.76972408991E+02  0.26017360590E+03  0.28672008023E+03  0.92445379726E+02 0.  0.
         23    2    1    2    0    0  0.16033966324E+02  0.47856639558E+02  0.81791222589E+02  0.13323005676E+03  0.92266450603E+02 0.  0.
        -11    1    3    3    0    0  0.35715125322E+02 -0.38569416820E+02  0.18408279549E+03  0.19144097180E+03  0.00000000000E+00 0.  1.
         11    1    3    3    0    0 -0.42585293991E+02 -0.38402992171E+02  0.76090810416E+02  0.95279108422E+02  0.00000000000E+00 0. -1.
        -13    1    4    4    0    0  0.32331580678E+02  0.63439927885E+01  0.82278373165E+02  0.88630175698E+02  0.00000000000E+00 0. -1.
         13    1    4    4    0    0 -0.16297614354E+02  0.41512646769E+02 -0.48715057573E+00  0.44599881066E+02  0.00000000000E+00 0.  1.
          2    1    1    2  501    0 -0.91637976550E+01  0.29115769434E+02 -0.32432098097E+02  0.44536998149E+02  0.00000000000E+00 0. -1.
<scales pt_clust_5="13000.00000" pt_clust_6="13000.00000" pt_clust_7="13000.00000" pt_clust_8="13000.00000" pt_clust_9="30.52381"></scales>
<clustering>
<clus scale="   30.524">  2  9  1 -1</clus>
<clus scale="   92.266">  7  8 -1 -1</clus>
<clus scale="   92.445">  5  6 -1 -1</clus>
<clus scale="  114.499">  2  7  1 -1</clus>
<clus scale="   30.524">  2  5  1 -1</clus>
</clustering>
</event>
<event>
 9    1  0.1636528E-005  0.1085989E+03  0.7546771E-02  0.1263380E+00
         21   -1    0    0  501  502  0.00000000000E+00  0.00000000000E+00  0.20670738746E+03  0.20670738746E+03  0.00000000000E+00 0. -1.
          1   -1    0    0  502    0 -0.00000000000E+00 -0.00000000000E+00 -0.35665159449E+03  0.35665159449E+03  0.00000000000E+00 0. -1.
         23    2    1    2    0    0  0.76720306342E+02  0.35543660890E+01 -0.27478686651E+03  0.29944588277E+03  0.90892110640E+02 0.  0.
         23    2    1    2    0    0 -0.88455232191E+01  0.64347365761E+01 -0.28151249090E+02  0.96241084760E+02  0.91379453132E+02 0.  0.
        -11    1    3    3    0    0  0.25793833163E+02  0.45814256227E+02 -0.11223101785E+03  0.12393574654E+03  0.00000000000E+00 0.  1.
         11    1    3    3    0    0  0.50926473178E+02 -0.42259890138E+02 -0.16255584867E+03  0.17551013623E+03  0.00000000000E+00 0. -1.
        -11    1    4    4    0    0  0.30907764201E+02  0.26851536658E+02  0.40735654405E+01  0.41144730454E+02  0.00000000000E+00 0. -1.
         11    1    4    4    0    0 -0.39753287420E+02 -0.20416800081E+02 -0.32224814531E+02  0.55096354306E+02  0.00000000000E+00 0.  1.
          1    1    1    2  501    0 -0.67874783122E+02 -0.99891026651E+01  0.15299390858E+03  0.16767201441E+03  0.00000000000E+00 0. -1.
<scales pt_clust_5="13000.00000" pt_clust_6="13000.00000" pt_clust_7="13000.00000" pt_clust_8="13000.00000" pt_clust_9="68.60589"></scales>
<clustering>
<clus scale="   68.606">  1  9  2 -1</clus>
<clus scale="   90.892">  5  6 -1 -1</clus>
<clus scale="   91.379">  7  8 -1 -1</clus>
<clus scale="  108.189">  2  5  1 -1</clus>
<clus scale="   68.606">  1  5  2 -1</clus>
</clustering>
</event>
<event>
 9    1  0.1636528E-005  0.1057751E+03  0.7546771E-02  0.1269114E+00
         21   -1    0    0  501  502  0.00000000000E+00  0.00000000000E+00  0.58643924952E+02  0.58643924952E+02  0.00000000000E+00 0.  1.
          1   -1    0    0  502    0 -0.00000000000E+00 -0.00000000000E+00 -0.28579598570E+03  0.28579598570E+03  0.00000000000E+00 0. -1.
         23    2    1    2    0    0 -0.14663392761E+02 -0.53946424675E+02 -0.14997655098E+03  0.18502593250E+03  0.92824555111E+02 0.  0.
         23    2    1    2    0    0 -0.96149465197E+01  0.45737977058E+02 -0.84102988424E+02  0.13286578930E+03  0.91627482577E+02 0.  0.
        -11    1    3    3    0    0 -0.17463792770E+02  0.14994705805E+02 -0.92207617845E+02  0.95037203498E+02  0.00000000000E+00 0.  1.
         11    1    3    3    0    0  0.28004000097E+01 -0.68941130480E+02 -0.57768933139E+02  0.89988729006E+02  0.00000000000E+00 0. -1.
        -11    1    4    4    0    0  0.35702272358E+02  0.33089738077E+02 -0.18368701275E+02  0.52028763238E+02  0.00000000000E+00 0.  1.
         11    1    4    4    0    0 -0.45317218878E+02  0.12648238981E+02 -0.65734287149E+02  0.80837026065E+02  0.00000000000E+00 0. -1.
          1    1    1    2  501    0  0.24278339280E+02  0.82084476170E+01  0.69274786571E+01  0.26548188847E+02  0.00000000000E+00 0. -1.
<scales pt_clust_5="13000.00000" pt_clust_6="13000.00000" pt_clust_7="13000.00000" pt_clust_8="13000.00000" pt_clust_9="25.62843"></scales>
<clustering>
<clus scale="   25.628">  1  9  2 -1</clus>
<clus scale="   91.627">  7  8 -1 -1</clus>
<clus scale="   92.825">  5  6 -1 -1</clus>
<clus scale="  104.726">  1  7  2 -1</clus>
<clus scale="   25.628">  1  5  2 -1</clus>
</clustering>
</event>
<event>
 9    1  0.1636528E-005  0.1322681E+03  0.7546771E-02  0.1224192E+00
         -3   -1    0    0    0  501 -0.00000000000E+00  0.00000000000E+00  0.21291839843E+03  0.21291839843E+03  0.00000000000E+00 0.  1.
         21   -1    0    0  501  502  0.00000000000E+00 -0.00000000000E+00 -0.18857086720E+03  0.18857086720E+03  0.00000000000E+00 0.  1.
         23    2    1    2    0    0 -0.25310852307E+02 -0.89523303341E+02  0.12610347499E+03  0.18147266682E+03  0.91516016691E+02 0.  0.
         23    2    1    2    0    0 -0.45098642803E+01  0.10632730749E+03 -0.34723957992E+02  0.14475082433E+03  0.91767165641E+02 0.  0.
        -11    1    4    4    0    0 -0.37771646846E+02  0.99290177417E+02 -0.22253188980E+02  0.10853774024E+03  0.00000000000E+00 0.  1.
         11    1    4    4    0    0  0.33261782566E+02  0.70371300765E+01 -0.12470769011E+02  0.36213084084E+02  0.00000000000E+00 0. -1.
        -11    1    3    3    0    0  0.29093070985E+02 -0.46485530253E+02  0.28708047864E+02  0.61898815129E+02  0.00000000000E+00 0. -1.
         11    1    3    3    0    0 -0.54403923292E+02 -0.43037773088E+02  0.97395427131E+02  0.11957385169E+03  0.00000000000E+00 0.  1.
         -3    1    1    2    0  502  0.29820716587E+02 -0.16804004152E+02 -0.67031985774E+02  0.75265774494E+02  0.00000000000E+00 0.  1.
<scales pt_clust_5="13000.00000" pt_clust_6="13000.00000" pt_clust_7="13000.00000" pt_clust_8="13000.00000" pt_clust_9="34.22937"></scales>
<clustering>
<clus scale="   34.229">  2  9  1 -1</clus>
<clus scale="   91.516">  7  8 -1 -1</clus>
<clus scale="   91.767">  5  6 -1 -1</clus>
<clus scale="  132.094">  1  7  2 -1</clus>
<clus scale="   34.229">  2  5  1 -1</clus>
</clustering>
</event>
<event>
 9    1  0.1636528E-005  0.1240828E+03  0.7546771E-02  0.1236580E+00
         21   -1    0    0  501  502  0.00000000000E+00  0.00000000000E+00  0.63930617354E+03  0.63930617354E+03  0.00000000000E+00 0.  1.
          1   -1    0    0  502    0 -0.00000000000E+00 -0.00000000000E+00 -0.12271584175E+03  0.12271584175E+03  0.00000000000E+00 0. -1.
         23    2    1    2    0    0  0.71038021445E+02 -0.44259914997E+02 -0.58010422637E+02  0.13674133101E+03  0.91255914352E+02 0.  0.
         23    2    1    2    0    0 -0.48645654594E+02  0.89315513147E+02  0.55458576613E+03  0.57113251003E+03  0.91012699259E+02 0.  0.
        -13    1    4    4    0    0 -0.71345325877E+02  0.68411896028E+02  0.48562353458E+03  0.49558103311E+03  0.00000000000E+00 0.  1.
         13    1    4    4    0    0  0.22699671283E+02  0.20903617119E+02  0.68962231548E+02  0.75551476922E+02  0.00000000000E+00 0. -1.
        -13    1    3    3    0    0  0.35652311894E+02 -0.80381689310E+00  0.19847145293E+02  0.40812285421E+02  0.00000000000E+00 0.  1.
         13    1    3    3    0    0  0.35385709551E+02 -0.43456098104E+02 -0.77857567930E+02  0.95929045585E+02  0.00000000000E+00 0. -1.
          1    1    1    2  501    0 -0.22392366851E+02 -0.45055598151E+02  0.20014988302E+02  0.54148174250E+02  0.00000000000E+00 0. -1.
<scales pt_clust_5="13000.00000" pt_clust_6="13000.00000" pt_clust_7="13000.00000" pt_clust_8="13000.00000" pt_clust_9="50.31329"></scales>
<clustering>
<clus scale="   50.313">  1  9  2 -1</clus>
<clus scale="   91.013">  5  6 -1 -1</clus>
<clus scale="   91.256">  7  8 -1 -1</clus>
<clus scale="  123.904">  1  5  2 -1</clus>
<clus scale="   50.313">  1  5  2 -1</clus>
</clustering>
</event>
<event>
 9    1  0.1636528E-005  0.1032632E+03  0.7546771E-02  0.1273835E+00
         21   -1    0    0  501  502  0.00000000000E+00  0.00000000000E+00  0.10158037736E+03  0.10158037736E+03  0.00000000000E+00 0. -1.
          3   -1    0    0  502    0 -0.00000000000E+00 -0.00000000000E+00 -0.34471733406E+03  0.34471733406E+03  0.00000000000E+00 0. -1.
         23    2    1    2    0    0 -0.45074965312E+02  0.80199493259E+01 -0.24508431019E+03  0.26549713793E+03  0.91248775671E+02 0.  0.
         23    2    1    2    0    0  0.65523779662E+02  0.45284162259E+02 -0.14059941047E+02  0.12150710169E+03  0.90676748763E+02 0.  0.
        -13    1    3    3    0    0 -0.11157201120E+00  0.43242432782E+02 -0.13028554771E+03  0.13727433986E+03  0.00000000000E+00 0.  1.
         13    1    3    3    0    0 -0.44963393301E+02 -0.35222483457E+02 -0.11479876248E+03  0.12822279807E+03  0.00000000000E+00 0. -1.
        -13    1    4    4    0    0  0.27269295083E+02 -0.26811559333E+02  0.21262977841E+01  0.38301374786E+02  0.00000000000E+00 0.  1.
         13    1    4    4    0    0  0.38254484579E+02  0.72095721592E+02 -0.16186238831E+02  0.83205726905E+02  0.00000000000E+00 0. -1.
          3    1    1    2  501    0 -0.20448814350E+02 -0.53304111585E+02  0.16007294540E+02  0.59293471805E+02  0.00000000000E+00 0. -1.
<scales pt_clust_5="13000.00000" pt_clust_6="13000.00000" pt_clust_7="13000.00000" pt_clust_8="13000.00000" pt_clust_9="57.09188"></scales>
<clustering>
<clus scale="   57.092">  1  9  2 -1</clus>
<clus scale="   90.677">  7  8 -1 -1</clus>
<clus scale="   91.249">  5  6 -1 -1</clus>
<clus scale="  102.758">  1  7  2 -1</clus>
<clus scale="   57.092">  1  5  2 -1</clus>
</clustering>
</event>
<event>
 9    1  0.1636528E-005  0.1513493E+03  0.7546771E-02  0.1198882E+00
         21   -1    0    0  501  502  0.00000000000E+00  0.00000000000E+00  0.25069317932E+03  0.25069317932E+03  0.00000000000E+00 0. -1.
         -1   -1    0    0    0  501 -0.00000000000E+00 -0.00000000000E+00 -0.15681060808E+03  0.15681060808E+03  0.00000000000E+00 0.  1.
         23    2    1    2    0    0  0.12592547734E+03  0.30197862390E+02 -0.56322737152E+02  0.16786345611E+03  0.90756555914E+02 0.  0.
         23    2    1    2    0    0 -0.10143284423E+03 -0.24692138797E+02  0.68518374846E+02  0.15418298999E+03  0.90439499691E+02 0.  0.
        -11    1    4    4    0    0 -0.55096838431E+02 -0.36288862995E+02 -0.53787242622E+01  0.66192702447E+02  0.00000000000E+00 0.  1.
         11    1    4    4    0    0 -0.46336005797E+02  0.11596724198E+02  0.73897099109E+02  0.87990287544E+02  0.00000000000E+00 0. -1.
        -13    1    3    3    0    0  0.61482371867E+02  0.60735220177E+02 -0.36767212190E+02  0.93918458849E+02  0.00000000000E+00 0.  1.
         13    1    3    3    0    0  0.64443105476E+02 -0.30537357787E+02 -0.19555524962E+02  0.73944997266E+02  0.00000000000E+00 0. -1.
         -1    1    1    2    0  502 -0.24492633116E+02 -0.55057235935E+01  0.81686933549E+02  0.85457341299E+02  0.00000000000E+00 0.  1.
<scales pt_clust_5="13000.00000" pt_clust_6="13000.00000" pt_clust_7="13000.00000" pt_clust_8="13000.00000" pt_clust_9="25.10383"></scales>
<clustering>
<clus scale="   25.104">  1  9  2 -1</clus>
<clus scale="   90.439">  5  6 -1 -1</clus>
<clus scale="   90.757">  7  8 -1 -1</clus>
<clus scale="  151.159">  1  5  2 -1</clus>
<clus scale="   25.104">  1  5  2 -1</clus>
</clustering>
</event>
<event>
 9    1  0.1636528E-005  0.1114354E+03  0.7546771E-02  0.1262807E+00
         21   -1    0    0  501  502  0.00000000000E+00  0.00000000000E+00  0.61398830914E+02  0.61398830914E+02  0.00000000000E+00 0.  1.
          1   -1    0    0  502    0 -0.00000000000E+00 -0.00000000000E+00 -0.51524391731E+03  0.51524391731E+03  0.00000000000E+00 0. -1.
         23    2    1    2    0    0 -0.55369980760E+02 -0.17006669181E+02 -0.40356628955E+03  0.41640214113E+03  0.84675448084E+02 0.  0.
         23    2    1    2    0    0  0.46595426787E+02 -0.22651705593E+02 -0.25126844410E+02  0.11246613485E+03  0.96607658154E+02 0.  0.
        -13    1    3    3    0    0 -0.17036548600E+02 -0.49277120740E+02 -0.22279963070E+03  0.22881904216E+03  0.00000000000E+00 0. -1.
         13    1    3    3    0    0 -0.38333432161E+02  0.32270451559E+02 -0.18076665885E+03  0.18758309897E+03  0.00000000000E+00 0.  1.
        -13    1    4    4    0    0  0.36470324500E+01  0.30352631283E+02  0.14215396370E+02  0.33714397005E+02  0.00000000000E+00 0.  1.
         13    1    4    4    0    0  0.42948394337E+02 -0.53004336876E+02 -0.39342240780E+02  0.78751737844E+02  0.00000000000E+00 0. -1.
          1    1    1    2  501    0  0.87745539730E+01  0.39658374774E+02 -0.25151952437E+02  0.47774472248E+02  0.00000000000E+00 0. -1.
<scales pt_clust_5="13000.00000" pt_clust_6="13000.00000" pt_clust_7="13000.00000" pt_clust_8="13000.00000" pt_clust_9="40.61748"></scales>
<clustering>
<clus scale="   40.617">  1  9  2 -1</clus>
<clus scale="   84.675">  5  6 -1 -1</clus>
<clus scale="   96.608">  7  8 -1 -1</clus>
<clus scale="  101.266">  2  5  1 -1</clus>
<clus scale="   40.617">  1  5  2 -1</clus>
</clustering>
</event>
<event>
 9    1  0.1636528E-005  0.9485388E+02  0.7546771E-02  0.1294039E+00
         21   -1    0    0  501  502  0.00000000000E+00  0.00000000000E+00  0.30883723887E+03  0.30883723887E+03  0.00000000000E+00 0.  1.
          2   -1    0    0  502    0 -0.00000000000E+00 -0.00000000000E+00 -0.24110235831E+03  0.24110235831E+03  0.00000000000E+00 0. -1.
         23    2    1    2    0    0  0.27491691980E+02  0.25616909968E+01 -0.21740785415E+03  0.23539323525E+03  0.85915334872E+02 0.  0.
         23    2    1    2    0    0 -0.48525132267E+02  0.16149791714E+02  0.21054023610E+03  0.23480893036E+03  0.90512642916E+02 0.  0.
        -11    1    3    3    0    0  0.38046454696E+02 -0.32965627092E+02 -0.15316980884E+03  0.16123044261E+03  0.00000000000E+00 0. -1.
         11    1    3    3    0    0 -0.10554762717E+02  0.35527318089E+02 -0.64238045312E+02  0.74162792640E+02  0.00000000000E+00 0.  1.
        -13    1    4    4    0    0 -0.20606419321E+02  0.33446065160E+02  0.25405218140E+02  0.46783425491E+02  0.00000000000E+00 0. -1.
         13    1    4    4    0    0 -0.27918712946E+02 -0.17296273446E+02  0.18513501796E+03  0.18802550487E+03  0.00000000000E+00 0.  1.
          2    1    1    2  501    0  0.21033440287E+02 -0.18711482711E+02  0.74602498614E+02  0.79737431580E+02  0.00000000000E+00 0. -1.
<scales pt_clust_5="13000.00000" pt_clust_6="13000.00000" pt_clust_7="13000.00000" pt_clust_8="13000.00000" pt_clust_9="28.15182"></scales>
<clustering>
<clus scale="   28.152">  1  9  2 -1</clus>
<clus scale="   85.915">  5  6 -1 -1</clus>
<clus scale="   90.477">  2  5  1 -1</clus>
<clus scale="   90.513">  7  8 -1 -1</clus>
<clus scale="   28.152">  1  5  2 -1</clus>
</clustering>
</event>
<event>
 9    1  0.1636528E-005  0.1062570E+03  0.7546771E-02  0.1267833E+00
          1   -1    0    0  502    0 -0.00000000000E+00  0.00000000000E+00  0.10754944667E+04  0.10754944667E+04  0.00000000000E+00 0. -1.
         21   -1    0    0  501  502  0.00000000000E+00 -0.00000000000E+00 -0.23293662470E+02  0.23293662470E+02  0.00000000000E+00 0. -1.
         23    2    1    2    0    0  0.79021453710E+02 -0.20942780903E+02  0.51629904412E+03  0.53069614508E+03  0.91600792694E+02 0.  0.
         23    2    1    2    0    0  0.25022732376E+01  0.36101652956E+02  0.20970658678E+03  0.23152222823E+03  0.91192647224E+02 0.  0.
        -11    1    4    4    0    0  0.23947118764E+02 -0.23243156473E+02  0.93684872375E+02  0.99451315385E+02  0.00000000000E+00 0.  1.
         11    1    4    4    0    0 -0.21444845527E+02  0.59344809430E+02  0.11602171440E+03  0.13207091284E+03  0.00000000000E+00 0. -1.
        -13    1    3    3    0    0 -0.50064912852E+01 -0.22971533513E+02  0.35328671778E+02  0.42436674664E+02  0.00000000000E+00 0.  1.
         13    1    3    3    0    0  0.84027944995E+02  0.20287526102E+01  0.48097037234E+03  0.48825947041E+03  0.00000000000E+00 0. -1.
          1    1    1    2  501    0 -0.81523726947E+02 -0.15158872053E+02  0.32619517329E+03  0.33656975582E+03  0.00000000000E+00 0. -1.
<scales pt_clust_5="13000.00000" pt_clust_6="13000.00000" pt_clust_7="13000.00000" pt_clust_8="13000.00000" pt_clust_9="82.92115"></scales>
<clustering>
<clus scale="   82.921">  2  9  1 -1</clus>
<clus scale="   91.193">  5  6 -1 -1</clus>
<clus scale="   91.601">  7  8 -1 -1</clus>
<clus scale="  105.905">  2  5  1 -1</clus>
<clus scale="   82.921">  2  5  1 -1</clus>
</clustering>
</event>
<event>
 9    1  0.1636528E-005  0.9851309E+02  0.7546771E-02  0.1286789E+00
         21   -1    0    0  501  502  0.00000000000E+00  0.00000000000E+00  0.24536739265E+03  0.24536739265E+03  0.00000000000E+00 0.  1.
         -4   -1    0    0    0  501 -0.00000000000E+00 -0.00000000000E+00 -0.65798561322E+02  0.65798561322E+02  0.00000000000E+00 0. -1.
         23    2    1    2    0    0  0.95157522031E+01  0.38511422662E+02  0.33320513702E+01  0.10063592620E+03  0.92427311230E+02 0.  0.
         23    2    1    2    0    0 -0.11011158902E+02 -0.13863202135E+02  0.15415541149E+03  0.17740363572E+03  0.85992587368E+02 0.  0.
        -11    1    3    3    0    0 -0.31243095324E+01 -0.30324841116E+02  0.31585556956E+01  0.30648552540E+02  0.00000000000E+00 0.  1.
         11    1    3    3    0    0  0.12640061736E+02  0.68836263778E+02  0.17349567453E+00  0.69987373664E+02  0.00000000000E+00 0. -1.
        -13    1    4    4    0    0 -0.34477898181E+02  0.73549657192E+01  0.13690118423E+03  0.14136744756E+03  0.00000000000E+00 0.  1.
         13    1    4    4    0    0  0.23466739279E+02 -0.21218167854E+02  0.17254227257E+02  0.36036188168E+02  0.00000000000E+00 0. -1.
         -4    1    1    2    0  502  0.14954066992E+01 -0.24648220528E+02  0.22081368463E+02  0.33126392040E+02  0.00000000000E+00 0. -1.
<scales pt_clust_5="13000.00000" pt_clust_6="13000.00000" pt_clust_7="13000.00000" pt_clust_8="13000.00000" pt_clust_9="24.69354"></scales>
<clustering>
<clus scale="   24.694">  1  9  2 -1</clus>
<clus scale="   85.993">  7  8 -1 -1</clus>
<clus scale="   92.427">  5  6 -1 -1</clus>
<clus scale="   92.503">  1  7  2 -1</clus>
<clus scale="   24.694">  1  5  2 -1</clus>
</clustering>
</event>
<event>
 9    1  0.1636528E-005  0.9372435E+02  0.7546771E-02  0.1294322E+00
         21   -1    0    0  501  502  0.00000000000E+00  0.00000000000E+00  0.12135675247E+03  0.12135675247E+03  0.00000000000E+00 0.  1.
          1   -1    0    0  502    0 -0.00000000000E+00 -0.00000000000E+00 -0.12610509459E+03  0.12610509459E+03  0.00000000000E+00 0. -1.
         23    2    1    2    0    0 -0.20170681850E+02 -0.24400736228E+02 -0.15713785909E+02  0.98070285396E+02  0.91480082396E+02 0.  0.
         23    2    1    2    0    0 -0.11127948057E+02  0.19835649541E+01  0.40292201392E+02  0.10099535816E+03  0.91917545221E+02 0.  0.
        -11    1    4    4    0    0  0.38662663982E+02  0.14263771810E+02  0.15430951798E+02  0.44004216228E+02  0.00000000000E+00 0.  1.
         11    1    4    4    0    0 -0.49790612039E+02 -0.12280206856E+02  0.24861249594E+02  0.56991141935E+02  0.00000000000E+00 0. -1.
        -11    1    3    3    0    0  0.27869614821E+02 -0.30462985624E+02  0.11054685172E+02  0.42742426085E+02  0.00000000000E+00 0.  1.
         11    1    3    3    0    0 -0.48040296670E+02  0.60622493953E+01 -0.26768471081E+02  0.55327859311E+02  0.00000000000E+00 0. -1.
          1    1    1    2  501    0  0.31298629906E+02  0.22417171274E+02 -0.29326757604E+02  0.48396203503E+02  0.00000000000E+00 0. -1.
<scales pt_clust_5="13000.00000" pt_clust_6="13000.00000" pt_clust_7="13000.00000" pt_clust_8="13000.00000" pt_clust_9="38.49851"></scales>
<clustering>
<clus scale="   38.499">  1  9  2 -1</clus>
<clus scale="   91.480">  7  8 -1 -1</clus>
<clus scale="   91.918">  5  6 -1 -1</clus>
<clus scale="   93.295">  2  7  1 -1</clus>
<clus scale="   38.499">  1  5  2 -1</clus>
</clustering>
</event>
<event>
 9    1  0.1636528E-005  0.1712068E+03  0.7546771E-02  0.1202774E+00
         21   -1    0    0  501  502  0.00000000000E+00  0.00000000000E+00  0.42100062993E+03  0.42100062993E+03  0.00000000000E+00 0. -1.
          1   -1    0    0  502    0 -0.00000000000E+00 -0.00000000000E+00 -0.11151271768E+03  0.11151271768E+03  0.00000000000E+00 0. -1.
         23    2    1    2    0    0 -0.14511039625E+02  0.20810466351E+02  0.11158642804E+03  0.14718259150E+03  0.92560998999E+02 0.  0.
         23    2    1    2    0    0 -0.97506761870E+01  0.13064678299E+03  0.36764005590E+02  0.16286004738E+03  0.89488241321E+02 0.  0.
        -11    1    3    3    0    0 -0.50098574549E+02 -0.70537673132E+01  0.54377084235E+02  0.74273077862E+02  0.00000000000E+00 0.  1.
         11    1    3    3    0    0  0.35587534924E+02  0.27864233664E+02  0.57209343809E+02  0.72909513636E+02  0.00000000000E+00 0. -1.
        -11    1    4    4    0    0 -0.46898956548E+02  0.94745153563E+02  0.14899551515E+02  0.10676213226E+03  0.00000000000E+00 0.  1.
         11    1    4    4    0    0  0.37148280361E+02  0.35901629425E+02  0.21864454075E+02  0.56097915123E+02  0.00000000000E+00 0. -1.
          1    1    1    2  501    0  0.24261715812E+02 -0.15145724934E+03  0.16113747862E+03  0.22247070874E+03  0.00000000000E+00 0. -1.
<scales pt_clust_5="13000.00000" pt_clust_6="13000.00000" pt_clust_7="13000.00000" pt_clust_8="13000.00000" pt_clust_9="145.95761"></scales>
<clustering>
<clus scale="   89.488">  7  8 -1 -1</clus>
<clus scale="   92.561">  5  6 -1 -1</clus>
<clus scale="   95.975">  2  5  1 -1</clus>
<clus scale="  145.958">  1  9  2 -1</clus>
<clus scale="  145.958">  1  5  2 -1</clus>
</clustering>
</event>
<event>
 9    1  0.1664136E-005  0.1024668E+03  0.7546771E-02  0.1279906E+00
          4   -1    0    0  502    0 -0.00000000000E+00  0.00000000000E+00  0.17063767709E+03  0.17063767709E+03  0.00000000000E+00 0. -1.
         21   -1    0    0  501  502  0.00000000000E+00 -0.00000000000E+00 -0.62709258522E+03  0.62709258522E+03  0.00000000000E+00 0. -1.
         23    2    1    2    0    0  0.34726610673E+02  0.53906495682E+02  0.10971956513E+03  0.15738155426E+03  0.92837077090E+02 0.  0.
         23    2    1    2    0    0  0.34378282777E+02 -0.73732259839E+01 -0.26033541224E+02  0.93820522195E+02  0.82995869344E+02 0.  0.
        -11    1    4    4    0    0  0.16455090729E+02 -0.43248335461E+02 -0.49428529744E+00  0.46275618299E+02  0.00000000000E+00 0.  1.
         11    1    4    4    0    0  0.17923192048E+02  0.35875109477E+02 -0.25539255927E+02  0.47544903896E+02  0.00000000000E+00 0. -1.
        -13    1    3    3    0    0  0.21040361991E+02 -0.24672103439E+02  0.24361357976E+02  0.40557185347E+02  0.00000000000E+00 0.  1.
         13    1    3    3    0    0  0.13686248683E+02  0.78578599121E+02  0.85358207153E+02  0.11682436891E+03  0.00000000000E+00 0. -1.
          4    1    1    2  501    0 -0.69104893450E+02 -0.46533269698E+02 -0.54014093203E+03  0.54652818586E+03  0.00000000000E+00 0. -1.
<scales pt_clust_5="13000.00000" pt_clust_6="13000.00000" pt_clust_7="13000.00000" pt_clust_8="13000.00000" pt_clust_9="83.31165"></scales>
<clustering>
<clus scale="   82.996">  5  6 -1 -1</clus>
<clus scale="   83.312">  2  9  1 -1</clus>
<clus scale="   92.837">  7  8 -1 -1</clus>
<clus scale="   93.643">  2  5  1 -1</clus>
<clus scale="   83.312">  2  5  1 -1</clus>
</clustering>
</event>
<event>
 9    1  0.1636528E-005  0.9698645E+02  0.7546771E-02  0.1287122E+00
          2   -1    0    0  502    0 -0.00000000000E+00  0.00000000000E+00  0.67626618395E+03  0.67626618395E+03  0.00000000000E+00 0. -1.
         21   -1    0    0  501  502  0.00000000000E+00 -0.00000000000E+00 -0.21880996118E+02  0.21880996118E+02  0.00000000000E+00 0.  1.
         23    2    1    2    0    0 -0.40237546872E+02 -0.39175846165E+00  0.37887997895E+03  0.39186616523E+03  0.91596066216E+02 0.  0.
         23    2    1    2    0    0  0.18374074063E+02  0.18539671043E+02  0.25278857201E+03  0.26990239798E+03  0.90906085022E+02 0.  0.
        -11    1    3    3    0    0 -0.33207705337E+02 -0.38391494809E+02  0.29722382610E+03  0.30152721498E+03  0.00000000000E+00 0. -1.
         11    1    3    3    0    0 -0.70298415354E+01  0.37999736348E+02  0.81656152847E+02  0.90338950250E+02  0.00000000000E+00 0.  1.
        -13    1    4    4    0    0 -0.34761181236E+02  0.16045577100E+02  0.73286278600E+02  0.82684211894E+02  0.00000000000E+00 0. -1.
         13    1    4    4    0    0  0.53135255299E+02  0.24940939425E+01  0.17950229342E+03  0.18721818609E+03  0.00000000000E+00 0.  1.
          2    1    1    2  501    0  0.21863472809E+02 -0.18147912581E+02  0.22716636867E+02  0.36378616863E+02  0.00000000000E+00 0. -1.
<scales pt_clust_5="13000.00000" pt_clust_6="13000.00000" pt_clust_7="13000.00000" pt_clust_8="13000.00000" pt_clust_9="28.41405"></scales>
<clustering>
<clus scale="   28.414">  2  9  1 -1</clus>
<clus scale="   90.906">  7  8 -1 -1</clus>
<clus scale="   91.596">  5  6 -1 -1</clus>
<clus scale="   96.335">  2  7  1 -1</clus>
<clus scale="   28.414">  2  5  1 -1</clus>
</clustering>
</event>
<event>
 9    1  0.1636528E-005  0.1119610E+03  0.7546771E-02  0.1257116E+00
         21   -1    0    0  501  502  0.00000000000E+00  0.00000000000E+00  0.85665485991E+02  0.85665485991E+02  0.00000000000E+00 0.  1.
          1   -1    0    0  502    0 -0.00000000000E+00 -0.00000000000E+00 -0.40227286161E+03  0.40227286161E+03  0.00000000000E+00 0. -1.
         23    2    1    2    0    0  0.30553699731E+02 -0.61034057914E+02 -0.26796183571E+03  0.29135996018E+03  0.91806297199E+02 0.  0.
         23    2    1    2    0    0  0.37610986888E+02  0.59569665864E+02 -0.60099400784E+01  0.11616468636E+03  0.92168235043E+02 0.  0.
        -11    1    3    3    0    0 -0.28399206624E+02 -0.17418178024E+02 -0.40910190905E+02  0.52759374356E+02  0.00000000000E+00 0.  1.
         11    1    3    3    0    0  0.58952906355E+02 -0.43615879890E+02 -0.22705164480E+03  0.23860058582E+03  0.00000000000E+00 0. -1.
        -13    1    4    4    0    0  0.88114812004E+01 -0.24880050179E+02  0.26144942780E+01  0.26523474097E+02  0.00000000000E+00 0. -1.
         13    1    4    4    0    0  0.28799505688E+02  0.84449716043E+02 -0.86244343565E+01  0.89641212261E+02  0.00000000000E+00 0.  1.
          1    1    1    2  501    0 -0.68164686620E+02  0.14643920500E+01 -0.42635599829E+02  0.80413701064E+02  0.00000000000E+00 0. -1.
<scales pt_clust_5="13000.00000" pt_clust_6="13000.00000" pt_clust_7="13000.00000" pt_clust_8="13000.00000" pt_clust_9="68.18041"></scales>
<clustering>
<clus scale="   68.180">  1  9  2 -1</clus>
<clus scale="   91.806">  5  6 -1 -1</clus>
<clus scale="   92.168">  7  8 -1 -1</clus>
<clus scale="  111.663">  2  5  1 -1</clus>
<clus scale="   68.180">  1  5  2 -1</clus>
</clustering>
</event>
<event>
 9    1  0.1636528E-005  0.1748294E+03  0.7546771E-02  0.1173085E+00
         21   -1    0    0  501  502  0.00000000000E+00  0.00000000000E+00  0.83382170210E+02  0.83382170210E+02  0.00000000000E+00 0.  1.
          1   -1    0    0  502    0 -0.00000000000E+00 -0.00000000000E+00 -0.68209692878E+03  0.68209692878E+03  0.00000000000E+00 0. -1.
         23    2    1    2    0    0  0.11041597487E+03 -0.83434684824E+02 -0.34513539749E+03  0.38270027077E+03  0.90487681502E+02 0.  0.
         23    2    1    2    0    0 -0.12951931829E+03  0.10115034892E+03 -0.28524270708E+03  0.34177456059E+03  0.91868391884E+02 0.  0.
        -11    1    4    4    0    0 -0.11632219781E+03  0.11847531151E+03 -0.24396409542E+03  0.29510291933E+03  0.00000000000E+00 0.  1.
         11    1    4    4    0    0 -0.13197120483E+02 -0.17324962590E+02 -0.41278611660E+02  0.46671641265E+02  0.00000000000E+00 0. -1.
        -13    1    3    3    0    0  0.53951137981E+02 -0.80508282232E+02 -0.28078304236E+03  0.29703775126E+03  0.00000000000E+00 0. -1.
         13    1    3    3    0    0  0.56464836887E+02 -0.29264025920E+01 -0.64352355139E+02  0.85662519510E+02  0.00000000000E+00 0.  1.
          1    1    1    2  501    0  0.19103343421E+02 -0.17715664101E+02  0.31663346000E+02  0.41004267636E+02  0.00000000000E+00 0. -1.
<scales pt_clust_5="13000.00000" pt_clust_6="13000.00000" pt_clust_7="13000.00000" pt_clust_8="13000.00000" pt_clust_9="26.05345"></scales>
<clustering>
<clus scale="   26.053">  1  9  2 -1</clus>
<clus scale="   90.488">  7  8 -1 -1</clus>
<clus scale="   91.868">  5  6 -1 -1</clus>
<clus scale="  174.108">  2  7  1 -1</clus>
<clus scale="   26.053">  1  5  2 -1</clus>
</clustering>
</event>
<event>
 9    1  0.1636528E-005  0.9323501E+02  0.7546771E-02  0.1295720E+00
         21   -1    0    0  501  502  0.00000000000E+00  0.00000000000E+00  0.15792076622E+03  0.15792076622E+03  0.00000000000E+00 0. -1.
         -3   -1    0    0    0  501 -0.00000000000E+00 -0.00000000000E+00 -0.72416192561E+02  0.72416192561E+02  0.00000000000E+00 0.  1.
         23    2    1    2    0    0 -0.12177979643E+02  0.65915889885E+01  0.28741317223E+02  0.96153073591E+02  0.90706107907E+02 0.  0.
         23    2    1    2    0    0 -0.16379183062E+01 -0.28142886542E+02  0.47323917561E+02  0.10689948341E+03  0.91614636057E+02 0.  0.
        -11    1    4    4    0    0  0.40272307236E+02  0.68224917219E+01  0.15298949175E+02  0.43617232480E+02  0.00000000000E+00 0. -1.
         11    1    4    4    0    0 -0.41910225542E+02 -0.34965378264E+02  0.32024968386E+02  0.63282250926E+02  0.00000000000E+00 0.  1.
        -13    1    3    3    0    0 -0.35673062606E+02  0.11226181903E+02 -0.19587093359E+02  0.42216688430E+02  0.00000000000E+00 0.  1.
         13    1    3    3    0    0  0.23495082962E+02 -0.46345929141E+01  0.48328410581E+02  0.53936385161E+02  0.00000000000E+00 0. -1.
         -3    1    1    2    0  502  0.13815897950E+02  0.21551297553E+02  0.94393388785E+01  0.27284401787E+02  0.00000000000E+00 0.  1.
<scales pt_clust_5="13000.00000" pt_clust_6="13000.00000" pt_clust_7="13000.00000" pt_clust_8="13000.00000" pt_clust_9="25.59957"></scales>
<clustering>
<clus scale="   25.600">  1  9  2 -1</clus>
<clus scale="   90.706">  7  8 -1 -1</clus>
<clus scale="   91.615">  5  6 -1 -1</clus>
<clus scale="   92.342">  2  7  1 -1</clus>
<clus scale="   25.600">  1  5  2 -1</clus>
</clustering>
</event>
<event>
 9    1  0.1636528E-005  0.1100301E+03  0.7546771E-02  0.1261085E+00
          1   -1    0    0  502    0 -0.00000000000E+00  0.00000000000E+00  0.75874399781E+02  0.75874399781E+02  0.00000000000E+00 0. -1.
         21   -1    0    0  501  502  0.00000000000E+00 -0.00000000000E+00 -0.25858390615E+03  0.25858390615E+03  0.00000000000E+00 0.  1.
         23    2    1    2    0    0  0.43669261163E+02  0.47338978436E+02 -0.23836057042E+01  0.11009990574E+03  0.89265471594E+02 0.  0.
         23    2    1    2    0    0 -0.53996452430E+02 -0.24526670732E+02 -0.14839346922E+03  0.18377844897E+03  0.90756389023E+02 0.  0.
        -11    1    4    4    0    0 -0.52290098117E+02 -0.37906182662E+01 -0.15362509378E+03  0.16232465182E+03  0.00000000000E+00 0.  1.
         11    1    4    4    0    0 -0.17063543123E+01 -0.20736052466E+02  0.52316245634E+01  0.21453797157E+02  0.00000000000E+00 0. -1.
        -13    1    3    3    0    0  0.13543601312E+02  0.51334652475E+02 -0.36487523634E+02  0.64420610538E+02  0.00000000000E+00 0.  1.
         13    1    3    3    0    0  0.30125659850E+02 -0.39956740383E+01  0.34103917929E+02  0.45679295207E+02  0.00000000000E+00 0. -1.
          1    1    1    2  501    0  0.10327191267E+02 -0.22812307705E+02 -0.31932431446E+02  0.40579951212E+02  0.00000000000E+00 0. -1.
<scales pt_clust_5="13000.00000" pt_clust_6="13000.00000" pt_clust_7="13000.00000" pt_clust_8="13000.00000" pt_clust_9="25.04101"></scales>
<clustering>
<clus scale="   25.041">  2  9  1 -1</clus>
<clus scale="   89.265">  7  8 -1 -1</clus>
<clus scale="   90.756">  5  6 -1 -1</clus>
<clus scale="  108.804">  1  7  2 -1</clus>
<clus scale="   25.041">  2  5  1 -1</clus>
</clustering>
</event>
<event>
 9    1  0.1636528E-005  0.1003307E+03  0.7546771E-02  0.1283279E+00
         -3   -1    0    0    0  501 -0.00000000000E+00  0.00000000000E+00  0.65749196816E+03  0.65749196816E+03  0.00000000000E+00 0.  1.
         21   -1    0    0  501  502  0.00000000000E+00 -0.00000000000E+00 -0.33059618852E+02  0.33059618852E+02  0.00000000000E+00 0.  1.
         23    2    1    2    0    0 -0.29684245963E+02  0.66882915227E+01  0.45141748727E+03  0.46286737372E+03  0.97686079583E+02 0.  0.
         23    2    1    2    0    0  0.88623853256E+01 -0.20384682379E+00  0.18242567587E+03  0.20393213295E+03  0.90722677463E+02 0.  0.
        -13    1    3    3    0    0  0.32327690026E+02 -0.13787098554E+02  0.20242960884E+03  0.20545780628E+03  0.00000000000E+00 0. -1.
         13    1    3    3    0    0 -0.62011935990E+02  0.20475390076E+02  0.24898787843E+03  0.25740956744E+03  0.00000000000E+00 0.  1.
        -13    1    4    4    0    0 -0.32598466394E+01 -0.35727456133E+02  0.29439448687E+02  0.46408607616E+02  0.00000000000E+00 0. -1.
         13    1    4    4    0    0  0.12122231965E+02  0.35523609310E+02  0.15298622718E+03  0.15752352533E+03  0.00000000000E+00 0.  1.
         -3    1    1    2    0  502  0.20821860638E+02 -0.64844446989E+01 -0.94108138301E+01  0.23752080339E+02  0.00000000000E+00 0.  1.
<scales pt_clust_5="13000.00000" pt_clust_6="13000.00000" pt_clust_7="13000.00000" pt_clust_8="13000.00000" pt_clust_9="21.80821"></scales>
<clustering>
<clus scale="   21.808">  2  9  1 -1</clus>
<clus scale="   90.723">  7  8 -1 -1</clus>
<clus scale="   93.564">  2  7  1 -1</clus>
<clus scale="   97.686">  5  6 -1 -1</clus>
<clus scale="   21.808">  2  5  1 -1</clus>
</clustering>
</event>
<event>
 9    1  0.1636528E-005  0.1227706E+03  0.7546771E-02  0.1238650E+00
         -3   -1    0    0    0  501 -0.00000000000E+00  0.00000000000E+00  0.22333789864E+03  0.22333789864E+03  0.00000000000E+00 0.  1.
         21   -1    0    0  501  502  0.00000000000E+00 -0.00000000000E+00 -0.12879033083E+03  0.12879033083E+03  0.00000000000E+00 0. -1.
         23    2    1    2    0    0 -0.33356490669E+02  0.75646316292E+02  0.10972330528E+03  0.16494285424E+03  0.91279355846E+02 0.  0.
         23    2    1    2    0    0  0.10304526490E+02 -0.82708781238E+02  0.37678572241E+02  0.12909192018E+03  0.91094035417E+02 0.  0.
        -11    1    4    4    0    0 -0.11782463521E+02 -0.91615303635E+02  0.46850033719E+02  0.10357179136E+03  0.00000000000E+00 0. -1.
         11    1    4    4    0    0  0.22086990011E+02  0.89065223971E+01 -0.91714614780E+01  0.25520128812E+02  0.00000000000E+00 0.  1.
        -11    1    3    3    0    0 -0.63214301886E+02  0.34270338243E+02  0.59249390994E+02  0.93171854009E+02  0.00000000000E+00 0. -1.
         11    1    3    3    0    0  0.29857811218E+02  0.41375978050E+02  0.50473914290E+02  0.71771000230E+02  0.00000000000E+00 0.  1.
         -3    1    1    2    0  502  0.23051964179E+02  0.70624649451E+01 -0.52854309724E+02  0.58093455053E+02  0.00000000000E+00 0.  1.
<scales pt_clust_5="13000.00000" pt_clust_6="13000.00000" pt_clust_7="13000.00000" pt_clust_8="13000.00000" pt_clust_9="24.10957"></scales>
<clustering>
<clus scale="   24.110">  2  9  1 -1</clus>
<clus scale="   91.094">  5  6 -1 -1</clus>
<clus scale="   91.279">  7  8 -1 -1</clus>
<clus scale="  122.633">  2  5  1 -1</clus>
<clus scale="   24.110">  2  5  1 -1</clus>
</clustering>
</event>
<event>
 9    1  0.1636528E-005  0.9446794E+02  0.7546771E-02  0.1293416E+00
         21   -1    0    0  501  502  0.00000000000E+00  0.00000000000E+00  0.85422155844E+02  0.85422155844E+02  0.00000000000E+00 0. -1.
         -2   -1    0    0    0  501 -0.00000000000E+00 -0.00000000000E+00 -0.20749355154E+03  0.20749355154E+03  0.00000000000E+00 0.  1.
         23    2    1    2    0    0 -0.70571289067E+01 -0.23127811312E+02 -0.78883193184E+02  0.12242649712E+03  0.90448826997E+02 0.  0.
         23    2    1    2    0    0  0.56864194893E+02 -0.90029288795E+01 -0.29203920960E+02  0.10959020848E+03  0.88558203497E+02 0.  0.
        -11    1    3    3    0    0 -0.38820119605E+02 -0.69178172920E+01 -0.77246457423E+02  0.86728732648E+02  0.00000000000E+00 0.  1.
         11    1    3    3    0    0  0.31762990698E+02 -0.16209994020E+02 -0.16367357609E+01  0.35697764470E+02  0.00000000000E+00 0. -1.
        -13    1    4    4    0    0  0.27989293549E+01 -0.40281375734E+02 -0.23859241919E+02  0.46900817280E+02  0.00000000000E+00 0.  1.
         13    1    4    4    0    0  0.54065265538E+02  0.31278446855E+02 -0.53446790416E+01  0.62689391203E+02  0.00000000000E+00 0. -1.
         -2    1    1    2    0  502 -0.49807065986E+02  0.32130740191E+02 -0.13984281548E+02  0.60899001780E+02  0.00000000000E+00 0.  1.
<scales pt_clust_5="13000.00000" pt_clust_6="13000.00000" pt_clust_7="13000.00000" pt_clust_8="13000.00000" pt_clust_9="59.27165"></scales>
<clustering>
<clus scale="   59.272">  1  9  2 -1</clus>
<clus scale="   88.558">  7  8 -1 -1</clus>
<clus scale="   90.449">  5  6 -1 -1</clus>
<clus scale="   92.659">  1  7  2 -1</clus>
<clus scale="   59.272">  1  5  2 -1</clus>
</clustering>
</event>
<event>
 9    1  0.1636528E-005  0.1507065E+03  0.7546771E-02  0.1200182E+00
         21   -1    0    0  501  502  0.00000000000E+00  0.00000000000E+00  0.11229107255E+03  0.11229107255E+03  0.00000000000E+00 0.  1.
         -3   -1    0    0    0  501 -0.00000000000E+00 -0.00000000000E+00 -0.52002372001E+03  0.52002372001E+03  0.00000000000E+00 0.  1.
         23    2    1    2    0    0  0.86387915376E+02  0.96230481886E+02 -0.37628356109E+03  0.40868303220E+03  0.93323763831E+02 0.  0.
         23    2    1    2    0    0 -0.85212020995E+02 -0.46513931284E+02 -0.79418958523E+02  0.15453598071E+03  0.90273828080E+02 0.  0.
        -11    1    4    4    0    0 -0.97468922725E+02 -0.14913242382E+02 -0.56902705312E+02  0.11384425136E+03  0.00000000000E+00 0.  1.
         11    1    4    4    0    0  0.12256901730E+02 -0.31600688902E+02 -0.22516253211E+02  0.40691729353E+02  0.00000000000E+00 0. -1.
        -13    1    3    3    0    0  0.11356148475E+02  0.20087002672E+02 -0.68148130929E+01  0.24060163383E+02  0.00000000000E+00 0. -1.
         13    1    3    3    0    0  0.75031766900E+02  0.76143479213E+02 -0.36946874800E+03  0.38462286882E+03  0.00000000000E+00 0.  1.
         -3    1    1    2    0  502 -0.11758943808E+01 -0.49716550602E+02  0.47969872154E+02  0.69095779652E+02  0.00000000000E+00 0.  1.
<scales pt_clust_5="13000.00000" pt_clust_6="13000.00000" pt_clust_7="13000.00000" pt_clust_8="13000.00000" pt_clust_9="49.73045"></scales>
<clustering>
<clus scale="   49.730">  1  9  2 -1</clus>
<clus scale="   90.274">  5  6 -1 -1</clus>
<clus scale="   93.324">  7  8 -1 -1</clus>
<clus scale="  148.837">  1  5  2 -1</clus>
<clus scale="   49.730">  1  5  2 -1</clus>
</clustering>
</event>
<event>
 9    1  0.1636528E-005  0.9702407E+02  0.7546771E-02  0.1287822E+00
         21   -1    0    0  501  502  0.00000000000E+00  0.00000000000E+00  0.16357632257E+03  0.16357632257E+03  0.00000000000E+00 0.  1.
         -4   -1    0    0    0  501 -0.00000000000E+00 -0.00000000000E+00 -0.13766218681E+03  0.13766218681E+03  0.00000000000E+00 0.  1.
         23    2    1    2    0    0  0.17716919400E+02 -0.31560190793E+02 -0.38869743089E+02  0.10552482406E+03  0.91184958679E+02 0.  0.
         23    2    1    2    0    0  0.56125751350E+01  0.33550918055E+02 -0.28575733061E+02  0.99462734952E+02  0.88989314090E+02 0.  0.
        -11    1    4    4    0    0 -0.24981550906E+02  0.41649285914E+02 -0.42828534117E+02  0.64753565442E+02  0.00000000000E+00 0. -1.
         11    1    4    4    0    0  0.30594126041E+02 -0.80983678588E+01  0.14252801056E+02  0.34709169511E+02  0.00000000000E+00 0.  1.
        -13    1    3    3    0    0  0.43616991893E+02 -0.48412962840E+02 -0.36114854166E+02  0.74501943895E+02  0.00000000000E+00 0.  1.
         13    1    3    3    0    0 -0.25900072493E+02  0.16852772047E+02 -0.27548889230E+01  0.31022880166E+02  0.00000000000E+00 0. -1.
         -4    1    1    2    0  502 -0.23329494535E+02 -0.19907272617E+01  0.93359611907E+02  0.96250950362E+02  0.00000000000E+00 0.  1.
<scales pt_clust_5="13000.00000" pt_clust_6="13000.00000" pt_clust_7="13000.00000" pt_clust_8="13000.00000" pt_clust_9="23.41428"></scales>
<clustering>
<clus scale="   23.414">  1  9  2 -1</clus>
<clus scale="   88.989">  5  6 -1 -1</clus>
<clus scale="   91.185">  7  8 -1 -1</clus>
<clus scale="   94.964">  1  5  2 -1</clus>
<clus scale="   23.414">  1  5  2 -1</clus>
</clustering>
</event>
<event>
 9    1  0.1636528E-005  0.1230561E+03  0.7546771E-02  0.1239018E+00
         21   -1    0    0  501  502  0.00000000000E+00  0.00000000000E+00  0.21861071676E+03  0.21861071676E+03  0.00000000000E+00 0. -1.
          2   -1    0    0  502    0 -0.00000000000E+00 -0.00000000000E+00 -0.13073545311E+03  0.13073545311E+03  0.00000000000E+00 0. -1.
         23    2    1    2    0    0  0.31583679801E+02 -0.56833502657E+02 -0.68726261791E+01  0.11234849862E+03  0.91363977022E+02 0.  0.
         23    2    1    2    0    0 -0.52683327844E+02  0.92026554165E+02  0.48078681766E+01  0.13813942163E+03  0.88402287918E+02 0.  0.
        -11    1    3    3    0    0  0.38821798386E+01  0.25061195770E+02  0.20142850456E+01  0.25439972445E+02  0.00000000000E+00 0. -1.
         11    1    3    3    0    0  0.27701499962E+02 -0.81894698428E+02 -0.88869112248E+01  0.86908526174E+02  0.00000000000E+00 0.  1.
        -13    1    4    4    0    0 -0.44695377734E+02  0.21529208816E+02 -0.31170438957E+02  0.58589929918E+02  0.00000000000E+00 0.  1.
         13    1    4    4    0    0 -0.79879501098E+01  0.70497345349E+02  0.35978307134E+02  0.79549491717E+02  0.00000000000E+00 0. -1.
          2    1    1    2  501    0  0.21099648043E+02 -0.35193051508E+02  0.89940021658E+02  0.98858249620E+02  0.00000000000E+00 0. -1.
<scales pt_clust_5="13000.00000" pt_clust_6="13000.00000" pt_clust_7="13000.00000" pt_clust_8="13000.00000" pt_clust_9="41.03347"></scales>
<clustering>
<clus scale="   41.033">  1  9  2 -1</clus>
<clus scale="   88.402">  7  8 -1 -1</clus>
<clus scale="   91.364">  5  6 -1 -1</clus>
<clus scale="  120.873">  1  7  2 -1</clus>
<clus scale="   41.033">  1  5  2 -1</clus>
</clustering>
</event>
<event>
 9    1  0.1636528E-005  0.1344129E+03  0.7546771E-02  0.1221088E+00
          1   -1    0    0  502    0 -0.00000000000E+00  0.00000000000E+00  0.42235678836E+03  0.42235678836E+03  0.00000000000E+00 0. -1.
         21   -1    0    0  501  502  0.00000000000E+00 -0.00000000000E+00 -0.91727896545E+02  0.91727896545E+02  0.00000000000E+00 0.  1.
         23    2    1    2    0    0  0.40349973413E+02 -0.82727740100E+02  0.24421302785E+03  0.27654947523E+03  0.91474640988E+02 0.  0.
         23    2    1    2    0    0 -0.10399582844E+02  0.11766556946E+03  0.11020954048E+03  0.18572964185E+03  0.91629795873E+02 0.  0.
        -11    1    4    4    0    0  0.14987025893E+02  0.93620361642E+02  0.32012573386E+02  0.10007091443E+03  0.00000000000E+00 0.  1.
         11    1    4    4    0    0 -0.25386608738E+02  0.24045207813E+02  0.78196967093E+02  0.85658727427E+02  0.00000000000E+00 0. -1.
        -13    1    3    3    0    0  0.16786510722E+02  0.15512677506E+02  0.19028167967E+02  0.29740566265E+02  0.00000000000E+00 0.  1.
         13    1    3    3    0    0  0.23563462691E+02 -0.98240417606E+02  0.22518485988E+03  0.24680890897E+03  0.00000000000E+00 0. -1.
          1    1    1    2  501    0 -0.29950390568E+02 -0.34937829356E+02 -0.23793676510E+02  0.51805567820E+02  0.00000000000E+00 0. -1.
<scales pt_clust_5="13000.00000" pt_clust_6="13000.00000" pt_clust_7="13000.00000" pt_clust_8="13000.00000" pt_clust_9="46.01823"></scales>
<clustering>
<clus scale="   46.018">  2  9  1 -1</clus>
<clus scale="   91.475">  7  8 -1 -1</clus>
<clus scale="   91.630">  5  6 -1 -1</clus>
<clus scale="  134.307">  1  7  2 -1</clus>
<clus scale="   46.018">  2  5  1 -1</clus>
</clustering>
</event>
<event>
 9    1  0.1636528E-005  0.1483907E+03  0.7546771E-02  0.1204503E+00
         21   -1    0    0  501  502  0.00000000000E+00  0.00000000000E+00  0.42237135966E+02  0.42237135966E+02  0.00000000000E+00 0. -1.
          2   -1    0    0  502    0 -0.00000000000E+00 -0.00000000000E+00 -0.87992183093E+03  0.87992183093E+03  0.00000000000E+00 0. -1.
         23    2    1    2    0    0 -0.69682196857E+02  0.81596443239E+02 -0.61657073197E+03  0.63342790853E+03  0.97764306729E+02 0.  0.
         23    2    1    2    0    0  0.66768004237E+02 -0.10963197870E+03 -0.17021277476E+03  0.23054674149E+03  0.87762601251E+02 0.  0.
        -11    1    4    4    0    0  0.80591825405E+02 -0.58487112789E+02 -0.88846882432E+02  0.13345243798E+03  0.00000000000E+00 0. -1.
         11    1    4    4    0    0 -0.13823821168E+02 -0.51144865907E+02 -0.81365892330E+02  0.97094303515E+02  0.00000000000E+00 0.  1.
        -13    1    3    3    0    0 -0.34766378702E+02  0.98351931271E+02 -0.39747932438E+03  0.41093991870E+03  0.00000000000E+00 0.  1.
         13    1    3    3    0    0 -0.34915818155E+02 -0.16755488032E+02 -0.21909140760E+03  0.22248798983E+03  0.00000000000E+00 0. -1.
          2    1    1    2  501    0  0.29141926196E+01  0.28035535457E+02 -0.50901188232E+02  0.58184316877E+02  0.00000000000E+00 0. -1.
<scales pt_clust_5="13000.00000" pt_clust_6="13000.00000" pt_clust_7="13000.00000" pt_clust_8="13000.00000" pt_clust_9="28.18659"></scales>
<clustering>
<clus scale="   28.187">  1  9  2 -1</clus>
<clus scale="   87.763">  5  6 -1 -1</clus>
<clus scale="   97.764">  7  8 -1 -1</clus>
<clus scale="  142.001">  1  5  2 -1</clus>
<clus scale="   28.187">  1  5  2 -1</clus>
</clustering>
</event>
<event>
 9    1  0.1636528E-005  0.1018398E+03  0.7546771E-02  0.1277570E+00
         -1   -1    0    0    0  501 -0.00000000000E+00  0.00000000000E+00  0.11961788360E+03  0.11961788360E+03  0.00000000000E+00 0.  1.
         21   -1    0    0  501  502  0.00000000000E+00 -0.00000000000E+00 -0.10892772890E+03  0.10892772890E+03  0.00000000000E+00 0. -1.
         23    2    1    2    0    0  0.46607449142E+02 -0.39025740560E+01  0.28448505590E+02  0.10935165418E+03  0.94662465641E+02 0.  0.
         23    2    1    2    0    0 -0.24586843279E+02  0.16037964486E+01 -0.16400500790E+02  0.97012091452E+02  0.92386603121E+02 0.  0.
        -13    1    3    3    0    0  0.51306984367E+02  0.16685053142E+02 -0.19173576601E+02  0.57257520754E+02  0.00000000000E+00 0. -1.
         13    1    3    3    0    0 -0.46995352248E+01 -0.20587627198E+02  0.47622082191E+02  0.52094133424E+02  0.00000000000E+00 0.  1.
        -13    1    4    4    0    0  0.21477989258E+02 -0.31956100424E+02 -0.89925233889E+01  0.39539370933E+02  0.00000000000E+00 0.  1.
         13    1    4    4    0    0 -0.46064832537E+02  0.33559896873E+02 -0.74079774014E+01  0.57472720519E+02  0.00000000000E+00 0. -1.
         -1    1    1    2    0  502 -0.22020605863E+02  0.22987776074E+01 -0.13578500968E+01  0.22181866873E+02  0.00000000000E+00 0.  1.
<scales pt_clust_5="13000.00000" pt_clust_6="13000.00000" pt_clust_7="13000.00000" pt_clust_8="13000.00000" pt_clust_9="22.14027"></scales>
<clustering>
<clus scale="   22.140">  2  9  1 -1</clus>
<clus scale="   92.387">  7  8 -1 -1</clus>
<clus scale="   94.662">  5  6 -1 -1</clus>
<clus scale="   99.728">  2  7  1 -1</clus>
<clus scale="   22.140">  2  5  1 -1</clus>
</clustering>
</event>
<event>
 9    1  0.1636528E-005  0.2456384E+03  0.7546771E-02  0.1117014E+00
         21   -1    0    0  501  502  0.00000000000E+00  0.00000000000E+00  0.90364892492E+02  0.90364892492E+02  0.00000000000E+00 0.  1.
          1   -1    0    0  502    0 -0.00000000000E+00 -0.00000000000E+00 -0.11286511072E+04  0.11286511072E+04  0.00000000000E+00 0. -1.
         23    2    1    2    0    0  0.22810971153E+03  0.95442572006E+01 -0.86159641519E+03  0.89609214028E+03  0.92236694822E+02 0.  0.
         23    2    1    2    0    0 -0.19710750923E+03  0.20702104823E+02 -0.13187021574E+03  0.26059590377E+03  0.10602133713E+03 0.  0.
        -13    1    4    4    0    0 -0.56043705807E+02 -0.42332837382E+02 -0.43038452513E+02  0.82372777518E+02  0.00000000000E+00 0.  1.
         13    1    4    4    0    0 -0.14106380342E+03  0.63034942205E+02 -0.88831763228E+02  0.17822312626E+03  0.00000000000E+00 0. -1.
        -13    1    3    3    0    0  0.22080651998E+03 -0.14297435045E+02 -0.77867454549E+03  0.80950230618E+03  0.00000000000E+00 0. -1.
         13    1    3    3    0    0  0.73031915510E+01  0.23841692246E+02 -0.82921869695E+02  0.86589834101E+02  0.00000000000E+00 0.  1.
          1    1    1    2  501    0 -0.31002202303E+02 -0.30246362024E+02 -0.44819583777E+02  0.62327955632E+02  0.00000000000E+00 0. -1.
<scales pt_clust_5="13000.00000" pt_clust_6="13000.00000" pt_clust_7="13000.00000" pt_clust_8="13000.00000" pt_clust_9="43.31257"></scales>
<clustering>
<clus scale="   43.313">  1  9  2 -1</clus>
<clus scale="   92.237">  7  8 -1 -1</clus>
<clus scale="  106.021">  5  6 -1 -1</clus>
<clus scale="  240.011">  2  7  1 -1</clus>
<clus scale="   43.313">  1  5  2 -1</clus>
</clustering>
</event>
<event>
 9    1  0.1636528E-005  0.1486349E+03  0.7546771E-02  0.1207057E+00
          1   -1    0    0  502    0 -0.00000000000E+00  0.00000000000E+00  0.57109481744E+03  0.57109481744E+03  0.00000000000E+00 0. -1.
         21   -1    0    0  501  502  0.00000000000E+00 -0.00000000000E+00 -0.68439332843E+02  0.68439332843E+02  0.00000000000E+00 0. -1.
         23    2    1    2    0    0 -0.84153431056E+02 -0.61872038013E+01  0.26681825729E+03  0.29433483438E+03  0.91219136460E+02 0.  0.
         23    2    1    2    0    0  0.14166045725E+03  0.24523233860E+02  0.13160075852E+03  0.22474804158E+03  0.11191000137E+03 0.  0.
        -11    1    3    3    0    0 -0.54380191658E+02 -0.36662337051E+02  0.22603097071E+03  0.23535363164E+03  0.00000000000E+00 0.  1.
         11    1    3    3    0    0 -0.29773239398E+02  0.30475133250E+02  0.40787286580E+02  0.58981202746E+02  0.00000000000E+00 0. -1.
        -11    1    4    4    0    0  0.62081284978E+02 -0.34870741247E+02  0.17181311501E+02  0.73247880546E+02  0.00000000000E+00 0.  1.
         11    1    4    4    0    0  0.79579172271E+02  0.59393975107E+02  0.11441944702E+03  0.15150016104E+03  0.00000000000E+00 0. -1.
          1    1    1    2  501    0 -0.57507026194E+02 -0.18336030059E+02  0.10423646879E+03  0.12045127432E+03  0.00000000000E+00 0. -1.
<scales pt_clust_5="13000.00000" pt_clust_6="13000.00000" pt_clust_7="13000.00000" pt_clust_8="13000.00000" pt_clust_9="60.35952"></scales>
<clustering>
<clus scale="   60.360">  2  9  1 -1</clus>
<clus scale="   91.219">  5  6 -1 -1</clus>
<clus scale="  111.910">  7  8 -1 -1</clus>
<clus scale="  133.751">  1  5  2 -1</clus>
<clus scale="   60.360">  2  5  1 -1</clus>
</clustering>
</event>
<event>
 9    1  0.1636528E-005  0.1399109E+03  0.7546771E-02  0.1215676E+00
         21   -1    0    0  501  502  0.00000000000E+00  0.00000000000E+00  0.21978169151E+03  0.21978169151E+03  0.00000000000E+00 0.  1.
          1   -1    0    0  502    0 -0.00000000000E+00 -0.00000000000E+00 -0.26422882977E+03  0.26422882977E+03  0.00000000000E+00 0. -1.
         23    2    1    2    0    0  0.10783792641E+03 -0.10565898993E+01 -0.21537323384E+03  0.25411687729E+03  0.80991497782E+02 0.  0.
         23    2    1    2    0    0 -0.91229473042E+02 -0.15204369100E+02  0.13732188933E+03  0.18903410179E+03  0.91228289248E+02 0.  0.
        -11    1    4    4    0    0 -0.78214849635E+02 -0.44815479220E+02  0.69265475659E+02  0.11368243488E+03  0.00000000000E+00 0.  1.
         11    1    4    4    0    0 -0.13014623407E+02  0.29611110120E+02  0.68056413671E+02  0.75351666914E+02  0.00000000000E+00 0. -1.
        -13    1    3    3    0    0  0.66062511896E+02 -0.22185548180E+02 -0.18654756964E+03  0.19913927228E+03  0.00000000000E+00 0. -1.
         13    1    3    3    0    0  0.41775414512E+02  0.21128958281E+02 -0.28825664203E+02  0.54977605008E+02  0.00000000000E+00 0.  1.
          1    1    1    2  501    0 -0.16608453366E+02  0.16260958999E+02  0.33604206252E+02  0.40859542198E+02  0.00000000000E+00 0. -1.
<scales pt_clust_5="13000.00000" pt_clust_6="13000.00000" pt_clust_7="13000.00000" pt_clust_8="13000.00000" pt_clust_9="23.24348"></scales>
<clustering>
<clus scale="   23.243">  1  9  2 -1</clus>
<clus scale="   80.991">  7  8 -1 -1</clus>
<clus scale="   91.228">  5  6 -1 -1</clus>
<clus scale="  133.462">  2  7  1 -1</clus>
<clus scale="   23.243">  1  5  2 -1</clus>
</clustering>
</event>
<event>
 9    1  0.1636528E-005  0.1294102E+03  0.7546771E-02  0.1228850E+00
         -3   -1    0    0    0  501 -0.00000000000E+00  0.00000000000E+00  0.43244958073E+02  0.43244958073E+02  0.00000000000E+00 0.  1.
         21   -1    0    0  501  502  0.00000000000E+00 -0.00000000000E+00 -0.67331307936E+03  0.67331307936E+03  0.00000000000E+00 0. -1.
         23    2    1    2    0    0  0.34841328654E+01  0.79465170546E+02 -0.11455258209E+03  0.16803875306E+03  0.93743671557E+02 0.  0.
         23    2    1    2    0    0 -0.11500520619E+02 -0.11430090761E+03 -0.35868650981E+03  0.38766800054E+03  0.91834126919E+02 0.  0.
        -11    1    4    4    0    0  0.23887096275E+02 -0.53579560824E+02 -0.25986142455E+03  0.26640068070E+03  0.00000000000E+00 0. -1.
         11    1    4    4    0    0 -0.35387616894E+02 -0.60721346789E+02 -0.98825085263E+02  0.12126731985E+03  0.00000000000E+00 0.  1.
        -11    1    3    3    0    0 -0.11839131660E+00  0.10023273067E+03 -0.83225227054E+02  0.13028066907E+03  0.00000000000E+00 0.  1.
         11    1    3    3    0    0  0.36025241820E+01 -0.20767560123E+02 -0.31327355032E+02  0.37758083999E+02  0.00000000000E+00 0. -1.
         -3    1    1    2    0  502  0.80163877540E+01  0.34835737067E+02 -0.15682902939E+03  0.16085128382E+03  0.00000000000E+00 0.  1.
<scales pt_clust_5="13000.00000" pt_clust_6="13000.00000" pt_clust_7="13000.00000" pt_clust_8="13000.00000" pt_clust_9="35.74620"></scales>
<clustering>
<clus scale="   35.746">  2  9  1 -1</clus>
<clus scale="   91.834">  5  6 -1 -1</clus>
<clus scale="   93.744">  7  8 -1 -1</clus>
<clus scale="  128.034">  2  5  1 -1</clus>
<clus scale="   35.746">  2  5  1 -1</clus>
</clustering>
</event>
<event>
 9    1  0.1636528E-005  0.2929892E+03  0.7546771E-02  0.1088876E+00
         -4   -1    0    0    0  501 -0.00000000000E+00  0.00000000000E+00  0.11035984980E+03  0.11035984980E+03  0.00000000000E+00 0.  1.
         21   -1    0    0  501  502  0.00000000000E+00 -0.00000000000E+00 -0.92543329718E+03  0.92543329718E+03  0.00000000000E+00 0. -1.
         23    2    1    2    0    0 -0.27748131654E+03  0.20273334672E+01 -0.27739949472E+03  0.40276375280E+03  0.90929477019E+02 0.  0.
         23    2    1    2    0    0  0.27972110925E+03 -0.25225233369E+02 -0.53337201539E+03  0.60932990272E+03  0.88977593700E+02 0.  0.
        -11    1    4    4    0    0  0.19810581126E+03  0.21989438595E+02 -0.38490680198E+03  0.43345437370E+03  0.00000000000E+00 0. -1.
         11    1    4    4    0    0  0.81615297985E+02 -0.47214671964E+02 -0.14846521342E+03  0.17587552902E+03  0.00000000000E+00 0.  1.
        -13    1    3    3    0    0 -0.36327403130E+02 -0.24667711862E+02 -0.17654923014E+02  0.47327291633E+02  0.00000000000E+00 0.  1.
         13    1    3    3    0    0 -0.24115391341E+03  0.26695045329E+02 -0.25974457171E+03  0.35543646117E+03  0.00000000000E+00 0. -1.
         -4    1    1    2    0  502 -0.22397927085E+01  0.23197899902E+02 -0.43019372679E+01  0.23699491461E+02  0.00000000000E+00 0.  1.
<scales pt_clust_5="13000.00000" pt_clust_6="13000.00000" pt_clust_7="13000.00000" pt_clust_8="13000.00000" pt_clust_9="23.30579"></scales>
<clustering>
<clus scale="   23.306">  2  9  1 -1</clus>
<clus scale="   88.978">  5  6 -1 -1</clus>
<clus scale="   90.929">  7  8 -1 -1</clus>
<clus scale="  292.389">  2  5  1 -1</clus>
<clus scale="   23.306">  2  5  1 -1</clus>
</clustering>
</event>
<event>
 9    1  0.1636528E-005  0.1208723E+03  0.7546771E-02  0.1242132E+00
         21   -1    0    0  501  502  0.00000000000E+00  0.00000000000E+00  0.23868456929E+03  0.23868456929E+03  0.00000000000E+00 0.  1.
         -1   -1    0    0    0  501 -0.00000000000E+00 -0.00000000000E+00 -0.14228632281E+03  0.14228632281E+03  0.00000000000E+00 0.  1.
         23    2    1    2    0    0  0.38980676549E+02  0.55831914216E+02 -0.12762721801E+02  0.11487825994E+03  0.91637501871E+02 0.  0.
         23    2    1    2    0    0 -0.68870322830E+02 -0.59914708800E+02 -0.23177098886E+02  0.13035971726E+03  0.90130928516E+02 0.  0.
        -11    1    4    4    0    0 -0.60376193919E+02 -0.34531169099E+02 -0.55075473902E+02  0.88718624071E+02  0.00000000000E+00 0.  1.
         11    1    4    4    0    0 -0.84941289117E+01 -0.25383539702E+02  0.31898375016E+02  0.41641093194E+02  0.00000000000E+00 0. -1.
        -13    1    3    3    0    0 -0.25310269587E+02  0.15476550695E+02  0.15997523729E+02  0.33705402140E+02  0.00000000000E+00 0.  1.
         13    1    3    3    0    0  0.64290946136E+02  0.40355363521E+02 -0.28760245530E+02  0.81172857797E+02  0.00000000000E+00 0. -1.
         -1    1    1    2    0  502  0.29889646282E+02  0.40827945840E+01  0.13233806717E+03  0.13573291490E+03  0.00000000000E+00 0.  1.
<scales pt_clust_5="13000.00000" pt_clust_6="13000.00000" pt_clust_7="13000.00000" pt_clust_8="13000.00000" pt_clust_9="30.16720"></scales>
<clustering>
<clus scale="   30.167">  1  9  2 -1</clus>
<clus scale="   90.131">  5  6 -1 -1</clus>
<clus scale="   91.638">  7  8 -1 -1</clus>
<clus scale="  119.734">  1  5  2 -1</clus>
<clus scale="   30.167">  1  5  2 -1</clus>
</clustering>
</event>
<event>
 9    1  0.1636528E-005  0.1388078E+03  0.7546771E-02  0.1215125E+00
         21   -1    0    0  501  502  0.00000000000E+00  0.00000000000E+00  0.24312694483E+03  0.24312694483E+03  0.00000000000E+00 0.  1.
          4   -1    0    0  502    0 -0.00000000000E+00 -0.00000000000E+00 -0.15046885873E+03  0.15046885873E+03  0.00000000000E+00 0. -1.
         23    2    1    2    0    0 -0.90485306927E+01  0.10252421467E+03 -0.72092990443E+02  0.15650814184E+03  0.93296884680E+02 0.  0.
         23    2    1    2    0    0  0.33748992338E+02 -0.99015398629E+02  0.11298762259E+03  0.17962567636E+03  0.92499389734E+02 0.  0.
        -11    1    3    3    0    0 -0.37660031698E+02  0.61922339601E+01 -0.15641727209E+02  0.41246640821E+02  0.00000000000E+00 0.  1.
         11    1    3    3    0    0  0.28611501006E+02  0.96331980710E+02 -0.56451263233E+02  0.11526150102E+03  0.00000000000E+00 0. -1.
        -13    1    4    4    0    0  0.23360918928E+02 -0.61364631168E+02  0.12289066994E+03  0.13933221900E+03  0.00000000000E+00 0.  1.
         13    1    4    4    0    0  0.10388073410E+02 -0.37650767462E+02 -0.99030473551E+01  0.40293457366E+02  0.00000000000E+00 0. -1.
          4    1    1    2  501    0 -0.24700461645E+02 -0.35088160412E+01  0.51763453956E+02  0.57461985355E+02  0.00000000000E+00 0. -1.
<scales pt_clust_5="13000.00000" pt_clust_6="13000.00000" pt_clust_7="13000.00000" pt_clust_8="13000.00000" pt_clust_9="24.94844"></scales>
<clustering>
<clus scale="   24.948">  1  9  2 -1</clus>
<clus scale="   92.499">  7  8 -1 -1</clus>
<clus scale="   93.297">  5  6 -1 -1</clus>
<clus scale="  138.273">  1  7  2 -1</clus>
<clus scale="   24.948">  1  5  2 -1</clus>
</clustering>
</event>
<event>
 9    1  0.1636528E-005  0.1420176E+03  0.7546771E-02  0.1211699E+00
          1   -1    0    0  502    0 -0.00000000000E+00  0.00000000000E+00  0.49291698533E+03  0.49291698533E+03  0.00000000000E+00 0. -1.
         21   -1    0    0  501  502  0.00000000000E+00 -0.00000000000E+00 -0.11409644822E+03  0.11409644822E+03  0.00000000000E+00 0. -1.
         23    2    1    2    0    0  0.84848465226E+02 -0.57813761475E+02  0.24960877315E+03  0.28330477856E+03  0.86112512764E+02 0.  0.
         23    2    1    2    0    0 -0.16159348458E+03 -0.12995325635E+02  0.49818407567E+02  0.19253308618E+03  0.91136067461E+02 0.  0.
        -13    1    3    3    0    0 -0.17982181512E+02 -0.92607487842E+01  0.34727298309E+02  0.40188376028E+02  0.00000000000E+00 0. -1.
         13    1    3    3    0    0  0.10283064674E+03 -0.48553012691E+02  0.21488147484E+03  0.24311640253E+03  0.00000000000E+00 0.  1.
        -13    1    4    4    0    0 -0.55612300018E+02  0.37944847433E+02  0.28116011717E+02  0.72959231594E+02  0.00000000000E+00 0.  1.
         13    1    4    4    0    0 -0.10598118457E+03 -0.50940173068E+02  0.21702395850E+02  0.11957385458E+03  0.00000000000E+00 0. -1.
          1    1    1    2  501    0  0.76745019358E+02  0.70809087110E+02  0.79393356398E+02  0.13117556881E+03  0.00000000000E+00 0. -1.
<scales pt_clust_5="13000.00000" pt_clust_6="13000.00000" pt_clust_7="13000.00000" pt_clust_8="13000.00000" pt_clust_9="104.42090"></scales>
<clustering>
<clus scale="   86.113">  5  6 -1 -1</clus>
<clus scale="   91.136">  7  8 -1 -1</clus>
<clus scale="  104.421">  2  9  1 -1</clus>
<clus scale="  138.847">  1  5  2 -1</clus>
<clus scale="  104.421">  2  5  1 -1</clus>
</clustering>
</event>
<event>
 9    1  0.1636528E-005  0.1259505E+03  0.7546771E-02  0.1233794E+00
         -1   -1    0    0    0  501 -0.00000000000E+00  0.00000000000E+00  0.57278610200E+03  0.57278610200E+03  0.00000000000E+00 0.  1.
         21   -1    0    0  501  502  0.00000000000E+00 -0.00000000000E+00 -0.12973358008E+03  0.12973358008E+03  0.00000000000E+00 0.  1.
         23    2    1    2    0    0  0.70247422375E+02 -0.29594394440E+02  0.23896809157E+03  0.26621971168E+03  0.89200098465E+02 0.  0.
         23    2    1    2    0    0 -0.10189750564E+03  0.13126156003E+02  0.30235324854E+03  0.33175480658E+03  0.89935349870E+02 0.  0.
        -11    1    4    4    0    0 -0.19333148568E+02  0.34875397604E+02  0.16721726056E+03  0.17190600985E+03  0.00000000000E+00 0. -1.
         11    1    4    4    0    0 -0.82564357070E+02 -0.21749241601E+02  0.13513598798E+03  0.15984879673E+03  0.00000000000E+00 0.  1.
        -11    1    3    3    0    0  0.90152013226E+02 -0.14046735039E+02  0.17307512072E+03  0.19565197077E+03  0.00000000000E+00 0. -1.
         11    1    3    3    0    0 -0.19904590851E+02 -0.15547659401E+02  0.65892970850E+02  0.70567740911E+02  0.00000000000E+00 0.  1.
         -1    1    1    2    0  502  0.31650083263E+02  0.16468238437E+02 -0.98268818199E+02  0.10454516382E+03  0.00000000000E+00 0.  1.
<scales pt_clust_5="13000.00000" pt_clust_6="13000.00000" pt_clust_7="13000.00000" pt_clust_8="13000.00000" pt_clust_9="35.67815"></scales>
<clustering>
<clus scale="   35.678">  2  9  1 -1</clus>
<clus scale="   89.200">  7  8 -1 -1</clus>
<clus scale="   89.935">  5  6 -1 -1</clus>
<clus scale="  125.427">  1  7  2 -1</clus>
<clus scale="   35.678">  2  5  1 -1</clus>
</clustering>
</event>
<event>
 9    1  0.1636528E-005  0.1174902E+03  0.7546771E-02  0.1247529E+00
          3   -1    0    0  502    0 -0.00000000000E+00  0.00000000000E+00  0.46564390396E+02  0.46564390396E+02  0.00000000000E+00 0. -1.
         21   -1    0    0  501  502  0.00000000000E+00 -0.00000000000E+00 -0.52289337783E+03  0.52289337783E+03  0.00000000000E+00 0.  1.
         23    2    1    2    0    0  0.74764362984E+02 -0.65525212989E+00 -0.72140963247E+02  0.13780984956E+03  0.90537819330E+02 0.  0.
         23    2    1    2    0    0 -0.74163346365E+02 -0.25756752582E+02 -0.27461202538E+03  0.29940611484E+03  0.89825635934E+02 0.  0.
        -11    1    3    3    0    0  0.54149330400E+02  0.42939234025E+02 -0.45105573191E+02  0.82525393270E+02  0.00000000000E+00 0.  1.
         11    1    3    3    0    0  0.20615032584E+02 -0.43594486155E+02 -0.27035390056E+02  0.55284456288E+02  0.00000000000E+00 0. -1.
        -11    1    4    4    0    0 -0.77555673460E+02  0.14130395072E+02 -0.16971651897E+03  0.18713163111E+03  0.00000000000E+00 0.  1.
         11    1    4    4    0    0  0.33923270950E+01 -0.39887147654E+02 -0.10489550642E+03  0.11227448373E+03  0.00000000000E+00 0. -1.
          3    1    1    2  501    0 -0.60101661935E+00  0.26412004712E+02 -0.12957599880E+03  0.13224180383E+03  0.00000000000E+00 0. -1.
<scales pt_clust_5="13000.00000" pt_clust_6="13000.00000" pt_clust_7="13000.00000" pt_clust_8="13000.00000" pt_clust_9="26.41884"></scales>
<clustering>
<clus scale="   26.419">  2  9  1 -1</clus>
<clus scale="   89.826">  7  8 -1 -1</clus>
<clus scale="   90.538">  5  6 -1 -1</clus>
<clus scale="  116.942">  2  7  1 -1</clus>
<clus scale="   26.419">  2  5  1 -1</clus>
</clustering>
</event>
<event>
 9    1  0.1636528E-005  0.1171421E+03  0.7546771E-02  0.1248449E+00
          1   -1    0    0  502    0 -0.00000000000E+00  0.00000000000E+00  0.21389472758E+03  0.21389472758E+03  0.00000000000E+00 0. -1.
         21   -1    0    0  501  502  0.00000000000E+00 -0.00000000000E+00 -0.24823887344E+03  0.24823887344E+03  0.00000000000E+00 0. -1.
         23    2    1    2    0    0  0.85330083555E+02  0.33268264375E+02  0.11555466219E+03  0.17370097548E+03  0.91821284868E+02 0.  0.
         23    2    1    2    0    0 -0.38894883099E+02  0.69217929588E+02 -0.29602285296E+02  0.12371802029E+03  0.90143882442E+02 0.  0.
        -11    1    3    3    0    0  0.60149167231E+02 -0.25434743678E+02  0.50740075243E+02  0.82700687665E+02  0.00000000000E+00 0. -1.
         11    1    3    3    0    0  0.25180916324E+02  0.58703008053E+02  0.64814586949E+02  0.91000287817E+02  0.00000000000E+00 0.  1.
        -13    1    4    4    0    0 -0.12964973469E+02  0.28958799705E+02  0.32418565609E+02  0.45361503652E+02  0.00000000000E+00 0.  1.
         13    1    4    4    0    0 -0.25929909630E+02  0.40259129883E+02 -0.62020850906E+02  0.78356516637E+02  0.00000000000E+00 0. -1.
          1    1    1    2  501    0 -0.46435200455E+02 -0.10248619396E+03 -0.12029652275E+03  0.16471460524E+03  0.00000000000E+00 0. -1.
<scales pt_clust_5="13000.00000" pt_clust_6="13000.00000" pt_clust_7="13000.00000" pt_clust_8="13000.00000" pt_clust_9="112.51510"></scales>
<clustering>
<clus scale="   90.144">  7  8 -1 -1</clus>
<clus scale="   91.821">  5  6 -1 -1</clus>
<clus scale="  112.515">  2  9  1 -1</clus>
<clus scale="  115.832">  2  7  1 -1</clus>
<clus scale="  112.515">  2  5  1 -1</clus>
</clustering>
</event>
<event>
 9    1  0.2292348E-005  0.1228293E+03  0.7546771E-02  0.1245341E+00
         -1   -1    0    0    0  501 -0.00000000000E+00  0.00000000000E+00  0.50933162200E+03  0.50933162200E+03  0.00000000000E+00 0.  1.
         21   -1    0    0  501  502  0.00000000000E+00 -0.00000000000E+00 -0.81775694471E+02  0.81775694471E+02  0.00000000000E+00 0.  1.
         23    2    1    2    0    0 -0.49204742937E+02 -0.99474320311E+01  0.38700976000E+03  0.40564059448E+03  0.11066923431E+03 0.  0.
         23    2    1    2    0    0  0.60862881663E+02  0.56862814221E+02  0.37240992566E+01  0.12469806234E+03  0.92725766806E+02 0.  0.
        -13    1    3    3    0    0 -0.21084262521E+02 -0.58717226437E+02  0.24650404370E+03  0.25427642904E+03  0.00000000000E+00 0.  1.
         13    1    3    3    0    0 -0.28120480416E+02  0.48769794406E+02  0.14050571630E+03  0.15136416544E+03  0.00000000000E+00 0. -1.
        -13    1    4    4    0    0  0.25017141484E+02 -0.23057268778E+02  0.13418361866E+02  0.36572495768E+02  0.00000000000E+00 0. -1.
         13    1    4    4    0    0  0.35845740179E+02  0.79920082999E+02 -0.96942626096E+01  0.88125566569E+02  0.00000000000E+00 0.  1.
         -1    1    1    2    0  502 -0.11658138726E+02 -0.46915382190E+02  0.36822068277E+02  0.60768659659E+02  0.00000000000E+00 0.  1.
<scales pt_clust_5="13000.00000" pt_clust_6="13000.00000" pt_clust_7="13000.00000" pt_clust_8="13000.00000" pt_clust_9="48.34217"></scales>
<clustering>
<clus scale="   48.342">  2  9  1 -1</clus>
<clus scale="   92.726">  7  8 -1 -1</clus>
<clus scale="  106.946">  2  7  1 -1</clus>
<clus scale="  110.669">  5  6 -1 -1</clus>
<clus scale="   48.342">  2  5  1 -1</clus>
</clustering>
</event>
<event>
 9    1  0.1636528E-005  0.1278799E+03  0.7546771E-02  0.1231537E+00
         21   -1    0    0  501  502  0.00000000000E+00  0.00000000000E+00  0.15315445899E+03  0.15315445899E+03  0.00000000000E+00 0.  1.
         -4   -1    0    0    0  501 -0.00000000000E+00 -0.00000000000E+00 -0.27446462820E+03  0.27446462820E+03  0.00000000000E+00 0.  1.
         23    2    1    2    0    0  0.70270771081E+02  0.26707594565E+02 -0.13021246824E+03  0.17785547998E+03  0.95005305102E+02 0.  0.
         23    2    1    2    0    0 -0.13665617216E+03  0.22301131827E+02  0.16197100334E+02  0.16692586905E+03  0.91813124490E+02 0.  0.
        -11    1    4    4    0    0 -0.86862381374E+02 -0.15064688929E+02  0.44251777440E+02  0.98641968538E+02  0.00000000000E+00 0.  1.
         11    1    4    4    0    0 -0.49793790788E+02  0.37365820756E+02 -0.28054677106E+02  0.68283900513E+02  0.00000000000E+00 0. -1.
        -11    1    3    3    0    0  0.74730710632E+02  0.52046965196E+02 -0.79067796288E+02  0.12060382294E+03  0.00000000000E+00 0.  1.
         11    1    3    3    0    0 -0.44599395512E+01 -0.25339370631E+02 -0.51144671947E+02  0.57251657036E+02  0.00000000000E+00 0. -1.
         -4    1    1    2    0  502  0.66385401081E+02 -0.49008726392E+02 -0.72948013077E+01  0.82837738172E+02  0.00000000000E+00 0.  1.
<scales pt_clust_5="13000.00000" pt_clust_6="13000.00000" pt_clust_7="13000.00000" pt_clust_8="13000.00000" pt_clust_9="82.51592"></scales>
<clustering>
<clus scale="   82.516">  1  9  2 -1</clus>
<clus scale="   91.813">  5  6 -1 -1</clus>
<clus scale="   95.005">  7  8 -1 -1</clus>
<clus scale="  125.526">  1  5  2 -1</clus>
<clus scale="   82.516">  1  5  2 -1</clus>
</clustering>
</event>
<event>
 9    1  0.1636528E-005  0.9496625E+02  0.7546771E-02  0.1292366E+00
         -4   -1    0    0    0  501 -0.00000000000E+00  0.00000000000E+00  0.18851633178E+03  0.18851633178E+03  0.00000000000E+00 0.  1.
         21   -1    0    0  501  502  0.00000000000E+00 -0.00000000000E+00 -0.16703315481E+03  0.16703315481E+03  0.00000000000E+00 0.  1.
         23    2    1    2    0    0  0.27148837963E+02 -0.16026417859E+02  0.69164322118E+02  0.12155060832E+03  0.94852208501E+02 0.  0.
         23    2    1    2    0    0  0.20550050423E+02 -0.97010099686E+01  0.60386275982E+02  0.11310366742E+03  0.92895226413E+02 0.  0.
        -11    1    4    4    0    0  0.56797479485E+02  0.34236861831E+01  0.39411152654E+02  0.69216430538E+02  0.00000000000E+00 0.  1.
         11    1    4    4    0    0 -0.36247429061E+02 -0.13124696152E+02  0.20975123329E+02  0.43887236884E+02  0.00000000000E+00 0. -1.
        -13    1    3    3    0    0  0.62576678719E+01  0.37700365743E+02  0.45019442037E+02  0.59052740374E+02  0.00000000000E+00 0.  1.
         13    1    3    3    0    0  0.20891170091E+02 -0.53726783602E+02  0.24144880081E+02  0.62497867949E+02  0.00000000000E+00 0. -1.
         -4    1    1    2    0  502 -0.47698888387E+02  0.25727427828E+02 -0.10806742112E+03  0.12089521084E+03  0.00000000000E+00 0.  1.
<scales pt_clust_5="13000.00000" pt_clust_6="13000.00000" pt_clust_7="13000.00000" pt_clust_8="13000.00000" pt_clust_9="54.19488"></scales>
<clustering>
<clus scale="   54.195">  2  9  1 -1</clus>
<clus scale="   92.895">  5  6 -1 -1</clus>
<clus scale="   93.012">  2  5  1 -1</clus>
<clus scale="   94.852">  7  8 -1 -1</clus>
<clus scale="   54.195">  2  5  1 -1</clus>
</clustering>
</event>
<event>
 9    1  0.1636528E-005  0.1046298E+03  0.7546771E-02  0.1271404E+00
         21   -1    0    0  501  502  0.00000000000E+00  0.00000000000E+00  0.57099208568E+02  0.57099208568E+02  0.00000000000E+00 0. -1.
          1   -1    0    0  502    0 -0.00000000000E+00 -0.00000000000E+00 -0.71008252782E+03  0.71008252782E+03  0.00000000000E+00 0. -1.
         23    2    1    2    0    0  0.59178292497E+02 -0.35118459641E+02 -0.49904025966E+03  0.51219394729E+03  0.92553132667E+02 0.  0.
         23    2    1    2    0    0 -0.10630431500E+02  0.89336591629E+01 -0.17343352491E+03  0.19648636329E+03  0.91295602625E+02 0.  0.
        -11    1    3    3    0    0  0.29603885254E+01 -0.53092373467E+02 -0.29645156346E+03  0.30118282404E+03  0.00000000000E+00 0.  1.
         11    1    3    3    0    0  0.56217903971E+02  0.17973913826E+02 -0.20258869620E+03  0.21101112325E+03  0.00000000000E+00 0. -1.
        -11    1    4    4    0    0 -0.36090734452E+02  0.11941789526E+02 -0.24194605938E+02  0.45061362683E+02  0.00000000000E+00 0. -1.
         11    1    4    4    0    0  0.25460302952E+02 -0.30081303629E+01 -0.14923891897E+03  0.15142500061E+03  0.00000000000E+00 0.  1.
          1    1    1    2  501    0 -0.48547860996E+02  0.26184800478E+02  0.19490465313E+02  0.58501425807E+02  0.00000000000E+00 0. -1.
<scales pt_clust_5="13000.00000" pt_clust_6="13000.00000" pt_clust_7="13000.00000" pt_clust_8="13000.00000" pt_clust_9="55.15921"></scales>
<clustering>
<clus scale="   55.159">  1  9  2 -1</clus>
<clus scale="   91.296">  7  8 -1 -1</clus>
<clus scale="   92.553">  5  6 -1 -1</clus>
<clus scale="  103.519">  1  7  2 -1</clus>
<clus scale="   55.159">  1  5  2 -1</clus>
</clustering>
</event>
<event>
 9    1  0.1636528E-005  0.1246224E+03  0.7546771E-02  0.1247186E+00
         21   -1    0    0  501  502  0.00000000000E+00  0.00000000000E+00  0.25352367847E+03  0.25352367847E+03  0.00000000000E+00 0. -1.
         -2   -1    0    0    0  501 -0.00000000000E+00 -0.00000000000E+00 -0.61991942218E+02  0.61991942218E+02  0.00000000000E+00 0.  1.
         23    2    1    2    0    0 -0.30022603224E+02  0.12218871731E+02  0.81080464676E+02  0.14567107107E+03  0.11659914950E+03 0.  0.
         23    2    1    2    0    0  0.49775803261E+02 -0.25908343599E+02  0.94553692152E+02  0.14102921372E+03  0.88317413708E+02 0.  0.
        -11    1    3    3    0    0  0.34076726997E+01 -0.46064121442E+02  0.88658978200E+01  0.47033176180E+02  0.00000000000E+00 0.  1.
         11    1    3    3    0    0 -0.33430275924E+02  0.58282993173E+02  0.72214566856E+02  0.98637894887E+02  0.00000000000E+00 0. -1.
        -13    1    4    4    0    0  0.51096848739E+02 -0.54591909986E+02  0.58503494489E+02  0.94941157853E+02  0.00000000000E+00 0.  1.
         13    1    4    4    0    0 -0.13210454785E+01  0.28683566388E+02  0.36050197663E+02  0.46088055865E+02  0.00000000000E+00 0. -1.
         -2    1    1    2    0  502 -0.19753200037E+02  0.13689471868E+02  0.15897579428E+02  0.28815335906E+02  0.00000000000E+00 0.  1.
<scales pt_clust_5="13000.00000" pt_clust_6="13000.00000" pt_clust_7="13000.00000" pt_clust_8="13000.00000" pt_clust_9="24.03313"></scales>
<clustering>
<clus scale="   24.033">  1  9  2 -1</clus>
<clus scale="   88.317">  7  8 -1 -1</clus>
<clus scale="   98.668">  1  7  2 -1</clus>
<clus scale="  116.599">  5  6 -1 -1</clus>
<clus scale="   24.033">  1  5  2 -1</clus>
</clustering>
</event>
<event>
 9    1  0.1636528E-005  0.9385606E+02  0.7546771E-02  0.1295854E+00
          1   -1    0    0  502    0 -0.00000000000E+00  0.00000000000E+00  0.55103204724E+02  0.55103204724E+02  0.00000000000E+00 0. -1.
         21   -1    0    0  501  502  0.00000000000E+00 -0.00000000000E+00 -0.30171232965E+03  0.30171232965E+03  0.00000000000E+00 0.  1.
         23    2    1    2    0    0 -0.35408497255E+01  0.13460940143E+02 -0.32529312843E+02  0.98939104209E+02  0.92396188348E+02 0.  0.
         23    2    1    2    0    0 -0.26861896295E+02 -0.16341166028E+02 -0.90628416415E+02  0.13070383186E+03  0.88777173992E+02 0.  0.
        -11    1    3    3    0    0 -0.29551356803E+02 -0.24920007673E+02 -0.35494698230E+02  0.52480120748E+02  0.00000000000E+00 0.  1.
         11    1    3    3    0    0  0.26010507077E+02  0.38380947816E+02  0.29653853867E+01  0.46458983461E+02  0.00000000000E+00 0. -1.
        -13    1    4    4    0    0 -0.31842502077E+02 -0.36431988359E+02 -0.97539537150E+02  0.10888156879E+03  0.00000000000E+00 0.  1.
         13    1    4    4    0    0  0.49806057817E+01  0.20090822331E+02  0.69111207345E+01  0.21822263075E+02  0.00000000000E+00 0. -1.
          1    1    1    2  501    0  0.30402746021E+02  0.28802258850E+01 -0.12345139567E+03  0.12717259830E+03  0.00000000000E+00 0. -1.
<scales pt_clust_5="13000.00000" pt_clust_6="13000.00000" pt_clust_7="13000.00000" pt_clust_8="13000.00000" pt_clust_9="30.53887"></scales>
<clustering>
<clus scale="   30.539">  2  9  1 -1</clus>
<clus scale="   88.777">  7  8 -1 -1</clus>
<clus scale="   90.296">  2  7  1 -1</clus>
<clus scale="   92.396">  5  6 -1 -1</clus>
<clus scale="   30.539">  2  5  1 -1</clus>
</clustering>
</event>
<event>
 9    1  0.1636528E-005  0.9935605E+02  0.7546771E-02  0.1283500E+00
          3   -1    0    0  502    0 -0.00000000000E+00  0.00000000000E+00  0.22507130771E+03  0.22507130771E+03  0.00000000000E+00 0. -1.
         21   -1    0    0  501  502  0.00000000000E+00 -0.00000000000E+00 -0.12977488527E+03  0.12977488527E+03  0.00000000000E+00 0. -1.
         23    2    1    2    0    0 -0.20481229991E+02  0.51872856809E+02  0.13681754996E+03  0.17438670570E+03  0.92635884469E+02 0.  0.
         23    2    1    2    0    0 -0.19338932663E+02 -0.22025894949E+01  0.18538846870E+02  0.92938167976E+02  0.88966108752E+02 0.  0.
        -11    1    3    3    0    0  0.34040704301E+02  0.13007240275E+02  0.25476339430E+02  0.44463487488E+02  0.00000000000E+00 0.  1.
         11    1    3    3    0    0 -0.54521934292E+02  0.38865616534E+02  0.11134121053E+03  0.12992321821E+03  0.00000000000E+00 0. -1.
        -13    1    4    4    0    0  0.32002582940E+02 -0.16258371394E+02 -0.18326409452E+01  0.35942433530E+02  0.00000000000E+00 0.  1.
         13    1    4    4    0    0 -0.51341515603E+02  0.14055781899E+02  0.20371487815E+02  0.56995734446E+02  0.00000000000E+00 0. -1.
          3    1    1    2  501    0  0.39820162654E+02 -0.49670267314E+02 -0.60059974388E+02  0.87521319302E+02  0.00000000000E+00 0. -1.
<scales pt_clust_5="13000.00000" pt_clust_6="13000.00000" pt_clust_7="13000.00000" pt_clust_8="13000.00000" pt_clust_9="63.66145"></scales>
<clustering>
<clus scale="   63.661">  2  9  1 -1</clus>
<clus scale="   88.966">  7  8 -1 -1</clus>
<clus scale="   92.636">  5  6 -1 -1</clus>
<clus scale="   95.944">  2  7  1 -1</clus>
<clus scale="   63.661">  2  5  1 -1</clus>
</clustering>
</event>
<event>
 9    1  0.1636528E-005  0.9752426E+02  0.7546771E-02  0.1286243E+00
          3   -1    0    0  502    0 -0.00000000000E+00  0.00000000000E+00  0.31278527408E+03  0.31278527408E+03  0.00000000000E+00 0. -1.
         21   -1    0    0  501  502  0.00000000000E+00 -0.00000000000E+00 -0.12954425576E+03  0.12954425576E+03  0.00000000000E+00 0. -1.
         23    2    1    2    0    0  0.31975451557E+02  0.29132160131E+02  0.22005779697E+03  0.24199264170E+03  0.90905953442E+02 0.  0.
         23    2    1    2    0    0  0.20652648955E+02 -0.17257990719E+02  0.42017107406E+02  0.10480943421E+03  0.92169463659E+02 0.  0.
        -11    1    4    4    0    0 -0.36746709016E+02 -0.33878054400E+01  0.14294186954E+02  0.39574254635E+02  0.00000000000E+00 0.  1.
         11    1    4    4    0    0  0.57399357972E+02 -0.13870185279E+02  0.27722920452E+02  0.65235179571E+02  0.00000000000E+00 0. -1.
        -13    1    3    3    0    0  0.32994313174E+01  0.56379585516E+02  0.91874830452E+02  0.10784492747E+03  0.00000000000E+00 0.  1.
         13    1    3    3    0    0  0.28676020240E+02 -0.27247425386E+02  0.12818296652E+03  0.13414771423E+03  0.00000000000E+00 0. -1.
          3    1    1    2  501    0 -0.52628100512E+02 -0.11874169412E+02 -0.78833886065E+02  0.95527453933E+02  0.00000000000E+00 0. -1.
<scales pt_clust_5="13000.00000" pt_clust_6="13000.00000" pt_clust_7="13000.00000" pt_clust_8="13000.00000" pt_clust_9="53.95102"></scales>
<clustering>
<clus scale="   53.951">  2  9  1 -1</clus>
<clus scale="   90.906">  7  8 -1 -1</clus>
<clus scale="   92.169">  5  6 -1 -1</clus>
<clus scale="   96.331">  1  7  2 -1</clus>
<clus scale="   53.951">  2  5  1 -1</clus>
</clustering>
</event>
<event>
 9    1  0.1636528E-005  0.1094654E+03  0.7546771E-02  0.1264134E+00
         21   -1    0    0  501  502  0.00000000000E+00  0.00000000000E+00  0.18894462455E+03  0.18894462455E+03  0.00000000000E+00 0.  1.
          1   -1    0    0  502    0 -0.00000000000E+00 -0.00000000000E+00 -0.24353210991E+03  0.24353210991E+03  0.00000000000E+00 0. -1.
         23    2    1    2    0    0  0.38121183212E+02  0.47249105236E+02 -0.20393664459E+03  0.22884702163E+03  0.84232426930E+02 0.  0.
         23    2    1    2    0    0 -0.59473717085E+02 -0.36904854430E+02  0.12144038186E+03  0.16699865930E+03  0.90783779159E+02 0.  0.
        -11    1    4    4    0    0 -0.61561943858E+02 -0.58076324958E+02  0.11835581649E+03  0.14550199912E+03  0.00000000000E+00 0.  1.
         11    1    4    4    0    0  0.20882267726E+01  0.21171470528E+02  0.30845653709E+01  0.21496660180E+02  0.00000000000E+00 0. -1.
        -13    1    3    3    0    0 -0.20136901351E+02 -0.29985881405E+01 -0.16398586453E+02  0.26141919679E+02  0.00000000000E+00 0.  1.
         13    1    3    3    0    0  0.58258084562E+02  0.50247693376E+02 -0.18753805814E+03  0.20270510195E+03  0.00000000000E+00 0. -1.
          1    1    1    2  501    0  0.21352533873E+02 -0.10344250806E+02  0.27908777377E+02  0.36631053524E+02  0.00000000000E+00 0. -1.
<scales pt_clust_5="13000.00000" pt_clust_6="13000.00000" pt_clust_7="13000.00000" pt_clust_8="13000.00000" pt_clust_9="23.72624"></scales>
<clustering>
<clus scale="   23.726">  1  9  2 -1</clus>
<clus scale="   84.232">  7  8 -1 -1</clus>
<clus scale="   90.784">  5  6 -1 -1</clus>
<clus scale="  104.096">  2  7  1 -1</clus>
<clus scale="   23.726">  1  5  2 -1</clus>
</clustering>
</event>
<event>
 9    1  0.1636528E-005  0.9952936E+02  0.7546771E-02  0.1282793E+00
          1   -1    0    0  502    0 -0.00000000000E+00  0.00000000000E+00  0.56979158028E+03  0.56979158028E+03  0.00000000000E+00 0. -1.
         21   -1    0    0  501  502  0.00000000000E+00 -0.00000000000E+00 -0.58045506925E+02  0.58045506925E+02  0.00000000000E+00 0.  1.
         23    2    1    2    0    0 -0.13694157963E+02 -0.31784535687E+02  0.41289650385E+03  0.42367551671E+03  0.88428693834E+02 0.  0.
         23    2    1    2    0    0  0.23220993210E+02  0.50658268432E+02  0.12878599277E+03  0.16751231654E+03  0.91482618966E+02 0.  0.
        -11    1    4    4    0    0  0.23285049650E+02  0.76389477561E+02  0.84300896701E+02  0.11612143215E+03  0.00000000000E+00 0.  1.
         11    1    4    4    0    0 -0.64056440288E-01 -0.25731209129E+02  0.44485096073E+02  0.51390884397E+02  0.00000000000E+00 0. -1.
        -11    1    3    3    0    0 -0.26904777119E+02  0.24954206360E+02  0.15690788583E+03  0.16114175152E+03  0.00000000000E+00 0.  1.
         11    1    3    3    0    0  0.13210619155E+02 -0.56738742046E+02  0.25598861802E+03  0.26253376518E+03  0.00000000000E+00 0. -1.
          1    1    1    2  501    0 -0.95268352467E+01 -0.18873732745E+02 -0.29936423268E+02  0.36649253957E+02  0.00000000000E+00 0. -1.
<scales pt_clust_5="13000.00000" pt_clust_6="13000.00000" pt_clust_7="13000.00000" pt_clust_8="13000.00000" pt_clust_9="21.14186"></scales>
<clustering>
<clus scale="   21.142">  2  9  1 -1</clus>
<clus scale="   88.429">  7  8 -1 -1</clus>
<clus scale="   91.483">  5  6 -1 -1</clus>
<clus scale="   96.730">  1  7  2 -1</clus>
<clus scale="   21.142">  2  5  1 -1</clus>
</clustering>
</event>
<event>
 9    1  0.1636528E-005  0.1626323E+03  0.7546771E-02  0.1211890E+00
          2   -1    0    0  502    0 -0.00000000000E+00  0.00000000000E+00  0.35214971382E+03  0.35214971382E+03  0.00000000000E+00 0. -1.
         21   -1    0    0  501  502  0.00000000000E+00 -0.00000000000E+00 -0.16359209940E+03  0.16359209940E+03  0.00000000000E+00 0. -1.
         23    2    1    2    0    0  0.18758200024E+02  0.13779189097E+02 -0.29536266038E+02  0.96703283166E+02  0.89092075087E+02 0.  0.
         23    2    1    2    0    0  0.11430916126E+03 -0.45569105872E+02  0.23538114250E+03  0.28113867192E+03  0.92149567795E+02 0.  0.
        -11    1    4    4    0    0  0.22675952197E+02  0.27870775586E+02  0.63764093092E+02  0.73190426339E+02  0.00000000000E+00 0.  1.
         11    1    4    4    0    0  0.91633209059E+02 -0.73439881457E+02  0.17161704941E+03  0.20794824558E+03  0.00000000000E+00 0. -1.
        -13    1    3    3    0    0  0.14513828910E+02 -0.35861968680E+02  0.18754707650E+00  0.38688075697E+02  0.00000000000E+00 0. -1.
         13    1    3    3    0    0  0.42443711145E+01  0.49641157777E+02 -0.29723813115E+02  0.58015207469E+02  0.00000000000E+00 0.  1.
          2    1    1    2  501    0 -0.13306736128E+03  0.31789916775E+02 -0.17287262040E+02  0.13789985814E+03  0.00000000000E+00 0. -1.
<scales pt_clust_5="13000.00000" pt_clust_6="13000.00000" pt_clust_7="13000.00000" pt_clust_8="13000.00000" pt_clust_9="134.00645"></scales>
<clustering>
<clus scale="   89.092">  7  8 -1 -1</clus>
<clus scale="   92.082">  1  7  2 -1</clus>
<clus scale="   92.150">  5  6 -1 -1</clus>
<clus scale="  134.006">  2  9  1 -1</clus>
<clus scale="  134.006">  2  5  1 -1</clus>
</clustering>
</event>
<event>
 9    1  0.1636528E-005  0.2116531E+03  0.7546771E-02  0.1141056E+00
         21   -1    0    0  501  502  0.00000000000E+00  0.00000000000E+00  0.33010150661E+03  0.33010150661E+03  0.00000000000E+00 0. -1.
          2   -1    0    0  502    0 -0.00000000000E+00 -0.00000000000E+00 -0.33353488441E+03  0.33353488441E+03  0.00000000000E+00 0. -1.
         23    2    1    2    0    0 -0.20006565454E+03 -0.80010960192E+02 -0.22708179066E+03  0.32683675593E+03  0.93957998577E+02 0.  0.
         23    2    1    2    0    0  0.94048389061E+02  0.68864154999E+02  0.11199405719E+03  0.18242798295E+03  0.84557251541E+02 0.  0.
        -11    1    4    4    0    0  0.81998511845E+02  0.88509625664E+02  0.89527627690E+02  0.15024282312E+03  0.00000000000E+00 0.  1.
         11    1    4    4    0    0  0.12049877215E+02 -0.19645470665E+02  0.22466429497E+02  0.32185159824E+02  0.00000000000E+00 0. -1.
        -13    1    3    3    0    0 -0.97342673576E+02 -0.88426205542E+02 -0.13771335303E+03  0.19041995045E+03  0.00000000000E+00 0.  1.
         13    1    3    3    0    0 -0.10272298096E+03  0.84152453497E+01 -0.89368437632E+02  0.13641680548E+03  0.00000000000E+00 0. -1.
          2    1    1    2  501    0  0.10601726548E+03  0.11146805193E+02  0.11165435567E+03  0.15437165214E+03  0.00000000000E+00 0. -1.
<scales pt_clust_5="13000.00000" pt_clust_6="13000.00000" pt_clust_7="13000.00000" pt_clust_8="13000.00000" pt_clust_9="106.60165"></scales>
<clustering>
<clus scale="   84.557">  5  6 -1 -1</clus>
<clus scale="   93.958">  7  8 -1 -1</clus>
<clus scale="  106.602">  1  9  2 -1</clus>
<clus scale="  207.651">  1  5  2 -1</clus>
<clus scale="  106.602">  1  5  2 -1</clus>
</clustering>
</event>
<event>
 9    1  0.1636528E-005  0.3462382E+03  0.7546771E-02  0.1078471E+00
         21   -1    0    0  501  502  0.00000000000E+00  0.00000000000E+00  0.35863919065E+03  0.35863919065E+03  0.00000000000E+00 0. -1.
          1   -1    0    0  502    0 -0.00000000000E+00 -0.00000000000E+00 -0.11840926212E+04  0.11840926212E+04  0.00000000000E+00 0. -1.
         23    2    1    2    0    0 -0.14592821272E+03  0.16016132565E+03 -0.16403244464E+03  0.28579557731E+03  0.88463413977E+02 0.  0.
         23    2    1    2    0    0  0.12017503522E+02 -0.45155813761E+03 -0.78658394701E+03  0.91268349762E+03  0.10113203800E+03 0.  0.
        -13    1    3    3    0    0 -0.14193013439E+03  0.12982574911E+03 -0.16742543037E+03  0.25501012316E+03  0.00000000000E+00 0.  1.
         13    1    3    3    0    0 -0.39980783217E+01  0.30335576549E+02  0.33929857317E+01  0.30785454146E+02  0.00000000000E+00 0. -1.
        -13    1    4    4    0    0  0.10484184936E+01 -0.76846024150E+02 -0.69937436494E+02  0.10391176850E+03  0.00000000000E+00 0.  1.
         13    1    4    4    0    0  0.10969085029E+02 -0.37471211346E+03 -0.71664651051E+03  0.80877172912E+03  0.00000000000E+00 0. -1.
          1    1    1    2  501    0  0.13391070919E+03  0.29139681195E+03  0.12516296108E+03  0.34425273693E+03  0.00000000000E+00 0. -1.
<scales pt_clust_5="13000.00000" pt_clust_6="13000.00000" pt_clust_7="13000.00000" pt_clust_8="13000.00000" pt_clust_9="331.13923"></scales>
<clustering>
<clus scale="   88.463">  5  6 -1 -1</clus>
<clus scale="  101.132">  7  8 -1 -1</clus>
<clus scale="  234.035">  2  5  1 -1</clus>
<clus scale="  331.139">  1  9  2 -1</clus>
<clus scale="  331.139">  1  5  2 -1</clus>
</clustering>
</event>
<event>
 9    1  0.1636528E-005  0.9612606E+02  0.7546771E-02  0.1290297E+00
         21   -1    0    0  501  502  0.00000000000E+00  0.00000000000E+00  0.20510395857E+03  0.20510395857E+03  0.00000000000E+00 0.  1.
          3   -1    0    0  502    0 -0.00000000000E+00 -0.00000000000E+00 -0.78230586760E+02  0.78230586760E+02  0.00000000000E+00 0. -1.
         23    2    1    2    0    0  0.15179251949E+02  0.38839850922E+01 -0.12833537093E+02  0.97523539212E+02  0.95397306022E+02 0.  0.
         23    2    1    2    0    0  0.32183649252E+01 -0.13156098162E+02  0.81272170589E+02  0.12385083319E+03  0.92468493975E+02 0.  0.
        -11    1    3    3    0    0 -0.28577823433E+02 -0.90477261541E+01  0.24384595229E+02  0.38641452163E+02  0.00000000000E+00 0.  1.
         11    1    3    3    0    0  0.43757075382E+02  0.12931711246E+02 -0.37218132322E+02  0.58882087050E+02  0.00000000000E+00 0. -1.
        -13    1    4    4    0    0 -0.29668343950E+02 -0.34114789606E+02  0.16272840318E+02  0.48050336467E+02  0.00000000000E+00 0.  1.
         13    1    4    4    0    0  0.32886708876E+02  0.20958691444E+02  0.64999330271E+02  0.75800496722E+02  0.00000000000E+00 0. -1.
          3    1    1    2  501    0 -0.18397616874E+02  0.92721130699E+01  0.58434738319E+02  0.61960172932E+02  0.00000000000E+00 0. -1.
<scales pt_clust_5="13000.00000" pt_clust_6="13000.00000" pt_clust_7="13000.00000" pt_clust_8="13000.00000" pt_clust_9="20.60205"></scales>
<clustering>
<clus scale="   20.602">  1  9  2 -1</clus>
<clus scale="   92.468">  7  8 -1 -1</clus>
<clus scale="   93.220">  1  7  2 -1</clus>
<clus scale="   95.397">  5  6 -1 -1</clus>
<clus scale="   20.602">  1  5  2 -1</clus>
</clustering>
</event>
<event>
 9    1  0.1636528E-005  0.1144404E+03  0.7546771E-02  0.1254266E+00
          1   -1    0    0  502    0 -0.00000000000E+00  0.00000000000E+00  0.41633215870E+03  0.41633215870E+03  0.00000000000E+00 0. -1.
         21   -1    0    0  501  502  0.00000000000E+00 -0.00000000000E+00 -0.69574501458E+02  0.69574501458E+02  0.00000000000E+00 0.  1.
         23    2    1    2    0    0  0.66975005560E+02 -0.46051434231E+01  0.22097805290E+03  0.24670647470E+03  0.86752095556E+02 0.  0.
         23    2    1    2    0    0 -0.57477100403E+02  0.74951179192E+02  0.92417799275E+02  0.16076686990E+03  0.91562222025E+02 0.  0.
        -11    1    4    4    0    0 -0.19423880939E+02  0.27270762876E+02 -0.15426640925E+02  0.36864114106E+02  0.00000000000E+00 0.  1.
         11    1    4    4    0    0 -0.38053219463E+02  0.47680416316E+02  0.10784444020E+03  0.12390275580E+03  0.00000000000E+00 0. -1.
        -11    1    3    3    0    0  0.76967969323E+02  0.23001768402E+02  0.16106238537E+03  0.17998400382E+03  0.00000000000E+00 0.  1.
         11    1    3    3    0    0 -0.99929637629E+01 -0.27606911825E+02  0.59915667530E+02  0.66722470884E+02  0.00000000000E+00 0. -1.
          1    1    1    2  501    0 -0.94979051572E+01 -0.70346035769E+02  0.33361805069E+02  0.78433315551E+02  0.00000000000E+00 0. -1.
<scales pt_clust_5="13000.00000" pt_clust_6="13000.00000" pt_clust_7="13000.00000" pt_clust_8="13000.00000" pt_clust_9="70.98433"></scales>
<clustering>
<clus scale="   70.984">  2  9  1 -1</clus>
<clus scale="   86.752">  7  8 -1 -1</clus>
<clus scale="   91.562">  5  6 -1 -1</clus>
<clus scale="  110.630">  1  7  2 -1</clus>
<clus scale="   70.984">  2  5  1 -1</clus>
</clustering>
</event>
<event>
 9    1  0.1636528E-005  0.1239440E+03  0.7546771E-02  0.1248953E+00
         -1   -1    0    0    0  501 -0.00000000000E+00  0.00000000000E+00  0.10432782174E+03  0.10432782174E+03  0.00000000000E+00 0.  1.
         21   -1    0    0  501  502  0.00000000000E+00 -0.00000000000E+00 -0.18939650764E+03  0.18939650764E+03  0.00000000000E+00 0. -1.
         23    2    1    2    0    0  0.35913439452E+02  0.19840918572E+02 -0.21862113102E+01  0.10074427210E+03  0.91984736002E+02 0.  0.
         23    2    1    2    0    0 -0.24564857002E+01 -0.21425464276E+02 -0.22876623457E+02  0.12425902186E+03  0.12021597136E+03 0.  0.
        -11    1    4    4    0    0 -0.39438154892E+02  0.11937538243E+02  0.30491204505E+02  0.51259988614E+02  0.00000000000E+00 0.  1.
         11    1    4    4    0    0  0.36981669191E+02 -0.33363002519E+02 -0.53367827962E+02  0.72999033244E+02  0.00000000000E+00 0. -1.
        -11    1    3    3    0    0  0.19062412440E+01  0.53088070440E+02  0.25000560742E+00  0.53122871548E+02  0.00000000000E+00 0. -1.
         11    1    3    3    0    0  0.34007198209E+02 -0.33247151868E+02 -0.24362169176E+01  0.47621400548E+02  0.00000000000E+00 0.  1.
         -1    1    1    2    0  502 -0.33456953752E+02  0.15845457042E+01 -0.60005851132E+02  0.68721035423E+02  0.00000000000E+00 0.  1.
<scales pt_clust_5="13000.00000" pt_clust_6="13000.00000" pt_clust_7="13000.00000" pt_clust_8="13000.00000" pt_clust_9="33.49446"></scales>
<clustering>
<clus scale="   33.494">  2  9  1 -1</clus>
<clus scale="   91.985">  7  8 -1 -1</clus>
<clus scale="   96.806">  1  7  2 -1</clus>
<clus scale="  120.216">  5  6 -1 -1</clus>
<clus scale="   33.494">  2  5  1 -1</clus>
</clustering>
</event>
<event>
 9    1  0.1636528E-005  0.9733903E+02  0.7546771E-02  0.1288723E+00
         21   -1    0    0  501  502  0.00000000000E+00  0.00000000000E+00  0.28209170456E+03  0.28209170456E+03  0.00000000000E+00 0. -1.
          2   -1    0    0  502    0 -0.00000000000E+00 -0.00000000000E+00 -0.50408982448E+02  0.50408982448E+02  0.00000000000E+00 0. -1.
         23    2    1    2    0    0 -0.17690123589E+02 -0.12290512225E+02  0.56293293622E+02  0.10755937939E+03  0.89084723860E+02 0.  0.
         23    2    1    2    0    0 -0.57070388473E+01  0.41673073894E+02  0.12338735396E+03  0.16079321415E+03  0.94131839555E+02 0.  0.
        -13    1    3    3    0    0 -0.41490855411E+02  0.24106009632E+02  0.26170253708E+02  0.54657780436E+02  0.00000000000E+00 0. -1.
         13    1    3    3    0    0  0.23800731822E+02 -0.36396521857E+02  0.30123039914E+02  0.52901598957E+02  0.00000000000E+00 0.  1.
        -13    1    4    4    0    0 -0.88473685463E+01  0.71855636636E+02  0.92883376534E+02  0.11776599714E+03  0.00000000000E+00 0. -1.
         13    1    4    4    0    0  0.31403296990E+01 -0.30182562742E+02  0.30503977426E+02  0.43027217003E+02  0.00000000000E+00 0.  1.
          2    1    1    2  501    0  0.23397162436E+02 -0.29382561669E+02  0.52002074532E+02  0.64148093471E+02  0.00000000000E+00 0. -1.
<scales pt_clust_5="13000.00000" pt_clust_6="13000.00000" pt_clust_7="13000.00000" pt_clust_8="13000.00000" pt_clust_9="37.56011"></scales>
<clustering>
<clus scale="   37.560">  1  9  2 -1</clus>
<clus scale="   89.085">  5  6 -1 -1</clus>
<clus scale="   92.467">  2  5  1 -1</clus>
<clus scale="   94.132">  7  8 -1 -1</clus>
<clus scale="   37.560">  1  5  2 -1</clus>
</clustering>
</event>
<event>
 9    1  0.1636528E-005  0.1168670E+03  0.7546771E-02  0.1248879E+00
         -1   -1    0    0    0  501 -0.00000000000E+00  0.00000000000E+00  0.25239538755E+03  0.25239538755E+03  0.00000000000E+00 0.  1.
         21   -1    0    0  501  502  0.00000000000E+00 -0.00000000000E+00 -0.12221784513E+03  0.12221784513E+03  0.00000000000E+00 0.  1.
         23    2    1    2    0    0  0.74701798937E+02  0.55765861649E+02  0.11493618191E+03  0.17299380207E+03  0.89589840668E+02 0.  0.
         23    2    1    2    0    0 -0.62053141683E+02  0.16161202997E+02  0.48288090716E+02  0.12145973041E+03  0.91153439495E+02 0.  0.
        -11    1    3    3    0    0  0.81011132420E+02  0.32479144541E+02  0.11995873027E+03  0.14835024561E+03  0.00000000000E+00 0.  1.
         11    1    3    3    0    0 -0.63093334837E+01  0.23286717109E+02 -0.50225483545E+01  0.24643556453E+02  0.00000000000E+00 0. -1.
        -13    1    4    4    0    0 -0.72864178599E+02  0.41508726277E+02  0.37623375267E+02  0.91911268333E+02  0.00000000000E+00 0.  1.
         13    1    4    4    0    0  0.10811036917E+02 -0.25347523280E+02  0.10664715449E+02  0.29548462079E+02  0.00000000000E+00 0. -1.
         -1    1    1    2    0  502 -0.12648657254E+02 -0.71927064647E+02 -0.33046730203E+02  0.80159700200E+02  0.00000000000E+00 0.  1.
<scales pt_clust_5="13000.00000" pt_clust_6="13000.00000" pt_clust_7="13000.00000" pt_clust_8="13000.00000" pt_clust_9="73.03075"></scales>
<clustering>
<clus scale="   73.031">  2  9  1 -1</clus>
<clus scale="   89.590">  5  6 -1 -1</clus>
<clus scale="   91.153">  7  8 -1 -1</clus>
<clus scale="  115.652">  1  5  2 -1</clus>
<clus scale="   73.031">  2  5  1 -1</clus>
</clustering>
</event>
<event>
 9    1  0.1636528E-005  0.9321434E+02  0.7546771E-02  0.1295978E+00
         -1   -1    0    0    0  501 -0.00000000000E+00  0.00000000000E+00  0.46572336975E+02  0.46572336975E+02  0.00000000000E+00 0.  1.
         21   -1    0    0  501  502  0.00000000000E+00 -0.00000000000E+00 -0.32286695052E+03  0.32286695052E+03  0.00000000000E+00 0. -1.
         23    2    1    2    0    0 -0.19944445410E+01 -0.32777224293E+01 -0.34511967362E+02  0.98981267229E+02  0.92690312858E+02 0.  0.
         23    2    1    2    0    0  0.19964127490E+02  0.17260518262E+02 -0.16615879173E+03  0.19148083719E+03  0.91431258680E+02 0.  0.
        -11    1    3    3    0    0  0.20776958509E+02  0.31174504899E+02  0.94777212241E+01  0.38644002900E+02  0.00000000000E+00 0.  1.
         11    1    3    3    0    0 -0.22771403050E+02 -0.34452227328E+02 -0.43989688586E+02  0.60337264328E+02  0.00000000000E+00 0. -1.
        -13    1    4    4    0    0  0.24903295299E+02 -0.12376123220E+02 -0.15788734675E+03  0.16031767465E+03  0.00000000000E+00 0. -1.
         13    1    4    4    0    0 -0.49391678093E+01  0.29636641482E+02 -0.82714449785E+01  0.31163162533E+02  0.00000000000E+00 0.  1.
         -1    1    1    2    0  502 -0.17969682949E+02 -0.13982795833E+02 -0.75623854454E+02  0.78977183079E+02  0.00000000000E+00 0.  1.
<scales pt_clust_5="13000.00000" pt_clust_6="13000.00000" pt_clust_7="13000.00000" pt_clust_8="13000.00000" pt_clust_9="22.76902"></scales>
<clustering>
<clus scale="   22.769">  2  9  1 -1</clus>
<clus scale="   91.431">  7  8 -1 -1</clus>
<clus scale="   91.962">  2  7  1 -1</clus>
<clus scale="   92.690">  5  6 -1 -1</clus>
<clus scale="   22.769">  2  5  1 -1</clus>
</clustering>
</event>
<event>
 9    1  0.1636528E-005  0.1748577E+03  0.7546771E-02  0.1197834E+00
         21   -1    0    0  501  502  0.00000000000E+00  0.00000000000E+00  0.91036874143E+03  0.91036874143E+03  0.00000000000E+00 0.  1.
          3   -1    0    0  502    0 -0.00000000000E+00 -0.00000000000E+00 -0.70155644838E+02  0.70155644838E+02  0.00000000000E+00 0. -1.
         23    2    1    2    0    0  0.10199963570E+02 -0.41135619307E+02  0.28462045363E+03  0.30177168278E+03  0.90890964760E+02 0.  0.
         23    2    1    2    0    0 -0.12488830948E+03  0.11415055678E+03  0.14262198884E+03  0.24397763641E+03  0.10274539362E+03 0.  0.
        -13    1    4    4    0    0 -0.16039490642E+02  0.32357201922E+02  0.91797117701E+02  0.98645651676E+02  0.00000000000E+00 0.  1.
         13    1    4    4    0    0 -0.10884881884E+03  0.81793354859E+02  0.50824871141E+02  0.14533198474E+03  0.00000000000E+00 0. -1.
        -13    1    3    3    0    0 -0.32149923867E+02 -0.35354024968E+02  0.83932833149E+02  0.96582840953E+02  0.00000000000E+00 0. -1.
         13    1    3    3    0    0  0.42349887437E+02 -0.57815943389E+01  0.20068762048E+03  0.20518884183E+03  0.00000000000E+00 0.  1.
          3    1    1    2  501    0  0.11468834591E+03 -0.73014937475E+02  0.41297065413E+03  0.43477506708E+03  0.00000000000E+00 0. -1.
<scales pt_clust_5="13000.00000" pt_clust_6="13000.00000" pt_clust_7="13000.00000" pt_clust_8="13000.00000" pt_clust_9="141.48710"></scales>
<clustering>
<clus scale="   90.891">  7  8 -1 -1</clus>
<clus scale="  100.286">  2  7  1 -1</clus>
<clus scale="  102.745">  5  6 -1 -1</clus>
<clus scale="  141.487">  1  9  2 -1</clus>
<clus scale="  141.487">  1  5  2 -1</clus>
</clustering>
</event>
<event>
 9    1  0.1636528E-005  0.1275002E+03  0.7546771E-02  0.1231428E+00
         21   -1    0    0  501  502  0.00000000000E+00  0.00000000000E+00  0.23340185972E+03  0.23340185972E+03  0.00000000000E+00 0. -1.
          1   -1    0    0  502    0 -0.00000000000E+00 -0.00000000000E+00 -0.31712693710E+03  0.31712693710E+03  0.00000000000E+00 0. -1.
         23    2    1    2    0    0  0.72357161020E+02 -0.52934745395E+02 -0.27166837576E+03  0.30023719036E+03  0.91109922998E+02 0.  0.
         23    2    1    2    0    0 -0.86068458795E+02  0.24668147498E+02  0.11744562263E+03  0.17311050430E+03  0.90318742932E+02 0.  0.
        -11    1    4    4    0    0 -0.36818688009E+02  0.51951032208E+02  0.90594973379E+02  0.11073380123E+03  0.00000000000E+00 0.  1.
         11    1    4    4    0    0 -0.49249770786E+02 -0.27282884710E+02  0.26850649250E+02  0.62376703068E+02  0.00000000000E+00 0. -1.
        -13    1    3    3    0    0  0.22443297406E+02  0.24889413604E+02 -0.51504720988E+02  0.61448521480E+02  0.00000000000E+00 0.  1.
         13    1    3    3    0    0  0.49913863614E+02 -0.77824158999E+02 -0.22016365477E+03  0.23878866888E+03  0.00000000000E+00 0. -1.
          1    1    1    2  501    0  0.13711297775E+02  0.28266597897E+02  0.70497675754E+02  0.77181102157E+02  0.00000000000E+00 0. -1.
<scales pt_clust_5="13000.00000" pt_clust_6="13000.00000" pt_clust_7="13000.00000" pt_clust_8="13000.00000" pt_clust_9="31.41656"></scales>
<clustering>
<clus scale="   31.417">  1  9  2 -1</clus>
<clus scale="   90.319">  5  6 -1 -1</clus>
<clus scale="   91.110">  7  8 -1 -1</clus>
<clus scale="  126.936">  1  5  2 -1</clus>
<clus scale="   31.417">  1  5  2 -1</clus>
</clustering>
</event>
<event>
 9    1  0.1636528E-005  0.2229185E+03  0.7546771E-02  0.1135634E+00
         -3   -1    0    0    0  501 -0.00000000000E+00  0.00000000000E+00  0.10070701375E+04  0.10070701375E+04  0.00000000000E+00 0.  1.
         21   -1    0    0  501  502  0.00000000000E+00 -0.00000000000E+00 -0.22049323551E+03  0.22049323551E+03  0.00000000000E+00 0.  1.
         23    2    1    2    0    0 -0.18263126673E+03  0.19731414117E+02  0.33865736205E+03  0.39465679445E+03  0.85566747279E+02 0.  0.
         23    2    1    2    0    0  0.12965871949E+03  0.18325088347E+03  0.54907240403E+03  0.60001216937E+03  0.90232082442E+02 0.  0.
        -11    1    3    3    0    0 -0.17516656213E+03 -0.14147416166E+01  0.32254676418E+03  0.36704460364E+03  0.00000000000E+00 0.  1.
         11    1    3    3    0    0 -0.74647045972E+01  0.21146155733E+02  0.16110597877E+02  0.27612190804E+02  0.00000000000E+00 0. -1.
        -11    1    4    4    0    0  0.10804990076E+03  0.19022933210E+03  0.48580492756E+03  0.53279302499E+03  0.00000000000E+00 0.  1.
         11    1    4    4    0    0  0.21608818731E+02 -0.69784486300E+01  0.63267476470E+02  0.67219144379E+02  0.00000000000E+00 0. -1.
         -3    1    1    2    0  502  0.52972547245E+02 -0.20298229759E+03 -0.10115286413E+03  0.23289440916E+03  0.00000000000E+00 0.  1.
<scales pt_clust_5="13000.00000" pt_clust_6="13000.00000" pt_clust_7="13000.00000" pt_clust_8="13000.00000" pt_clust_9="203.84019"></scales>
<clustering>
<clus scale="   85.567">  5  6 -1 -1</clus>
<clus scale="   90.232">  7  8 -1 -1</clus>
<clus scale="  202.645">  1  5  2 -1</clus>
<clus scale="  203.840">  2  9  1 -1</clus>
<clus scale="  203.840">  2  5  1 -1</clus>
</clustering>
</event>
<event>
 9    1  0.1636528E-005  0.1338335E+03  0.7546771E-02  0.1225261E+00
          1   -1    0    0  502    0 -0.00000000000E+00  0.00000000000E+00  0.36026425096E+03  0.36026425096E+03  0.00000000000E+00 0. -1.
         21   -1    0    0  501  502  0.00000000000E+00 -0.00000000000E+00 -0.18164997547E+03  0.18164997547E+03  0.00000000000E+00 0. -1.
         23    2    1    2    0    0 -0.27098495747E+02 -0.10884821137E+03  0.28323137258E+03  0.31882289650E+03  0.94051939555E+02 0.  0.
         23    2    1    2    0    0  0.33659275062E+01  0.52823679357E+02  0.63066683569E+01  0.96576252862E+02  0.80532775826E+02 0.  0.
        -11    1    4    4    0    0 -0.34518625756E+02  0.55589768615E+01 -0.37844795799E+01  0.35167599200E+02  0.00000000000E+00 0.  1.
         11    1    4    4    0    0  0.37884553262E+02  0.47264702496E+02  0.10091147937E+02  0.61408653662E+02  0.00000000000E+00 0. -1.
        -13    1    3    3    0    0 -0.59094221139E+02 -0.85640280795E+02  0.17495417937E+03  0.20355674773E+03  0.00000000000E+00 0. -1.
         13    1    3    3    0    0  0.31995725391E+02 -0.23207930570E+02  0.10827719321E+03  0.11526614878E+03  0.00000000000E+00 0.  1.
          1    1    1    2  501    0  0.23732568241E+02  0.56024532008E+02 -0.11092376545E+03  0.12651507706E+03  0.00000000000E+00 0. -1.
<scales pt_clust_5="13000.00000" pt_clust_6="13000.00000" pt_clust_7="13000.00000" pt_clust_8="13000.00000" pt_clust_9="60.84392"></scales>
<clustering>
<clus scale="   60.844">  2  9  1 -1</clus>
<clus scale="   80.533">  5  6 -1 -1</clus>
<clus scale="   94.052">  7  8 -1 -1</clus>
<clus scale="  124.704">  2  5  1 -1</clus>
<clus scale="   60.844">  2  5  1 -1</clus>
</clustering>
</event>
<event>
 9    1  0.1636528E-005  0.1009455E+03  0.7546771E-02  0.1281168E+00
         -1   -1    0    0    0  501 -0.00000000000E+00  0.00000000000E+00  0.16286923224E+03  0.16286923224E+03  0.00000000000E+00 0.  1.
         21   -1    0    0  501  502  0.00000000000E+00 -0.00000000000E+00 -0.31530859185E+03  0.31530859185E+03  0.00000000000E+00 0.  1.
         23    2    1    2    0    0  0.25072352066E+02 -0.75941940555E+01  0.92814243762E+02  0.13106051491E+03  0.88747282226E+02 0.  0.
         23    2    1    2    0    0 -0.59041135142E+02  0.59974816528E+02 -0.40165811859E+02  0.13273771578E+03  0.94462556032E+02 0.  0.
        -11    1    4    4    0    0 -0.36300510179E+02  0.76128979810E+02 -0.55444772566E+02  0.10093300457E+03  0.00000000000E+00 0.  1.
         11    1    4    4    0    0 -0.22740624962E+02 -0.16154163282E+02  0.15278960708E+02  0.31804711213E+02  0.00000000000E+00 0. -1.
        -13    1    3    3    0    0 -0.25550593696E+02  0.21959334284E+02  0.38328684449E+02  0.51030708911E+02  0.00000000000E+00 0.  1.
         13    1    3    3    0    0  0.50622945762E+02 -0.29553528339E+02  0.54485559313E+02  0.80029806001E+02  0.00000000000E+00 0. -1.
         -1    1    1    2    0  502  0.33968783076E+02 -0.52380622472E+02 -0.20508779152E+03  0.21437959340E+03  0.00000000000E+00 0.  1.
<scales pt_clust_5="13000.00000" pt_clust_6="13000.00000" pt_clust_7="13000.00000" pt_clust_8="13000.00000" pt_clust_9="62.43082"></scales>
<clustering>
<clus scale="   62.431">  2  9  1 -1</clus>
<clus scale="   88.747">  7  8 -1 -1</clus>
<clus scale="   94.463">  5  6 -1 -1</clus>
<clus scale="   95.618">  1  7  2 -1</clus>
<clus scale="   62.431">  2  5  1 -1</clus>
</clustering>
</event>
<event>
 9    1  0.1636528E-005  0.1721965E+03  0.7546771E-02  0.1196991E+00
         21   -1    0    0  501  502  0.00000000000E+00  0.00000000000E+00  0.67673488366E+03  0.67673488366E+03  0.00000000000E+00 0.  1.
         -3   -1    0    0    0  501 -0.00000000000E+00 -0.00000000000E+00 -0.11115085387E+03  0.11115085387E+03  0.00000000000E+00 0.  1.
         23    2    1    2    0    0 -0.49868954431E+02 -0.15118349889E+02  0.94262472948E+01  0.10737169412E+03  0.93404226030E+02 0.  0.
         23    2    1    2    0    0  0.15034353774E+03  0.10854237740E+03  0.16040026667E+03  0.26164986240E+03  0.91366174888E+02 0.  0.
        -13    1    4    4    0    0  0.11072129532E+03  0.40126926028E+02  0.13377152929E+03  0.17822513144E+03  0.00000000000E+00 0. -1.
         13    1    4    4    0    0  0.39622242419E+02  0.68415451370E+02  0.26628737386E+02  0.83424730957E+02  0.00000000000E+00 0.  1.
        -13    1    3    3    0    0 -0.64140394082E+02  0.21468297202E+02  0.44167080016E+01  0.67781894687E+02  0.00000000000E+00 0.  1.
         13    1    3    3    0    0  0.14271439651E+02 -0.36586647091E+02  0.50095392932E+01  0.39589799431E+02  0.00000000000E+00 0. -1.
         -3    1    1    2    0  502 -0.10047458331E+03 -0.93424027509E+02  0.39575751582E+03  0.41886418102E+03  0.00000000000E+00 0.  1.
<scales pt_clust_5="13000.00000" pt_clust_6="13000.00000" pt_clust_7="13000.00000" pt_clust_8="13000.00000" pt_clust_9="145.95840"></scales>
<clustering>
<clus scale="   91.366">  5  6 -1 -1</clus>
<clus scale="   93.404">  7  8 -1 -1</clus>
<clus scale="  106.957">  2  7  1 -1</clus>
<clus scale="  145.958">  1  9  2 -1</clus>
<clus scale="  145.958">  1  5  2 -1</clus>
</clustering>
</event>
<event>
 9    1  0.1636528E-005  0.1123640E+03  0.7546771E-02  0.1258637E+00
         21   -1    0    0  501  502  0.00000000000E+00  0.00000000000E+00  0.33207119615E+03  0.33207119615E+03  0.00000000000E+00 0.  1.
          1   -1    0    0  502    0 -0.00000000000E+00 -0.00000000000E+00 -0.11267270877E+03  0.11267270877E+03  0.00000000000E+00 0. -1.
         23    2    1    2    0    0  0.80109207746E+02 -0.76191696647E+01  0.17214235013E+01  0.12246050986E+03  0.92293424815E+02 0.  0.
         23    2    1    2    0    0  0.15758545022E+02  0.71204240699E+02  0.14381726154E+03  0.18557583243E+03  0.91851016487E+02 0.  0.
        -11    1    3    3    0    0  0.52178616135E+02  0.39609936539E+02 -0.10230514396E+02  0.66303985395E+02  0.00000000000E+00 0.  1.
         11    1    3    3    0    0  0.27930591610E+02 -0.47229106203E+02  0.11951937897E+02  0.56156524465E+02  0.00000000000E+00 0. -1.
        -13    1    4    4    0    0  0.53511308713E+02  0.52474016422E+02  0.97075592503E+02  0.12264034091E+03  0.00000000000E+00 0.  1.
         13    1    4    4    0    0 -0.37752763691E+02  0.18730224277E+02  0.46741669040E+02  0.62935491517E+02  0.00000000000E+00 0. -1.
          1    1    1    2  501    0 -0.95867752768E+02 -0.63585071034E+02  0.73859802329E+02  0.13670756263E+03  0.00000000000E+00 0. -1.
<scales pt_clust_5="13000.00000" pt_clust_6="13000.00000" pt_clust_7="13000.00000" pt_clust_8="13000.00000" pt_clust_9="115.03776"></scales>
<clustering>
<clus scale="   91.851">  7  8 -1 -1</clus>
<clus scale="   92.293">  5  6 -1 -1</clus>
<clus scale="  115.038">  1  9  2 -1</clus>
<clus scale="  115.038">  1  7  2 -1</clus>
<clus scale="  112.364">  1  5  2 -1</clus>
</clustering>
</event>
<event>
 9    1  0.1636528E-005  0.1330260E+03  0.7546771E-02  0.1238050E+00
         21   -1    0    0  501  502  0.00000000000E+00  0.00000000000E+00  0.29353142018E+03  0.29353142018E+03  0.00000000000E+00 0.  1.
         -1   -1    0    0    0  501 -0.00000000000E+00 -0.00000000000E+00 -0.11417079602E+03  0.11417079602E+03  0.00000000000E+00 0.  1.
         23    2    1    2    0    0 -0.53289802298E+01  0.28682009990E+02 -0.65571737317E+01  0.97806117494E+02  0.93123489864E+02 0.  0.
         23    2    1    2    0    0  0.72382525256E+00  0.75306825330E+02  0.29415087863E+02  0.12193870041E+03  0.91280651839E+02 0.  0.
        -13    1    3    3    0    0 -0.13184741701E+02  0.61970211770E+02 -0.31765580303E+01  0.63436859013E+02  0.00000000000E+00 0.  1.
         13    1    3    3    0    0  0.78557614712E+01 -0.33288201780E+02 -0.33806157013E+01  0.34369258481E+02  0.00000000000E+00 0. -1.
        -13    1    4    4    0    0 -0.33619737233E+02  0.18201757221E+02  0.39003440868E+02  0.54615557281E+02  0.00000000000E+00 0. -1.
         13    1    4    4    0    0  0.34343562485E+02  0.57105068109E+02 -0.95883530052E+01  0.67323143133E+02  0.00000000000E+00 0.  1.
         -1    1    1    2    0  502  0.46051549773E+01 -0.10398883532E+03  0.15650271003E+03  0.18795739829E+03  0.00000000000E+00 0.  1.
<scales pt_clust_5="13000.00000" pt_clust_6="13000.00000" pt_clust_7="13000.00000" pt_clust_8="13000.00000" pt_clust_9="96.76658"></scales>
<clustering>
<clus scale="   91.281">  7  8 -1 -1</clus>
<clus scale="   93.123">  5  6 -1 -1</clus>
<clus scale="   97.586">  2  5  1 -1</clus>
<clus scale="   96.767">  1  9  2 -1</clus>
<clus scale="   96.767">  1  5  2 -1</clus>
</clustering>
</event>
<event>
 9    1  0.1636528E-005  0.1141802E+03  0.7546771E-02  0.1254461E+00
         21   -1    0    0  501  502  0.00000000000E+00  0.00000000000E+00  0.46413056637E+03  0.46413056637E+03  0.00000000000E+00 0. -1.
          3   -1    0    0  502    0 -0.00000000000E+00 -0.00000000000E+00 -0.59954429786E+02  0.59954429786E+02  0.00000000000E+00 0. -1.
         23    2    1    2    0    0  0.82298582220E+02 -0.68699178652E+02  0.13736233984E+03  0.19607224719E+03  0.89907062743E+02 0.  0.
         23    2    1    2    0    0 -0.10717896482E+02  0.14324347107E+02  0.17582817228E+03  0.20011122147E+03  0.93855711408E+02 0.  0.
        -13    1    4    4    0    0  0.13685939460E+02  0.46314458344E+02  0.13228271459E+03  0.14082276297E+03  0.00000000000E+00 0.  1.
         13    1    4    4    0    0 -0.24403835942E+02 -0.31990111237E+02  0.43545457694E+02  0.59288458501E+02  0.00000000000E+00 0. -1.
        -13    1    3    3    0    0  0.30350785904E+01  0.20394367092E+02  0.18501912430E+02  0.27703116697E+02  0.00000000000E+00 0.  1.
         13    1    3    3    0    0  0.79263503630E+02 -0.89093545744E+02  0.11886042741E+03  0.16836913050E+03  0.00000000000E+00 0. -1.
          3    1    1    2  501    0 -0.71580685738E+02  0.54374831545E+02  0.90985624460E+02  0.12790152749E+03  0.00000000000E+00 0. -1.
<scales pt_clust_5="13000.00000" pt_clust_6="13000.00000" pt_clust_7="13000.00000" pt_clust_8="13000.00000" pt_clust_9="89.89118"></scales>
<clustering>
<clus scale="   89.891">  1  9  2 -1</clus>
<clus scale="   89.907">  7  8 -1 -1</clus>
<clus scale="   93.856">  5  6 -1 -1</clus>
<clus scale="  110.957">  2  7  1 -1</clus>
<clus scale="   89.891">  1  5  2 -1</clus>
</clustering>
</event>
<event>
 9    1  0.1636528E-005  0.1468796E+03  0.7546771E-02  0.1206700E+00
          2   -1    0    0  502    0 -0.00000000000E+00  0.00000000000E+00  0.41306336828E+02  0.41306336828E+02  0.00000000000E+00 0. -1.
         21   -1    0    0  501  502  0.00000000000E+00 -0.00000000000E+00 -0.11646822433E+04  0.11646822433E+04  0.00000000000E+00 0.  1.
         23    2    1    2    0    0 -0.76300431453E+02 -0.59690582317E+02 -0.17977711372E+03  0.22783627139E+03  0.10101898083E+03 0.  0.
         23    2    1    2    0    0  0.58422070560E+02  0.13938565244E+03 -0.64391416095E+03  0.66753708289E+03  0.90215364121E+02 0.  0.
        -11    1    3    3    0    0 -0.10001108389E+03 -0.46868290190E+02 -0.12512786434E+03  0.16690067693E+03  0.00000000000E+00 0.  1.
         11    1    3    3    0    0  0.23710652438E+02 -0.12822292127E+02 -0.54649249380E+02  0.60935594460E+02  0.00000000000E+00 0. -1.
        -11    1    4    4    0    0  0.64361677604E+02  0.39727658917E+02 -0.30375327015E+03  0.31302837180E+03  0.00000000000E+00 0.  1.
         11    1    4    4    0    0 -0.59396070434E+01  0.99657993522E+02 -0.34016089080E+03  0.35450871108E+03  0.00000000000E+00 0. -1.
          2    1    1    2  501    0  0.17878360893E+02 -0.79695070122E+02 -0.29968463183E+03  0.31061522587E+03  0.00000000000E+00 0. -1.
<scales pt_clust_5="13000.00000" pt_clust_6="13000.00000" pt_clust_7="13000.00000" pt_clust_8="13000.00000" pt_clust_9="81.67582"></scales>
<clustering>
<clus scale="   81.676">  2  9  1 -1</clus>
<clus scale="   90.215">  7  8 -1 -1</clus>
<clus scale="  101.019">  5  6 -1 -1</clus>
<clus scale="  139.670">  2  7  1 -1</clus>
<clus scale="   81.676">  2  5  1 -1</clus>
</clustering>
</event>
<event>
 9    1  0.1636528E-005  0.1087914E+03  0.7546771E-02  0.1267030E+00
         -3   -1    0    0    0  501 -0.00000000000E+00  0.00000000000E+00  0.21291780725E+03  0.21291780725E+03  0.00000000000E+00 0.  1.
         21   -1    0    0  501  502  0.00000000000E+00 -0.00000000000E+00 -0.93814788155E+02  0.93814788155E+02  0.00000000000E+00 0.  1.
         23    2    1    2    0    0  0.37446153590E+02  0.14904360080E+02  0.94317798799E+02  0.14546479055E+03  0.10314942439E+03 0.  0.
         23    2    1    2    0    0  0.41454956632E+01 -0.46683162227E+02  0.28188405620E+02  0.10881459500E+03  0.94071925165E+02 0.  0.
        -11    1    4    4    0    0 -0.13713620875E+02 -0.71832693770E+02  0.26970917564E+02  0.77945042729E+02  0.00000000000E+00 0.  1.
         11    1    4    4    0    0  0.17859116538E+02  0.25149531543E+02  0.12174880557E+01  0.30869552273E+02  0.00000000000E+00 0. -1.
        -11    1    3    3    0    0 -0.32278473435E+02  0.19645033883E+02  0.50149525014E+02  0.62791735624E+02  0.00000000000E+00 0. -1.
         11    1    3    3    0    0  0.69724627025E+02 -0.47406738033E+01  0.44168273785E+02  0.82673054928E+02  0.00000000000E+00 0.  1.
         -3    1    1    2    0  502 -0.41591649254E+02  0.31778802147E+02 -0.34031853219E+01  0.52453209853E+02  0.00000000000E+00 0.  1.
<scales pt_clust_5="13000.00000" pt_clust_6="13000.00000" pt_clust_7="13000.00000" pt_clust_8="13000.00000" pt_clust_9="52.34269"></scales>
<clustering>
<clus scale="   52.343">  2  9  1 -1</clus>
<clus scale="   94.072">  5  6 -1 -1</clus>
<clus scale="  100.226">  2  5  1 -1</clus>
<clus scale="  103.149">  7  8 -1 -1</clus>
<clus scale="   52.343">  2  5  1 -1</clus>
</clustering>
</event>
<event>
 9    1  0.1636528E-005  0.2941089E+03  0.7546771E-02  0.1088429E+00
         21   -1    0    0  501  502  0.00000000000E+00  0.00000000000E+00  0.41274433318E+03  0.41274433318E+03  0.00000000000E+00 0.  1.
         -1   -1    0    0    0  501 -0.00000000000E+00 -0.00000000000E+00 -0.39981180727E+03  0.39981180727E+03  0.00000000000E+00 0.  1.
         23    2    1    2    0    0 -0.25078271642E+03  0.94001846930E+02 -0.87458541522E+02  0.29649845975E+03  0.92379770876E+02 0.  0.
         23    2    1    2    0    0  0.27532711840E+03 -0.95612177777E+02 -0.95332496823E+02  0.31879457102E+03  0.87149199060E+02 0.  0.
        -13    1    3    3    0    0 -0.14679572121E+03  0.10016139964E+03 -0.40679338857E+02  0.18230770240E+03  0.00000000000E+00 0.  1.
         13    1    3    3    0    0 -0.10398699521E+03 -0.61595527118E+01 -0.46779202666E+02  0.11419075735E+03  0.00000000000E+00 0. -1.
        -13    1    4    4    0    0  0.88509445096E+02 -0.43376668879E+02 -0.74784746810E+02  0.12372637403E+03  0.00000000000E+00 0.  1.
         13    1    4    4    0    0  0.18681767330E+03 -0.52235508898E+02 -0.20547750014E+02  0.19506819700E+03  0.00000000000E+00 0. -1.
         -1    1    1    2    0  502 -0.24544401975E+02  0.16103308470E+01  0.19572356426E+03  0.19726310968E+03  0.00000000000E+00 0.  1.
<scales pt_clust_5="13000.00000" pt_clust_6="13000.00000" pt_clust_7="13000.00000" pt_clust_8="13000.00000" pt_clust_9="24.59717"></scales>
<clustering>
<clus scale="   24.597">  1  9  2 -1</clus>
<clus scale="   87.149">  7  8 -1 -1</clus>
<clus scale="   92.380">  5  6 -1 -1</clus>
<clus scale="  292.508">  1  7  2 -1</clus>
<clus scale="   24.597">  1  5  2 -1</clus>
</clustering>
</event>
<event>
 9    1  0.1636528E-005  0.1099883E+03  0.7546771E-02  0.1262697E+00
          2   -1    0    0  502    0 -0.00000000000E+00  0.00000000000E+00  0.35610053997E+03  0.35610053997E+03  0.00000000000E+00 0. -1.
         21   -1    0    0  501  502  0.00000000000E+00 -0.00000000000E+00 -0.85387306015E+02  0.85387306015E+02  0.00000000000E+00 0. -1.
         23    2    1    2    0    0  0.53260904722E+02  0.56081388400E+02  0.23202908194E+03  0.26057271262E+03  0.89882131717E+02 0.  0.
         23    2    1    2    0    0 -0.18073671737E+02  0.90828155529E+01  0.43954140791E+02  0.10667035157E+03  0.95065463035E+02 0.  0.
        -13    1    3    3    0    0  0.41106995803E+02 -0.10966724294E+02  0.47003555393E+02  0.63398646400E+02  0.00000000000E+00 0.  1.
         13    1    3    3    0    0  0.12153908919E+02  0.67048112694E+02  0.18502552655E+03  0.19717406623E+03  0.00000000000E+00 0. -1.
        -13    1    4    4    0    0  0.36222034612E+02 -0.12815192313E+02  0.20995080533E+02  0.43784224922E+02  0.00000000000E+00 0. -1.
         13    1    4    4    0    0 -0.54295706348E+02  0.21898007866E+02  0.22959060259E+02  0.62886126644E+02  0.00000000000E+00 0.  1.
          2    1    1    2  501    0 -0.35187232986E+02 -0.65164203953E+02 -0.52699887772E+01  0.74244781794E+02  0.00000000000E+00 0. -1.
<scales pt_clust_5="13000.00000" pt_clust_6="13000.00000" pt_clust_7="13000.00000" pt_clust_8="13000.00000" pt_clust_9="74.05751"></scales>
<clustering>
<clus scale="   74.058">  2  9  1 -1</clus>
<clus scale="   89.882">  5  6 -1 -1</clus>
<clus scale="   95.065">  7  8 -1 -1</clus>
<clus scale="  105.540">  1  5  2 -1</clus>
<clus scale="   74.058">  2  5  1 -1</clus>
</clustering>
</event>
<event>
 9    1  0.1636528E-005  0.9695388E+02  0.7546771E-02  0.1287860E+00
         21   -1    0    0  501  502  0.00000000000E+00  0.00000000000E+00  0.67808184615E+02  0.67808184615E+02  0.00000000000E+00 0. -1.
          1   -1    0    0  502    0 -0.00000000000E+00 -0.00000000000E+00 -0.65242374276E+03  0.65242374276E+03  0.00000000000E+00 0. -1.
         23    2    1    2    0    0  0.73564311058E+01 -0.25583923476E+02 -0.47838784404E+03  0.48779940341E+03  0.91567867830E+02 0.  0.
         23    2    1    2    0    0  0.44825975869E+02  0.25098195628E+02 -0.13561510385E+03  0.17254213904E+03  0.93488212178E+02 0.  0.
        -11    1    3    3    0    0  0.33885591614E+02  0.22261237387E+02 -0.19226755554E+03  0.19649582418E+03  0.00000000000E+00 0.  1.
         11    1    3    3    0    0 -0.26529160508E+02 -0.47845160863E+02 -0.28612028850E+03  0.29130357922E+03  0.00000000000E+00 0. -1.
        -13    1    4    4    0    0 -0.16551542600E+02  0.38519953328E+02 -0.70741311951E+02  0.82231828287E+02  0.00000000000E+00 0.  1.
         13    1    4    4    0    0  0.61377518470E+02 -0.13421757700E+02 -0.64873791903E+02  0.90310310758E+02  0.00000000000E+00 0. -1.
          1    1    1    2  501    0 -0.52182406975E+02  0.48572784776E+00  0.29387389755E+02  0.59890384920E+02  0.00000000000E+00 0. -1.
<scales pt_clust_5="13000.00000" pt_clust_6="13000.00000" pt_clust_7="13000.00000" pt_clust_8="13000.00000" pt_clust_9="52.18467"></scales>
<clustering>
<clus scale="   52.185">  1  9  2 -1</clus>
<clus scale="   91.568">  5  6 -1 -1</clus>
<clus scale="   93.488">  7  8 -1 -1</clus>
<clus scale="   95.104">  2  5  1 -1</clus>
<clus scale="   52.185">  1  5  2 -1</clus>
</clustering>
</event>
<event>
 9    1  0.1636528E-005  0.1172581E+03  0.7546771E-02  0.1249100E+00
          3   -1    0    0  502    0 -0.00000000000E+00  0.00000000000E+00  0.89045296355E+02  0.89045296355E+02  0.00000000000E+00 0. -1.
         21   -1    0    0  501  502  0.00000000000E+00 -0.00000000000E+00 -0.21249711805E+03  0.21249711805E+03  0.00000000000E+00 0.  1.
         23    2    1    2    0    0  0.10568502464E+02 -0.70873832544E+02 -0.13640427138E+02  0.12022215916E+03  0.95564182186E+02 0.  0.
         23    2    1    2    0    0 -0.29543404182E+02  0.57649348702E+02 -0.61813205009E+02  0.12804023959E+03  0.91526884054E+02 0.  0.
        -11    1    3    3    0    0  0.37760236285E+02 -0.20657069600E+02 -0.38679710380E+02  0.57867693611E+02  0.00000000000E+00 0.  1.
         11    1    3    3    0    0 -0.27191733820E+02 -0.50216762944E+02  0.25039283241E+02  0.62354465549E+02  0.00000000000E+00 0. -1.
        -13    1    4    4    0    0 -0.33878280441E+02 -0.15364843530E+02 -0.10368859368E+02  0.38617736171E+02  0.00000000000E+00 0. -1.
         13    1    4    4    0    0  0.43348762592E+01  0.73014192233E+02 -0.51444345642E+02  0.89422503421E+02  0.00000000000E+00 0.  1.
          3    1    1    2  501    0  0.18974901718E+02  0.13224483842E+02 -0.47998189547E+02  0.53280015652E+02  0.00000000000E+00 0. -1.
<scales pt_clust_5="13000.00000" pt_clust_6="13000.00000" pt_clust_7="13000.00000" pt_clust_8="13000.00000" pt_clust_9="23.12864"></scales>
<clustering>
<clus scale="   23.129">  2  9  1 -1</clus>
<clus scale="   91.527">  7  8 -1 -1</clus>
<clus scale="   95.564">  5  6 -1 -1</clus>
<clus scale="  113.992">  2  7  1 -1</clus>
<clus scale="   23.129">  2  5  1 -1</clus>
</clustering>
</event>
<event>
 9    1  0.1636528E-005  0.1478234E+03  0.7546771E-02  0.1203233E+00
         21   -1    0    0  501  502  0.00000000000E+00  0.00000000000E+00  0.51324714157E+02  0.51324714157E+02  0.00000000000E+00 0. -1.
         -1   -1    0    0    0  501 -0.00000000000E+00 -0.00000000000E+00 -0.74645918962E+03  0.74645918962E+03  0.00000000000E+00 0.  1.
         23    2    1    2    0    0  0.81942986292E+02  0.80641864554E+02 -0.49172322617E+03  0.51290520633E+03  0.89790067429E+02 0.  0.
         23    2    1    2    0    0 -0.69595879322E+02 -0.10820756048E+03 -0.12374126116E+03  0.19967526059E+03  0.89475401175E+02 0.  0.
        -11    1    4    4    0    0 -0.52988305389E+02 -0.62164666730E+01 -0.43824211371E+02  0.69043221739E+02  0.00000000000E+00 0.  1.
         11    1    4    4    0    0 -0.16607573933E+02 -0.10199109381E+03 -0.79917049791E+02  0.13063203885E+03  0.00000000000E+00 0. -1.
        -13    1    3    3    0    0  0.56379589044E+02  0.69425252773E+01 -0.11590804413E+03  0.12907955459E+03  0.00000000000E+00 0. -1.
         13    1    3    3    0    0  0.25563397247E+02  0.73699339277E+02 -0.37581518204E+03  0.38382565175E+03  0.00000000000E+00 0.  1.
         -1    1    1    2    0  502 -0.12347106970E+02  0.27565695925E+02 -0.79669988136E+02  0.85203436855E+02  0.00000000000E+00 0.  1.
<scales pt_clust_5="13000.00000" pt_clust_6="13000.00000" pt_clust_7="13000.00000" pt_clust_8="13000.00000" pt_clust_9="30.20463"></scales>
<clustering>
<clus scale="   30.205">  1  9  2 -1</clus>
<clus scale="   89.475">  5  6 -1 -1</clus>
<clus scale="   89.790">  7  8 -1 -1</clus>
<clus scale="  147.633">  1  5  2 -1</clus>
<clus scale="   30.205">  1  5  2 -1</clus>
</clustering>
</event>
<event>
 9    1  0.1636528E-005  0.2821065E+03  0.7546771E-02  0.1094599E+00
         21   -1    0    0  501  502  0.00000000000E+00  0.00000000000E+00  0.16696706462E+03  0.16696706462E+03  0.00000000000E+00 0.  1.
          1   -1    0    0  502    0 -0.00000000000E+00 -0.00000000000E+00 -0.72149791300E+03  0.72149791300E+03  0.00000000000E+00 0. -1.
         23    2    1    2    0    0 -0.21499078414E+03  0.15657023408E+03 -0.47722698452E+03  0.55386057811E+03  0.90998185485E+02 0.  0.
         23    2    1    2    0    0  0.23079843693E+03 -0.14101509307E+03 -0.10082921752E+03  0.30227350772E+03  0.89719381403E+02 0.  0.
        -11    1    3    3    0    0 -0.38673783608E+02  0.75057617525E+02 -0.17954532917E+03  0.19840824759E+03  0.00000000000E+00 0.  1.
         11    1    3    3    0    0 -0.17631700053E+03  0.81512616559E+02 -0.29768165536E+03  0.35545233052E+03  0.00000000000E+00 0. -1.
        -11    1    4    4    0    0  0.44356118511E+02 -0.60693428057E+02 -0.57623327681E+02  0.94718558645E+02  0.00000000000E+00 0. -1.
         11    1    4    4    0    0  0.18644231842E+03 -0.80321665017E+02 -0.43205889837E+02  0.20755494908E+03  0.00000000000E+00 0.  1.
          1    1    1    2  501    0 -0.15807652789E+02 -0.15555141009E+02  0.23525353665E+02  0.32330891785E+02  0.00000000000E+00 0. -1.
<scales pt_clust_5="13000.00000" pt_clust_6="13000.00000" pt_clust_7="13000.00000" pt_clust_8="13000.00000" pt_clust_9="22.17756"></scales>
<clustering>
<clus scale="   22.178">  1  9  2 -1</clus>
<clus scale="   89.719">  7  8 -1 -1</clus>
<clus scale="   90.998">  5  6 -1 -1</clus>
<clus scale="  281.697">  1  7  2 -1</clus>
<clus scale="   22.178">  1  5  2 -1</clus>
</clustering>
</event>
<event>
 9    1  0.1636528E-005  0.1067893E+03  0.7546771E-02  0.1266995E+00
         -1   -1    0    0    0  501 -0.00000000000E+00  0.00000000000E+00  0.44807446062E+02  0.44807446062E+02  0.00000000000E+00 0.  1.
         21   -1    0    0  501  502  0.00000000000E+00 -0.00000000000E+00 -0.49548381255E+03  0.49548381255E+03  0.00000000000E+00 0.  1.
         23    2    1    2    0    0 -0.29969140703E+02 -0.47880205041E+02 -0.49769268082E+02  0.11961924820E+03  0.92957630481E+02 0.  0.
         23    2    1    2    0    0  0.34954253190E+02  0.21955041216E+02 -0.31066275155E+03  0.32664537798E+03  0.92097959313E+02 0.  0.
        -11    1    4    4    0    0  0.59405643019E+02  0.35446398978E+02 -0.17578696933E+03  0.18890880394E+03  0.00000000000E+00 0. -1.
         11    1    4    4    0    0 -0.24451389828E+02 -0.13491357762E+02 -0.13487578222E+03  0.13773657404E+03  0.00000000000E+00 0.  1.
        -13    1    3    3    0    0 -0.21364718256E+02  0.15410251177E+02 -0.49126298377E+02  0.55743342380E+02  0.00000000000E+00 0. -1.
         13    1    3    3    0    0 -0.86044224472E+01 -0.63290456218E+02 -0.64296970505E+00  0.63875905818E+02  0.00000000000E+00 0.  1.
         -1    1    1    2    0  502 -0.49851124874E+01  0.25925163824E+02 -0.90244346857E+02  0.94026632427E+02  0.00000000000E+00 0.  1.
<scales pt_clust_5="13000.00000" pt_clust_6="13000.00000" pt_clust_7="13000.00000" pt_clust_8="13000.00000" pt_clust_9="26.40010"></scales>
<clustering>
<clus scale="   26.400">  2  9  1 -1</clus>
<clus scale="   92.098">  5  6 -1 -1</clus>
<clus scale="   92.958">  7  8 -1 -1</clus>
<clus scale="  106.042">  2  5  1 -1</clus>
<clus scale="   26.400">  2  5  1 -1</clus>
</clustering>
</event>
<event>
 9    1  0.1636528E-005  0.1681782E+03  0.7546771E-02  0.1180224E+00
         21   -1    0    0  501  502  0.00000000000E+00  0.00000000000E+00  0.82254123104E+02  0.82254123104E+02  0.00000000000E+00 0.  1.
         -1   -1    0    0    0  501 -0.00000000000E+00 -0.00000000000E+00 -0.84118029467E+03  0.84118029467E+03  0.00000000000E+00 0.  1.
         23    2    1    2    0    0 -0.42515874388E+01 -0.14874028589E+03 -0.70829852682E+03  0.72997615242E+03  0.95061198002E+02 0.  0.
         23    2    1    2    0    0  0.16047701748E+01  0.93948281005E+02 -0.41405233271E+02  0.13783253107E+03  0.91948673117E+02 0.  0.
        -11    1    3    3    0    0 -0.89912100965E+01 -0.10718021488E+03 -0.64628530096E+03  0.65517412232E+03  0.00000000000E+00 0.  1.
         11    1    3    3    0    0  0.47396226578E+01 -0.41560071016E+02 -0.62013225859E+02  0.74802030101E+02  0.00000000000E+00 0. -1.
        -11    1    4    4    0    0 -0.30094420275E+02  0.82258317904E+02 -0.52683541210E+02  0.10221379804E+03  0.00000000000E+00 0. -1.
         11    1    4    4    0    0  0.31699190449E+02  0.11689963100E+02  0.11278307940E+02  0.35618733026E+02  0.00000000000E+00 0.  1.
         -1    1    1    2    0  502  0.26468172640E+01  0.54792004890E+02 -0.92224114813E+01  0.55625734288E+02  0.00000000000E+00 0.  1.
<scales pt_clust_5="13000.00000" pt_clust_6="13000.00000" pt_clust_7="13000.00000" pt_clust_8="13000.00000" pt_clust_9="54.85590"></scales>
<clustering>
<clus scale="   54.856">  1  9  2 -1</clus>
<clus scale="   91.949">  7  8 -1 -1</clus>
<clus scale="   95.061">  5  6 -1 -1</clus>
<clus scale="  166.439">  1  7  2 -1</clus>
<clus scale="   54.856">  1  5  2 -1</clus>
</clustering>
</event>
<event>
 9    1  0.1636528E-005  0.1178327E+03  0.7546771E-02  0.1246954E+00
          1   -1    0    0  502    0 -0.00000000000E+00  0.00000000000E+00  0.28924160999E+03  0.28924160999E+03  0.00000000000E+00 0. -1.
         21   -1    0    0  501  502  0.00000000000E+00 -0.00000000000E+00 -0.14486916191E+03  0.14486916191E+03  0.00000000000E+00 0.  1.
         23    2    1    2    0    0  0.72435192664E+02  0.25207172840E+02  0.18501148010E+03  0.22019838477E+03  0.91519518069E+02 0.  0.
         23    2    1    2    0    0 -0.29214981101E+02 -0.84663298787E+02 -0.55218415853E+02  0.13897523992E+03  0.90794573507E+02 0.  0.
        -13    1    4    4    0    0 -0.12251054558E+02 -0.18565516084E+02  0.25129314756E+02  0.33559636252E+02  0.00000000000E+00 0. -1.
         13    1    4    4    0    0 -0.16963926543E+02 -0.66097782703E+02 -0.80347730609E+02  0.10541560366E+03  0.00000000000E+00 0.  1.
        -13    1    3    3    0    0 -0.85103222190E+01  0.26131886581E+02  0.13666095218E+02  0.30693048709E+02  0.00000000000E+00 0.  1.
         13    1    3    3    0    0  0.80945514883E+02 -0.92471374138E+00  0.17134538488E+03  0.18950533606E+03  0.00000000000E+00 0. -1.
          1    1    1    2  501    0 -0.43220211563E+02  0.59456125947E+02  0.14579383844E+02  0.74937147220E+02  0.00000000000E+00 0. -1.
<scales pt_clust_5="13000.00000" pt_clust_6="13000.00000" pt_clust_7="13000.00000" pt_clust_8="13000.00000" pt_clust_9="73.50522"></scales>
<clustering>
<clus scale="   73.505">  2  9  1 -1</clus>
<clus scale="   90.795">  5  6 -1 -1</clus>
<clus scale="   91.520">  7  8 -1 -1</clus>
<clus scale="  117.271">  2  5  1 -1</clus>
<clus scale="   73.505">  2  5  1 -1</clus>
</clustering>
</event>
<event>
 9    1  0.1636528E-005  0.1057840E+03  0.7546771E-02  0.1268694E+00
         21   -1    0    0  501  502  0.00000000000E+00  0.00000000000E+00  0.82868668926E+02  0.82868668926E+02  0.00000000000E+00 0.  1.
          1   -1    0    0  502    0 -0.00000000000E+00 -0.00000000000E+00 -0.26280784410E+03  0.26280784410E+03  0.00000000000E+00 0. -1.
         23    2    1    2    0    0  0.49066285119E+02  0.22518442381E+02 -0.15414189736E+03  0.18761686642E+03  0.92335169138E+02 0.  0.
         23    2    1    2    0    0 -0.53142709346E+02  0.22808452213E+02 -0.27274303216E+02  0.11252585463E+03  0.92594855661E+02 0.  0.
        -13    1    4    4    0    0  0.20433056696E+02 -0.21874401529E+01  0.13681451037E+02  0.24687583981E+02  0.00000000000E+00 0.  1.
         13    1    4    4    0    0 -0.73575766042E+02  0.24995892366E+02 -0.40955754252E+02  0.87838270647E+02  0.00000000000E+00 0. -1.
        -13    1    3    3    0    0  0.16066411375E+02  0.56820334448E+02 -0.92428068237E+02  0.10967965982E+03  0.00000000000E+00 0.  1.
         13    1    3    3    0    0  0.32999873744E+02 -0.34301892066E+02 -0.61713829125E+02  0.77937206594E+02  0.00000000000E+00 0. -1.
          1    1    1    2  501    0  0.40764242265E+01 -0.45326894595E+02  0.14770254012E+01  0.45533791980E+02  0.00000000000E+00 0. -1.
<scales pt_clust_5="13000.00000" pt_clust_6="13000.00000" pt_clust_7="13000.00000" pt_clust_8="13000.00000" pt_clust_9="45.50983"></scales>
<clustering>
<clus scale="   45.510">  1  9  2 -1</clus>
<clus scale="   92.335">  7  8 -1 -1</clus>
<clus scale="   92.595">  5  6 -1 -1</clus>
<clus scale="  105.557">  2  7  1 -1</clus>
<clus scale="   45.510">  1  5  2 -1</clus>
</clustering>
</event>
<event>
 9    1  0.1636528E-005  0.9544397E+02  0.7546771E-02  0.1290376E+00
          1   -1    0    0  502    0 -0.00000000000E+00  0.00000000000E+00  0.23840704156E+03  0.23840704156E+03  0.00000000000E+00 0. -1.
         21   -1    0    0  501  502  0.00000000000E+00 -0.00000000000E+00 -0.18491686559E+03  0.18491686559E+03  0.00000000000E+00 0. -1.
         23    2    1    2    0    0  0.11409669687E+02  0.63501361570E+01  0.14112418517E+03  0.16867651488E+03  0.91461610739E+02 0.  0.
         23    2    1    2    0    0 -0.91622783531E+02  0.12970797794E+02  0.51728523024E+01  0.13046786231E+03  0.91826622703E+02 0.  0.
        -11    1    4    4    0    0 -0.79745657119E+02  0.39235418103E+02  0.28556914265E+02  0.93350335914E+02  0.00000000000E+00 0. -1.
         11    1    4    4    0    0 -0.11877126412E+02 -0.26264620309E+02 -0.23384061963E+02  0.37117526394E+02  0.00000000000E+00 0.  1.
        -11    1    3    3    0    0 -0.37192036330E+02 -0.10017864710E+02  0.80715083214E+02  0.89434500267E+02  0.00000000000E+00 0.  1.
         11    1    3    3    0    0  0.48601706017E+02  0.16368000867E+02  0.60409101959E+02  0.79242014611E+02  0.00000000000E+00 0. -1.
          1    1    1    2  501    0  0.80213113844E+02 -0.19320933951E+02 -0.92806861504E+02  0.12417952997E+03  0.00000000000E+00 0. -1.
<scales pt_clust_5="13000.00000" pt_clust_6="13000.00000" pt_clust_7="13000.00000" pt_clust_8="13000.00000" pt_clust_9="82.50722"></scales>
<clustering>
<clus scale="   82.507">  2  9  1 -1</clus>
<clus scale="   91.462">  7  8 -1 -1</clus>
<clus scale="   91.827">  5  6 -1 -1</clus>
<clus scale="   95.093">  1  7  2 -1</clus>
<clus scale="   82.507">  2  5  1 -1</clus>
</clustering>
</event>
<event>
 9    1  0.1636528E-005  0.1387745E+03  0.7546771E-02  0.1229487E+00
         -4   -1    0    0    0  501 -0.00000000000E+00  0.00000000000E+00  0.28123329688E+03  0.28123329688E+03  0.00000000000E+00 0.  1.
         21   -1    0    0  501  502  0.00000000000E+00 -0.00000000000E+00 -0.13963539091E+03  0.13963539091E+03  0.00000000000E+00 0.  1.
         23    2    1    2    0    0 -0.34540885171E+02  0.35275044662E+02  0.61878154555E+02  0.11970085372E+03  0.89788567456E+02 0.  0.
         23    2    1    2    0    0 -0.72672770641E+02 -0.53062955839E+02  0.12857613011E+03  0.18201195501E+03  0.92192850353E+02 0.  0.
        -11    1    4    4    0    0 -0.83810794088E+02 -0.14918819666E+02  0.65282197455E+02  0.10727807647E+03  0.00000000000E+00 0.  1.
         11    1    4    4    0    0  0.11138023446E+02 -0.38144136173E+02  0.63293932654E+02  0.74733878539E+02  0.00000000000E+00 0. -1.
        -13    1    3    3    0    0 -0.21639408504E+02 -0.28208227974E+02  0.10653261299E+02  0.37114149621E+02  0.00000000000E+00 0.  1.
         13    1    3    3    0    0 -0.12901476668E+02  0.63483272636E+02  0.51224893256E+02  0.82586704098E+02  0.00000000000E+00 0. -1.
         -4    1    1    2    0  502  0.10721365581E+03  0.17787911177E+02 -0.48856378686E+02  0.11915587906E+03  0.00000000000E+00 0.  1.
<scales pt_clust_5="13000.00000" pt_clust_6="13000.00000" pt_clust_7="13000.00000" pt_clust_8="13000.00000" pt_clust_9="103.72477"></scales>
<clustering>
<clus scale="   89.789">  7  8 -1 -1</clus>
<clus scale="   92.193">  5  6 -1 -1</clus>
<clus scale="  102.467">  1  7  2 -1</clus>
<clus scale="  103.725">  2  9  1 -1</clus>
<clus scale="  103.725">  2  5  1 -1</clus>
</clustering>
</event>
<event>
 9    1  0.1636528E-005  0.1062901E+03  0.7546771E-02  0.1272584E+00
         21   -1    0    0  501  502  0.00000000000E+00  0.00000000000E+00  0.58139002062E+02  0.58139002062E+02  0.00000000000E+00 0. -1.
         -2   -1    0    0    0  501 -0.00000000000E+00 -0.00000000000E+00 -0.59814831172E+03  0.59814831172E+03  0.00000000000E+00 0.  1.
         23    2    1    2    0    0 -0.42781957206E+02 -0.26389218335E+02 -0.25246982338E+03  0.27157126027E+03  0.86505785842E+02 0.  0.
         23    2    1    2    0    0  0.78332253534E+02  0.86614614959E+02 -0.67707622051E+02  0.15402801633E+03  0.74177316354E+02 0.  0.
        -11    1    3    3    0    0 -0.13798215674E+02 -0.40313880468E+02 -0.22582923749E+03  0.22981393391E+03  0.00000000000E+00 0. -1.
         11    1    3    3    0    0 -0.28983741532E+02  0.13924662133E+02 -0.26640585890E+02  0.41757326366E+02  0.00000000000E+00 0.  1.
        -11    1    4    4    0    0  0.59167762620E+02  0.66423063893E+02 -0.94424053876E+01  0.89453935464E+02  0.00000000000E+00 0. -1.
         11    1    4    4    0    0  0.19164490914E+02  0.20191551066E+02 -0.58265216664E+02  0.64574080863E+02  0.00000000000E+00 0.  1.
         -2    1    1    2    0  502 -0.35550296328E+02 -0.60225396625E+02 -0.21983186424E+03  0.23068803719E+03  0.00000000000E+00 0.  1.
<scales pt_clust_5="13000.00000" pt_clust_6="13000.00000" pt_clust_7="13000.00000" pt_clust_8="13000.00000" pt_clust_9="69.93516"></scales>
<clustering>
<clus scale="   69.935">  1  9  2 -1</clus>
<clus scale="   74.177">  7  8 -1 -1</clus>
<clus scale="   86.506">  5  6 -1 -1</clus>
<clus scale="   96.523">  1  7  2 -1</clus>
<clus scale="   69.935">  1  5  2 -1</clus>
</clustering>
</event>
<event>
 9    1  0.1636528E-005  0.9951093E+02  0.7546771E-02  0.1281884E+00
         21   -1    0    0  501  502  0.00000000000E+00  0.00000000000E+00  0.16106185073E+03  0.16106185073E+03  0.00000000000E+00 0. -1.
         -1   -1    0    0    0  501 -0.00000000000E+00 -0.00000000000E+00 -0.21447914411E+03  0.21447914411E+03  0.00000000000E+00 0.  1.
         23    2    1    2    0    0 -0.18380496235E+02 -0.75110658712E+01 -0.73234652004E+02  0.11802016259E+03  0.90394611410E+02 0.  0.
         23    2    1    2    0    0  0.47862061537E+02  0.41085528104E+02 -0.87374015769E+02  0.14138988051E+03  0.91531863989E+02 0.  0.
        -13    1    3    3    0    0 -0.44268174652E+02 -0.32396922009E+02 -0.32683248290E+02  0.63854730141E+02  0.00000000000E+00 0.  1.
         13    1    3    3    0    0  0.25887678416E+02  0.24885856138E+02 -0.40551403714E+02  0.54165432452E+02  0.00000000000E+00 0. -1.
        -13    1    4    4    0    0  0.44356720109E+02  0.97865925043E+01 -0.98110500173E+02  0.10811552273E+03  0.00000000000E+00 0.  1.
         13    1    4    4    0    0  0.35053414274E+01  0.31298935599E+02  0.10736484404E+02  0.33274357778E+02  0.00000000000E+00 0. -1.
         -1    1    1    2    0  502 -0.29481565301E+02 -0.33574462233E+02  0.10719137440E+03  0.11613095174E+03  0.00000000000E+00 0.  1.
<scales pt_clust_5="13000.00000" pt_clust_6="13000.00000" pt_clust_7="13000.00000" pt_clust_8="13000.00000" pt_clust_9="44.68117"></scales>
<clustering>
<clus scale="   44.681">  1  9  2 -1</clus>
<clus scale="   90.395">  5  6 -1 -1</clus>
<clus scale="   91.532">  7  8 -1 -1</clus>
<clus scale="   98.466">  2  5  1 -1</clus>
<clus scale="   44.681">  1  5  2 -1</clus>
</clustering>
</event>
<event>
 9    1  0.1636528E-005  0.1014551E+03  0.7546771E-02  0.1289423E+00
          2   -1    0    0  502    0 -0.00000000000E+00  0.00000000000E+00  0.72643860579E+02  0.72643860579E+02  0.00000000000E+00 0. -1.
         21   -1    0    0  501  502  0.00000000000E+00 -0.00000000000E+00 -0.20155711984E+03  0.20155711984E+03  0.00000000000E+00 0.  1.
         23    2    1    2    0    0  0.23499267242E+02  0.15614379925E+02 -0.26826827900E+01  0.83066833697E+02  0.78082505417E+02 0.  0.
         23    2    1    2    0    0 -0.90592797862E+01  0.22504211979E+02 -0.83907106162E+02  0.13237347598E+03  0.99467706178E+02 0.  0.
        -13    1    4    4    0    0  0.11223548313E+02  0.47807182084E+02 -0.79012054938E+01  0.49738553897E+02  0.00000000000E+00 0.  1.
         13    1    4    4    0    0 -0.20282828099E+02 -0.25302970105E+02 -0.76005900668E+02  0.82634922086E+02  0.00000000000E+00 0. -1.
        -13    1    3    3    0    0 -0.23082142474E+02  0.15642681431E+02 -0.18965048663E+02  0.33721682258E+02  0.00000000000E+00 0.  1.
         13    1    3    3    0    0  0.46581409716E+02 -0.28301506412E-01  0.16282365873E+02  0.49345151439E+02  0.00000000000E+00 0. -1.
          2    1    1    2  501    0 -0.14439987456E+02 -0.38118591904E+02 -0.42323470306E+02  0.58760670734E+02  0.00000000000E+00 0. -1.
<scales pt_clust_5="13000.00000" pt_clust_6="13000.00000" pt_clust_7="13000.00000" pt_clust_8="13000.00000" pt_clust_9="40.76200"></scales>
<clustering>
<clus scale="   40.762">  2  9  1 -1</clus>
<clus scale="   78.083">  7  8 -1 -1</clus>
<clus scale="   80.599">  1  7  2 -1</clus>
<clus scale="   99.468">  5  6 -1 -1</clus>
<clus scale="   40.762">  2  5  1 -1</clus>
</clustering>
</event>
<event>
 9    1  0.1636528E-005  0.1066641E+03  0.7546771E-02  0.1268844E+00
          2   -1    0    0  502    0 -0.00000000000E+00  0.00000000000E+00  0.57324946769E+03  0.57324946769E+03  0.00000000000E+00 0. -1.
         21   -1    0    0  501  502  0.00000000000E+00 -0.00000000000E+00 -0.98978430209E+02  0.98978430209E+02  0.00000000000E+00 0. -1.
         23    2    1    2    0    0  0.53917349563E+02 -0.25127028308E+02  0.43564404983E+03  0.44919470992E+03  0.91933134057E+02 0.  0.
         23    2    1    2    0    0 -0.31927478202E+02  0.25194722526E+02  0.11126803983E+03  0.14713666969E+03  0.87261016339E+02 0.  0.
        -11    1    3    3    0    0 -0.21534287503E+02 -0.23929582311E+02  0.17092542852E+03  0.17393059697E+03  0.00000000000E+00 0.  1.
         11    1    3    3    0    0  0.75451637065E+02 -0.11974459974E+01  0.26471862131E+03  0.27526411296E+03  0.00000000000E+00 0. -1.
        -11    1    4    4    0    0 -0.19857766456E+02 -0.26824999593E+02  0.14039020260E+02  0.36207811058E+02  0.00000000000E+00 0.  1.
         11    1    4    4    0    0 -0.12069711746E+02  0.52019722118E+02  0.97229019573E+02  0.11092885863E+03  0.00000000000E+00 0. -1.
          2    1    1    2  501    0 -0.21989871361E+02 -0.67694217607E-01 -0.72641052182E+02  0.75896518280E+02  0.00000000000E+00 0. -1.
<scales pt_clust_5="13000.00000" pt_clust_6="13000.00000" pt_clust_7="13000.00000" pt_clust_8="13000.00000" pt_clust_9="21.98998"></scales>
<clustering>
<clus scale="   21.990">  2  9  1 -1</clus>
<clus scale="   87.261">  7  8 -1 -1</clus>
<clus scale="   91.933">  5  6 -1 -1</clus>
<clus scale="  102.665">  2  7  1 -1</clus>
<clus scale="   21.990">  2  5  1 -1</clus>
</clustering>
</event>
<event>
 9    1  0.1636528E-005  0.9092872E+02  0.7546771E-02  0.1300826E+00
         21   -1    0    0  501  502  0.00000000000E+00  0.00000000000E+00  0.42722773214E+02  0.42722773214E+02  0.00000000000E+00 0. -1.
          2   -1    0    0  502    0 -0.00000000000E+00 -0.00000000000E+00 -0.32864147517E+03  0.32864147517E+03  0.00000000000E+00 0. -1.
         23    2    1    2    0    0 -0.22630751639E+02 -0.86116715089E+01 -0.15879919096E+03  0.18423449513E+03  0.90215599197E+02 0.  0.
         23    2    1    2    0    0 -0.27167969201E+01 -0.26094269774E+00 -0.13212313628E+03  0.15981203434E+03  0.89866089832E+02 0.  0.
        -11    1    4    4    0    0 -0.99883886636E+01 -0.41306936429E+02 -0.94677313531E+02  0.10377776545E+03  0.00000000000E+00 0.  1.
         11    1    4    4    0    0  0.72715917434E+01  0.41045993731E+02 -0.37445822750E+02  0.56034268883E+02  0.00000000000E+00 0. -1.
        -13    1    3    3    0    0  0.32648267042E+02 -0.17048695304E+02 -0.52606075127E+02  0.64218116546E+02  0.00000000000E+00 0.  1.
         13    1    3    3    0    0 -0.55279018681E+02  0.84370237954E+01 -0.10619311583E+03  0.12001637858E+03  0.00000000000E+00 0. -1.
          2    1    1    2  501    0  0.25347548559E+02  0.88726142066E+01  0.50036252895E+01  0.27317718918E+02  0.00000000000E+00 0. -1.
<scales pt_clust_5="13000.00000" pt_clust_6="13000.00000" pt_clust_7="13000.00000" pt_clust_8="13000.00000" pt_clust_9="26.85557"></scales>
<clustering>
<clus scale="   26.856">  1  9  2 -1</clus>
<clus scale="   89.866">  5  6 -1 -1</clus>
<clus scale="   90.216">  7  8 -1 -1</clus>
<clus scale="   90.582">  1  5  2 -1</clus>
<clus scale="   26.856">  1  5  2 -1</clus>
</clustering>
</event>
<event>
 9    1  0.1636528E-005  0.1015441E+03  0.7546771E-02  0.1280383E+00
          3   -1    0    0  502    0 -0.00000000000E+00  0.00000000000E+00  0.19011685251E+03  0.19011685251E+03  0.00000000000E+00 0. -1.
         21   -1    0    0  501  502  0.00000000000E+00 -0.00000000000E+00 -0.36069153700E+03  0.36069153700E+03  0.00000000000E+00 0. -1.
         23    2    1    2    0    0  0.41824131480E+02  0.13280392958E+02  0.99841629770E+02  0.14491204085E+03  0.95422857513E+02 0.  0.
         23    2    1    2    0    0 -0.24242222511E+02  0.19659817763E+02  0.33337537469E+02  0.99856182269E+02  0.88801305993E+02 0.  0.
        -11    1    4    4    0    0 -0.49524071664E+02  0.38047929810E+02  0.17760313950E+02  0.64928479026E+02  0.00000000000E+00 0.  1.
         11    1    4    4    0    0  0.25281849153E+02 -0.18388112047E+02  0.15577223519E+02  0.34927703243E+02  0.00000000000E+00 0. -1.
        -11    1    3    3    0    0  0.48464995715E+02  0.48210903224E+02  0.75340179638E+02  0.10173145859E+03  0.00000000000E+00 0. -1.
         11    1    3    3    0    0 -0.66408642354E+01 -0.34930510266E+02  0.24501450132E+02  0.43180582254E+02  0.00000000000E+00 0.  1.
          3    1    1    2  501    0 -0.17581908969E+02 -0.32940210721E+02 -0.30375385173E+03  0.30604016639E+03  0.00000000000E+00 0. -1.
<scales pt_clust_5="13000.00000" pt_clust_6="13000.00000" pt_clust_7="13000.00000" pt_clust_8="13000.00000" pt_clust_9="37.33873"></scales>
<clustering>
<clus scale="   37.339">  2  9  1 -1</clus>
<clus scale="   88.801">  5  6 -1 -1</clus>
<clus scale="   95.349">  2  5  1 -1</clus>
<clus scale="   95.423">  7  8 -1 -1</clus>
<clus scale="   37.339">  2  5  1 -1</clus>
</clustering>
</event>
<event>
 9    1  0.1636528E-005  0.1018785E+03  0.7546771E-02  0.1276751E+00
         -2   -1    0    0    0  501 -0.00000000000E+00  0.00000000000E+00  0.36539009360E+03  0.36539009360E+03  0.00000000000E+00 0.  1.
         21   -1    0    0  501  502  0.00000000000E+00 -0.00000000000E+00 -0.62191634448E+02  0.62191634448E+02  0.00000000000E+00 0. -1.
         23    2    1    2    0    0 -0.33425480631E+02 -0.18176577773E+02  0.24354047742E+03  0.26495805263E+03  0.97175896074E+02 0.  0.
         23    2    1    2    0    0  0.79955439182E+01  0.15194132487E+02  0.82679417561E+02  0.12819166751E+03  0.96449090959E+02 0.  0.
        -11    1    4    4    0    0  0.16063605239E+02  0.51391522521E+02  0.71404397429E+02  0.89429950087E+02  0.00000000000E+00 0.  1.
         11    1    4    4    0    0 -0.80680613210E+01 -0.36197390035E+02  0.11275020132E+02  0.38761717425E+02  0.00000000000E+00 0. -1.
        -13    1    3    3    0    0 -0.62380508876E+02 -0.33450636625E+02  0.15019593046E+03  0.16603942455E+03  0.00000000000E+00 0.  1.
         13    1    3    3    0    0  0.28955028244E+02  0.15274058853E+02  0.93344546960E+02  0.98918628082E+02  0.00000000000E+00 0. -1.
         -2    1    1    2    0  502  0.25429936713E+02  0.29824452861E+01 -0.23021435825E+02  0.34432007908E+02  0.00000000000E+00 0.  1.
<scales pt_clust_5="13000.00000" pt_clust_6="13000.00000" pt_clust_7="13000.00000" pt_clust_8="13000.00000" pt_clust_9="25.60423"></scales>
<clustering>
<clus scale="   25.604">  2  9  1 -1</clus>
<clus scale="   96.449">  5  6 -1 -1</clus>
<clus scale="   97.176">  7  8 -1 -1</clus>
<clus scale="  101.186">  2  5  1 -1</clus>
<clus scale="   25.604">  2  5  1 -1</clus>
</clustering>
</event>
<event>
 9    1  0.1636528E-005  0.1376291E+03  0.7546771E-02  0.1227665E+00
          4   -1    0    0  502    0 -0.00000000000E+00  0.00000000000E+00  0.47072898862E+03  0.47072898862E+03  0.00000000000E+00 0. -1.
         21   -1    0    0  501  502  0.00000000000E+00 -0.00000000000E+00 -0.14555705053E+03  0.14555705053E+03  0.00000000000E+00 0.  1.
         23    2    1    2    0    0 -0.55309987644E+02  0.19882135542E+02  0.28057222413E+03  0.30103120405E+03  0.91894062992E+02 0.  0.
         23    2    1    2    0    0 -0.28164906389E+02 -0.10642893602E+03 -0.65117639034E+02  0.15247798123E+03  0.82999081147E+02 0.  0.
        -13    1    3    3    0    0 -0.35369287817E+02 -0.29042512786E+02  0.67817649855E+02  0.81814960132E+02  0.00000000000E+00 0.  1.
         13    1    3    3    0    0 -0.19940699827E+02  0.48924648328E+02  0.21275457428E+03  0.21921624392E+03  0.00000000000E+00 0. -1.
        -13    1    4    4    0    0  0.14121795458E+02 -0.66938080386E+02 -0.65364158149E+02  0.94618205877E+02  0.00000000000E+00 0. -1.
         13    1    4    4    0    0 -0.42286701848E+02 -0.39490855632E+02  0.24651911521E+00  0.57859775348E+02  0.00000000000E+00 0.  1.
          4    1    1    2  501    0  0.83474894033E+02  0.86546800476E+02  0.10971735300E+03  0.16277685387E+03  0.00000000000E+00 0. -1.
<scales pt_clust_5="13000.00000" pt_clust_6="13000.00000" pt_clust_7="13000.00000" pt_clust_8="13000.00000" pt_clust_9="109.78590"></scales>
<clustering>
<clus scale="   82.999">  7  8 -1 -1</clus>
<clus scale="   91.894">  5  6 -1 -1</clus>
<clus scale="  109.083">  1  5  2 -1</clus>
<clus scale="  109.786">  2  9  1 -1</clus>
<clus scale="  109.786">  2  5  1 -1</clus>
</clustering>
</event>
<event>
 9    1  0.1636528E-005  0.1058123E+03  0.7546771E-02  0.1269379E+00
         -3   -1    0    0    0  501 -0.00000000000E+00  0.00000000000E+00  0.32831801384E+03  0.32831801384E+03  0.00000000000E+00 0.  1.
         21   -1    0    0  501  502  0.00000000000E+00 -0.00000000000E+00 -0.13894545405E+03  0.13894545405E+03  0.00000000000E+00 0.  1.
         23    2    1    2    0    0 -0.56336951772E+02  0.23646487917E+02  0.17274465788E+03  0.20490493201E+03  0.91718623029E+02 0.  0.
         23    2    1    2    0    0  0.47724366122E+02  0.36744805153E+02  0.10781660832E+03  0.15264679956E+03  0.89715263812E+02 0.  0.
        -11    1    3    3    0    0 -0.16621564155E+02  0.53049621043E+02  0.12203027181E+03  0.13409670363E+03  0.00000000000E+00 0.  1.
         11    1    3    3    0    0 -0.39715387617E+02 -0.29403133127E+02  0.50714386070E+02  0.70808228375E+02  0.00000000000E+00 0. -1.
        -11    1    4    4    0    0  0.80763501558E+01  0.48753318951E+02  0.98476193872E+02  0.11018019014E+03  0.00000000000E+00 0.  1.
         11    1    4    4    0    0  0.39648015966E+02 -0.12008513798E+02  0.93404144447E+01  0.42466609420E+02  0.00000000000E+00 0. -1.
         -3    1    1    2    0  502  0.86125856501E+01 -0.60391293070E+02 -0.91188706403E+02  0.10971173632E+03  0.00000000000E+00 0.  1.
<scales pt_clust_5="13000.00000" pt_clust_6="13000.00000" pt_clust_7="13000.00000" pt_clust_8="13000.00000" pt_clust_9="61.00234"></scales>
<clustering>
<clus scale="   61.002">  2  9  1 -1</clus>
<clus scale="   89.715">  7  8 -1 -1</clus>
<clus scale="   91.719">  5  6 -1 -1</clus>
<clus scale="  104.081">  2  7  1 -1</clus>
<clus scale="   61.002">  2  5  1 -1</clus>
</clustering>
</event>
<event>
 9    1  0.1636528E-005  0.9752133E+02  0.7546771E-02  0.1286102E+00
         21   -1    0    0  501  502  0.00000000000E+00  0.00000000000E+00  0.53580838380E+02  0.53580838380E+02  0.00000000000E+00 0. -1.
          1   -1    0    0  502    0 -0.00000000000E+00 -0.00000000000E+00 -0.55290166422E+03  0.55290166422E+03  0.00000000000E+00 0. -1.
         23    2    1    2    0    0  0.16398761246E+02 -0.18891266389E+02 -0.31236575220E+03  0.32598262229E+03  0.89813738204E+02 0.  0.
         23    2    1    2    0    0 -0.47845009939E+02  0.29650565653E+02 -0.21298801895E+03  0.23828207224E+03  0.90808307516E+02 0.  0.
        -13    1    4    4    0    0  0.78384283814E+01  0.44441050327E+02 -0.62070803623E+02  0.76741335511E+02  0.00000000000E+00 0.  1.
         13    1    4    4    0    0 -0.55683438321E+02 -0.14790484674E+02 -0.15091721532E+03  0.16154073672E+03  0.00000000000E+00 0. -1.
        -13    1    3    3    0    0  0.50836385691E+02  0.39380607073E+01 -0.14942634303E+03  0.15788628320E+03  0.00000000000E+00 0.  1.
         13    1    3    3    0    0 -0.34437624446E+02 -0.22829327097E+02 -0.16293940918E+03  0.16809633909E+03  0.00000000000E+00 0. -1.
          1    1    1    2  501    0  0.31446248693E+02 -0.10759299263E+02  0.26032945307E+02  0.42217808078E+02  0.00000000000E+00 0. -1.
<scales pt_clust_5="13000.00000" pt_clust_6="13000.00000" pt_clust_7="13000.00000" pt_clust_8="13000.00000" pt_clust_9="33.23596"></scales>
<clustering>
<clus scale="   33.236">  1  9  2 -1</clus>
<clus scale="   89.814">  7  8 -1 -1</clus>
<clus scale="   90.808">  5  6 -1 -1</clus>
<clus scale="   96.596">  2  7  1 -1</clus>
<clus scale="   33.236">  1  5  2 -1</clus>
</clustering>
</event>
<event>
 9    1  0.1636528E-005  0.1007785E+03  0.7546771E-02  0.1280887E+00
          4   -1    0    0  502    0 -0.00000000000E+00  0.00000000000E+00  0.16656013720E+02  0.16656013720E+02  0.00000000000E+00 0. -1.
         21   -1    0    0  501  502  0.00000000000E+00 -0.00000000000E+00 -0.79372855615E+03  0.79372855615E+03  0.00000000000E+00 0.  1.
         23    2    1    2    0    0  0.82959610083E+00  0.46825590121E+02 -0.25801096948E+03  0.27815240978E+03  0.92767335722E+02 0.  0.
         23    2    1    2    0    0  0.13496427693E+02 -0.27305196984E+02 -0.40183315760E+03  0.41252926926E+03  0.88220089030E+02 0.  0.
        -11    1    3    3    0    0  0.12076776758E+02 -0.17045973509E+02 -0.12777785152E+02  0.24488477762E+02  0.00000000000E+00 0.  1.
         11    1    3    3    0    0 -0.11247180657E+02  0.63871563629E+02 -0.24523318432E+03  0.25366393202E+03  0.00000000000E+00 0. -1.
        -13    1    4    4    0    0 -0.35209664218E+02 -0.22892422014E+02 -0.23303748478E+03  0.23679158084E+03  0.00000000000E+00 0.  1.
         13    1    4    4    0    0  0.48706091912E+02 -0.44127749694E+01 -0.16879567281E+03  0.17573768842E+03  0.00000000000E+00 0. -1.
          4    1    1    2  501    0 -0.14326023794E+02 -0.19520393137E+02 -0.11722841536E+03  0.11970289083E+03  0.00000000000E+00 0. -1.
<scales pt_clust_5="13000.00000" pt_clust_6="13000.00000" pt_clust_7="13000.00000" pt_clust_8="13000.00000" pt_clust_9="24.21323"></scales>
<clustering>
<clus scale="   24.213">  2  9  1 -1</clus>
<clus scale="   88.220">  7  8 -1 -1</clus>
<clus scale="   92.767">  5  6 -1 -1</clus>
<clus scale="   96.609">  2  7  1 -1</clus>
<clus scale="   24.213">  2  5  1 -1</clus>
</clustering>
</event>
<event>
 9    1  0.1636528E-005  0.2712834E+03  0.7546771E-02  0.1101091E+00
          2   -1    0    0  502    0 -0.00000000000E+00  0.00000000000E+00  0.29652521711E+04  0.29652521711E+04  0.00000000000E+00 0. -1.
         21   -1    0    0  501  502  0.00000000000E+00 -0.00000000000E+00 -0.42905212060E+02  0.42905212060E+02  0.00000000000E+00 0. -1.
         23    2    1    2    0    0 -0.24242398654E+03  0.22942591970E+02  0.12153062793E+04  0.12422015798E+04  0.82460054598E+02 0.  0.
         23    2    1    2    0    0  0.27580307204E+03  0.88172579304E+02  0.88798458577E+03  0.93872329087E+03  0.94037513590E+02 0.  0.
        -11    1    3    3    0    0 -0.55323147762E+02  0.14362370134E+02  0.14931197904E+03  0.15987806429E+03  0.00000000000E+00 0.  1.
         11    1    3    3    0    0 -0.18710083877E+03  0.85802218368E+01  0.10659943003E+04  0.10823235156E+04  0.00000000000E+00 0. -1.
        -13    1    4    4    0    0  0.20932686626E+03  0.21799739335E+02  0.60649824933E+03  0.64197592790E+03  0.00000000000E+00 0.  1.
         13    1    4    4    0    0  0.66476205786E+02  0.66372839970E+02  0.28148633645E+03  0.29674736297E+03  0.00000000000E+00 0. -1.
          2    1    1    2  501    0 -0.33379085506E+02 -0.11111517127E+03  0.81905609389E+03  0.82723251240E+03  0.00000000000E+00 0. -1.
<scales pt_clust_5="13000.00000" pt_clust_6="13000.00000" pt_clust_7="13000.00000" pt_clust_8="13000.00000" pt_clust_9="116.02051"></scales>
<clustering>
<clus scale="   82.460">  5  6 -1 -1</clus>
<clus scale="   94.038">  7  8 -1 -1</clus>
<clus scale="  116.021">  2  9  1 -1</clus>
<clus scale="  267.491">  1  5  2 -1</clus>
<clus scale="  116.021">  2  5  1 -1</clus>
</clustering>
</event>
<event>
 9    1  0.1636528E-005  0.1407767E+03  0.7546771E-02  0.1215875E+00
          1   -1    0    0  502    0 -0.00000000000E+00  0.00000000000E+00  0.26148804116E+03  0.26148804116E+03  0.00000000000E+00 0. -1.
         21   -1    0    0  501  502  0.00000000000E+00 -0.00000000000E+00 -0.99758381498E+02  0.99758381498E+02  0.00000000000E+00 0.  1.
         23    2    1    2    0    0 -0.46908436832E+02  0.66942825030E+02  0.76248807364E+02  0.14410759531E+03  0.90947100731E+02 0.  0.
         23    2    1    2    0    0  0.33119277735E+02 -0.10913205359E+03  0.68625727072E+02  0.16966075703E+03  0.10520736847E+03 0.  0.
        -11    1    4    4    0    0  0.19345876442E+02 -0.44969727737E+02  0.88462058839E+02  0.10110427885E+03  0.00000000000E+00 0. -1.
         11    1    4    4    0    0  0.13773401292E+02 -0.64162325853E+02 -0.19836331767E+02  0.68556478177E+02  0.00000000000E+00 0.  1.
        -13    1    3    3    0    0 -0.21103042463E+02 -0.20931981945E+02  0.26820114838E+02  0.40035045013E+02  0.00000000000E+00 0.  1.
         13    1    3    3    0    0 -0.25805394369E+02  0.87874806975E+02  0.49428692526E+02  0.10407255029E+03  0.00000000000E+00 0. -1.
          1    1    1    2  501    0  0.13789159097E+02  0.42189228561E+02  0.16855125223E+02  0.47478070321E+02  0.00000000000E+00 0. -1.
<scales pt_clust_5="13000.00000" pt_clust_6="13000.00000" pt_clust_7="13000.00000" pt_clust_8="13000.00000" pt_clust_9="44.38549"></scales>
<clustering>
<clus scale="   44.385">  2  9  1 -1</clus>
<clus scale="   90.947">  7  8 -1 -1</clus>
<clus scale="  105.207">  5  6 -1 -1</clus>
<clus scale="  130.464">  1  7  2 -1</clus>
<clus scale="   44.385">  2  5  1 -1</clus>
</clustering>
</event>
<event>
 9    1  0.1636528E-005  0.1613025E+03  0.7546771E-02  0.1187404E+00
          4   -1    0    0  502    0 -0.00000000000E+00  0.00000000000E+00  0.41481156582E+03  0.41481156582E+03  0.00000000000E+00 0. -1.
         21   -1    0    0  501  502  0.00000000000E+00 -0.00000000000E+00 -0.14447626679E+03  0.14447626679E+03  0.00000000000E+00 0. -1.
         23    2    1    2    0    0 -0.10571740344E+03  0.70402942465E+02  0.19578633148E+03  0.25033761479E+03  0.90575328244E+02 0.  0.
         23    2    1    2    0    0  0.10596821547E+03 -0.93415417188E+02  0.15280057395E+03  0.22738459513E+03  0.91651709444E+02 0.  0.
        -11    1    4    4    0    0  0.21160189099E+01 -0.58920385465E+02  0.54037327571E+02  0.79975759643E+02  0.00000000000E+00 0. -1.
         11    1    4    4    0    0  0.10385219656E+03 -0.34495031723E+02  0.98763246380E+02  0.14740883549E+03  0.00000000000E+00 0.  1.
        -11    1    3    3    0    0 -0.81195300522E+02  0.85824522835E+02  0.18483502715E+03  0.21936844078E+03  0.00000000000E+00 0. -1.
         11    1    3    3    0    0 -0.24522102914E+02 -0.15421580370E+02  0.10951304328E+02  0.30969174011E+02  0.00000000000E+00 0.  1.
          4    1    1    2  501    0 -0.25081203616E+00  0.23012474723E+02 -0.78251606400E+02  0.81565622684E+02  0.00000000000E+00 0. -1.
<scales pt_clust_5="13000.00000" pt_clust_6="13000.00000" pt_clust_7="13000.00000" pt_clust_8="13000.00000" pt_clust_9="23.01384"></scales>
<clustering>
<clus scale="   23.014">  2  9  1 -1</clus>
<clus scale="   90.575">  7  8 -1 -1</clus>
<clus scale="   91.652">  5  6 -1 -1</clus>
<clus scale="  160.693">  1  7  2 -1</clus>
<clus scale="   23.014">  2  5  1 -1</clus>
</clustering>
</event>
<event>
 9    1  0.1636528E-005  0.1048061E+03  0.7546771E-02  0.1271203E+00
         21   -1    0    0  501  502  0.00000000000E+00  0.00000000000E+00  0.16669961498E+03  0.16669961498E+03  0.00000000000E+00 0. -1.
          2   -1    0    0  502    0 -0.00000000000E+00 -0.00000000000E+00 -0.45262789154E+03  0.45262789154E+03  0.00000000000E+00 0. -1.
         23    2    1    2    0    0 -0.61679443412E+02 -0.18326075759E+02 -0.33350452765E+03  0.35184622636E+03  0.91816655598E+02 0.  0.
         23    2    1    2    0    0  0.10230875423E+02  0.25838600469E+02 -0.83780468982E+02  0.12620856135E+03  0.90206041306E+02 0.  0.
        -13    1    4    4    0    0 -0.93572040343E+01  0.40902223342E+02 -0.33780913778E+01  0.42094662880E+02  0.00000000000E+00 0. -1.
         13    1    4    4    0    0  0.19588079457E+02 -0.15063622872E+02 -0.80402377604E+02  0.84113898466E+02  0.00000000000E+00 0.  1.
        -13    1    3    3    0    0 -0.52417292230E+01 -0.41742436814E+02 -0.72845014785E+02  0.84120763997E+02  0.00000000000E+00 0. -1.
         13    1    3    3    0    0 -0.56437714189E+02  0.23416361055E+02 -0.26065951287E+03  0.26772546236E+03  0.00000000000E+00 0.  1.
          2    1    1    2  501    0  0.51448567989E+02 -0.75125247105E+01  0.13135672007E+03  0.14127271882E+03  0.00000000000E+00 0. -1.
<scales pt_clust_5="13000.00000" pt_clust_6="13000.00000" pt_clust_7="13000.00000" pt_clust_8="13000.00000" pt_clust_9="51.99416"></scales>
<clustering>
<clus scale="   51.994">  1  9  2 -1</clus>
<clus scale="   90.206">  5  6 -1 -1</clus>
<clus scale="   91.817">  7  8 -1 -1</clus>
<clus scale="  103.398">  1  5  2 -1</clus>
<clus scale="   51.994">  1  5  2 -1</clus>
</clustering>
</event>
<event>
 9    1  0.1636528E-005  0.1047203E+03  0.7546771E-02  0.1270996E+00
         21   -1    0    0  501  502  0.00000000000E+00  0.00000000000E+00  0.24211885300E+03  0.24211885300E+03  0.00000000000E+00 0.  1.
          1   -1    0    0  502    0 -0.00000000000E+00 -0.00000000000E+00 -0.10811036208E+03  0.10811036208E+03  0.00000000000E+00 0. -1.
         23    2    1    2    0    0  0.43542559011E+02 -0.12088706679E+02 -0.41021603274E+02  0.11105214975E+03  0.92777781578E+02 0.  0.
         23    2    1    2    0    0 -0.40909681486E+02  0.41289368283E+02  0.70800578821E+02  0.13090240276E+03  0.93510978574E+02 0.  0.
        -13    1    3    3    0    0  0.23160747966E+02 -0.22926238683E+02 -0.68084204942E+02  0.75481730433E+02  0.00000000000E+00 0. -1.
         13    1    3    3    0    0  0.20381811045E+02  0.10837532003E+02  0.27062601668E+02  0.35570419318E+02  0.00000000000E+00 0.  1.
        -13    1    4    4    0    0 -0.14886746806E+02  0.59002862883E+02  0.89564796486E+01  0.61507492118E+02  0.00000000000E+00 0.  1.
         13    1    4    4    0    0 -0.26022934680E+02 -0.17713494600E+02  0.61844099173E+02  0.69394910640E+02  0.00000000000E+00 0. -1.
          1    1    1    2  501    0 -0.26328775251E+01 -0.29200661604E+02  0.10422951537E+03  0.10827466258E+03  0.00000000000E+00 0. -1.
<scales pt_clust_5="13000.00000" pt_clust_6="13000.00000" pt_clust_7="13000.00000" pt_clust_8="13000.00000" pt_clust_9="29.31912"></scales>
<clustering>
<clus scale="   29.319">  1  9  2 -1</clus>
<clus scale="   92.778">  5  6 -1 -1</clus>
<clus scale="   93.511">  7  8 -1 -1</clus>
<clus scale="  104.066">  2  5  1 -1</clus>
<clus scale="   29.319">  1  5  2 -1</clus>
</clustering>
</event>
<event>
 9    1  0.1636528E-005  0.9628223E+02  0.7546771E-02  0.1289302E+00
          1   -1    0    0  502    0 -0.00000000000E+00  0.00000000000E+00  0.23929921265E+03  0.23929921265E+03  0.00000000000E+00 0. -1.
         21   -1    0    0  501  502  0.00000000000E+00 -0.00000000000E+00 -0.86206496708E+02  0.86206496708E+02  0.00000000000E+00 0.  1.
         23    2    1    2    0    0 -0.20836156954E+01 -0.25976761786E+02  0.13827991918E+03  0.16772670320E+03  0.91278569840E+02 0.  0.
         23    2    1    2    0    0 -0.26510092978E+02  0.38083710197E+02  0.48638128202E+02  0.11186243592E+03  0.89411313837E+02 0.  0.
        -13    1    4    4    0    0 -0.37802560626E+02 -0.19157908937E+02  0.19679928362E+02  0.46726423414E+02  0.00000000000E+00 0. -1.
         13    1    4    4    0    0  0.11292467649E+02  0.57241619134E+02  0.28958199840E+02  0.65136012502E+02  0.00000000000E+00 0.  1.
        -13    1    3    3    0    0  0.39321511273E+02 -0.99216055785E+00  0.31105139880E+02  0.50146738262E+02  0.00000000000E+00 0.  1.
         13    1    3    3    0    0 -0.41405126969E+02 -0.24984601228E+02  0.10717477930E+03  0.11757996494E+03  0.00000000000E+00 0. -1.
          1    1    1    2  501    0  0.28593708673E+02 -0.12106948411E+02 -0.33825331439E+02  0.45916570239E+02  0.00000000000E+00 0. -1.
<scales pt_clust_5="13000.00000" pt_clust_6="13000.00000" pt_clust_7="13000.00000" pt_clust_8="13000.00000" pt_clust_9="31.05122"></scales>
<clustering>
<clus scale="   31.051">  2  9  1 -1</clus>
<clus scale="   89.411">  5  6 -1 -1</clus>
<clus scale="   91.279">  7  8 -1 -1</clus>
<clus scale="   94.514">  2  5  1 -1</clus>
<clus scale="   31.051">  2  5  1 -1</clus>
</clustering>
</event>
<event>
 9    1  0.1636528E-005  0.9669834E+02  0.7546771E-02  0.1288859E+00
         21   -1    0    0  501  502  0.00000000000E+00  0.00000000000E+00  0.75109478078E+02  0.75109478078E+02  0.00000000000E+00 0.  1.
          2   -1    0    0  502    0 -0.00000000000E+00 -0.00000000000E+00 -0.27738986051E+03  0.27738986051E+03  0.00000000000E+00 0. -1.
         23    2    1    2    0    0  0.16711013164E+02  0.10353034582E+02 -0.20479470550E+03  0.22521505113E+03  0.91621528970E+02 0.  0.
         23    2    1    2    0    0 -0.11023936866E+02 -0.33175352939E+02 -0.92139441517E+01  0.10100210139E+03  0.94310108112E+02 0.  0.
        -11    1    3    3    0    0 -0.10873148391E+02  0.38461300141E+02 -0.43044149768E+02  0.58739218532E+02  0.00000000000E+00 0.  1.
         11    1    3    3    0    0  0.27584161555E+02 -0.28108265559E+02 -0.16175055573E+03  0.16647583260E+03  0.00000000000E+00 0. -1.
        -13    1    4    4    0    0 -0.47918670667E+02 -0.15275978279E+02 -0.26088660995E+02  0.56658386346E+02  0.00000000000E+00 0.  1.
         13    1    4    4    0    0  0.36894733801E+02 -0.17899374660E+02  0.16874716843E+02  0.44343715045E+02  0.00000000000E+00 0. -1.
          2    1    1    2  501    0 -0.56870762983E+01  0.22822318357E+02  0.11728267222E+02  0.26282186059E+02  0.00000000000E+00 0. -1.
<scales pt_clust_5="13000.00000" pt_clust_6="13000.00000" pt_clust_7="13000.00000" pt_clust_8="13000.00000" pt_clust_9="23.52023"></scales>
<clustering>
<clus scale="   23.520">  1  9  2 -1</clus>
<clus scale="   91.622">  5  6 -1 -1</clus>
<clus scale="   94.078">  2  5  1 -1</clus>
<clus scale="   94.310">  7  8 -1 -1</clus>
<clus scale="   23.520">  1  5  2 -1</clus>
</clustering>
</event>
<event>
 9    1  0.1636528E-005  0.1192315E+03  0.7546771E-02  0.1245266E+00
          1   -1    0    0  502    0 -0.00000000000E+00  0.00000000000E+00  0.27959001994E+03  0.27959001994E+03  0.00000000000E+00 0. -1.
         21   -1    0    0  501  502  0.00000000000E+00 -0.00000000000E+00 -0.36961507468E+03  0.36961507468E+03  0.00000000000E+00 0.  1.
         23    2    1    2    0    0 -0.74902378045E+02  0.66782677405E+01  0.24878583168E+03  0.27480633278E+03  0.89270179754E+02 0.  0.
         23    2    1    2    0    0  0.88668610344E+02  0.14269054416E+02 -0.23805061891E+03  0.27056749986E+03  0.92048609129E+02 0.  0.
        -11    1    4    4    0    0  0.13614034784E+02 -0.27629199900E+02 -0.21449809772E+02  0.37534104085E+02  0.00000000000E+00 0. -1.
         11    1    4    4    0    0  0.75054575560E+02  0.41898254316E+02 -0.21660080913E+03  0.23303339577E+03  0.00000000000E+00 0.  1.
        -13    1    3    3    0    0 -0.89725276743E+02  0.20574775705E+02  0.22730913786E+03  0.24524149493E+03  0.00000000000E+00 0. -1.
         13    1    3    3    0    0  0.14822898698E+02 -0.13896507964E+02  0.21476693820E+02  0.29564837845E+02  0.00000000000E+00 0.  1.
          1    1    1    2  501    0 -0.13766232299E+02 -0.20947322157E+02 -0.10076026751E+03  0.10383126199E+03  0.00000000000E+00 0. -1.
<scales pt_clust_5="13000.00000" pt_clust_6="13000.00000" pt_clust_7="13000.00000" pt_clust_8="13000.00000" pt_clust_9="25.06590"></scales>
<clustering>
<clus scale="   25.066">  2  9  1 -1</clus>
<clus scale="   89.270">  7  8 -1 -1</clus>
<clus scale="   92.049">  5  6 -1 -1</clus>
<clus scale="  117.100">  1  7  2 -1</clus>
<clus scale="   25.066">  2  5  1 -1</clus>
</clustering>
</event>
<event>
 9    1  0.1636528E-005  0.1177905E+03  0.7546771E-02  0.1246908E+00
         21   -1    0    0  501  502  0.00000000000E+00  0.00000000000E+00  0.47799247862E+03  0.47799247862E+03  0.00000000000E+00 0.  1.
          3   -1    0    0  502    0 -0.00000000000E+00 -0.00000000000E+00 -0.59663776198E+02  0.59663776198E+02  0.00000000000E+00 0. -1.
         23    2    1    2    0    0 -0.28118459249E+02 -0.80774515796E+02  0.66829899773E+02  0.14152300763E+03  0.90814954897E+02 0.  0.
         23    2    1    2    0    0  0.33793157544E+02  0.50767504039E+02  0.11982428839E+03  0.16245461420E+03  0.91182918492E+02 0.  0.
        -11    1    4    4    0    0  0.54106511757E+02 -0.70655388617E+00  0.64719862176E+02  0.84360384026E+02  0.00000000000E+00 0.  1.
         11    1    4    4    0    0 -0.20313354213E+02  0.51474057926E+02  0.55104426213E+02  0.78094230177E+02  0.00000000000E+00 0. -1.
        -13    1    3    3    0    0 -0.41626968880E+02 -0.42161682681E+02  0.79086759367E+02  0.98818659835E+02  0.00000000000E+00 0.  1.
         13    1    3    3    0    0  0.13508509630E+02 -0.38612833115E+02 -0.12256859594E+02  0.42704347796E+02  0.00000000000E+00 0. -1.
          3    1    1    2  501    0 -0.56746982948E+01  0.30007011756E+02  0.23167451426E+03  0.23367863298E+03  0.00000000000E+00 0. -1.
<scales pt_clust_5="13000.00000" pt_clust_6="13000.00000" pt_clust_7="13000.00000" pt_clust_8="13000.00000" pt_clust_9="30.53888"></scales>
<clustering>
<clus scale="   30.539">  1  9  2 -1</clus>
<clus scale="   90.815">  7  8 -1 -1</clus>
<clus scale="   91.183">  5  6 -1 -1</clus>
<clus scale="  117.506">  2  7  1 -1</clus>
<clus scale="   30.539">  1  5  2 -1</clus>
</clustering>
</event>
<event>
 9    1  0.1636528E-005  0.1015238E+03  0.7546771E-02  0.1280886E+00
          4   -1    0    0  502    0 -0.00000000000E+00  0.00000000000E+00  0.41017505489E+03  0.41017505489E+03  0.00000000000E+00 0.  1.
         21   -1    0    0  501  502  0.00000000000E+00 -0.00000000000E+00 -0.52415270532E+02  0.52415270532E+02  0.00000000000E+00 0. -1.
         23    2    1    2    0    0 -0.29672455383E+02 -0.16794580836E+01  0.26945032840E+03  0.28550291140E+03  0.89583244849E+02 0.  0.
         23    2    1    2    0    0  0.27602773500E+02 -0.35153605072E+02  0.90733711789E+02  0.14011668044E+03  0.96965914782E+02 0.  0.
        -11    1    4    4    0    0  0.52824175308E+02  0.57701315756E+01  0.25117417605E+02  0.58775612141E+02  0.00000000000E+00 0. -1.
         11    1    4    4    0    0 -0.25221401809E+02 -0.40923736648E+02  0.65616294184E+02  0.81341068304E+02  0.00000000000E+00 0.  1.
        -13    1    3    3    0    0  0.34544706580E+01  0.38612886767E+02  0.78420160240E+02  0.87479197093E+02  0.00000000000E+00 0. -1.
         13    1    3    3    0    0 -0.33126926041E+02 -0.40292344850E+02  0.19103016816E+03  0.19802371431E+03  0.00000000000E+00 0.  1.
          4    1    1    2  501    0  0.20696818837E+01  0.36833063156E+02 -0.24242558320E+01  0.36970733572E+02  0.00000000000E+00 0.  1.
<scales pt_clust_5="13000.00000" pt_clust_6="13000.00000" pt_clust_7="13000.00000" pt_clust_8="13000.00000" pt_clust_9="36.89117"></scales>
<clustering>
<clus scale="   36.891">  2  9  1 -1</clus>
<clus scale="   89.583">  7  8 -1 -1</clus>
<clus scale="   94.498">  1  7  2 -1</clus>
<clus scale="   96.966">  5  6 -1 -1</clus>
<clus scale="   36.891">  2  5  1 -1</clus>
</clustering>
</event>
<event>
 9    1  0.1636528E-005  0.9882455E+02  0.7546771E-02  0.1283229E+00
         21   -1    0    0  501  502  0.00000000000E+00  0.00000000000E+00  0.49859946308E+03  0.49859946308E+03  0.00000000000E+00 0. -1.
          3   -1    0    0  502    0 -0.00000000000E+00 -0.00000000000E+00 -0.96941191123E+02  0.96941191123E+02  0.00000000000E+00 0. -1.
         23    2    1    2    0    0 -0.43884147931E+02  0.90461311435E+01 -0.55896987769E+02  0.11518401099E+03  0.90195522163E+02 0.  0.
         23    2    1    2    0    0  0.79855222351E+01 -0.12153497288E+02  0.19060762477E+03  0.21098810968E+03  0.89292999402E+02 0.  0.
        -11    1    4    4    0    0 -0.38878326636E+02 -0.77667926944E+01  0.57836468677E+02  0.70120642180E+02  0.00000000000E+00 0. -1.
         11    1    4    4    0    0  0.46863848871E+02 -0.43867045935E+01  0.13277115610E+03  0.14086746750E+03  0.00000000000E+00 0.  1.
        -11    1    3    3    0    0 -0.53942144674E+02  0.34308702967E+02 -0.60012429140E+02  0.87683143891E+02  0.00000000000E+00 0. -1.
         11    1    3    3    0    0  0.10057996743E+02 -0.25262571824E+02  0.41154413712E+01  0.27500867101E+02  0.00000000000E+00 0.  1.
          3    1    1    2  501    0  0.35898625695E+02  0.31073661445E+01  0.26694763495E+03  0.26936853353E+03  0.00000000000E+00 0. -1.
<scales pt_clust_5="13000.00000" pt_clust_6="13000.00000" pt_clust_7="13000.00000" pt_clust_8="13000.00000" pt_clust_9="36.03286"></scales>
<clustering>
<clus scale="   36.033">  1  9  2 -1</clus>
<clus scale="   89.293">  5  6 -1 -1</clus>
<clus scale="   90.196">  7  8 -1 -1</clus>
<clus scale="   98.002">  1  5  2 -1</clus>
<clus scale="   36.033">  1  5  2 -1</clus>
</clustering>
</event>
<event>
 9    1  0.1636528E-005  0.1906128E+03  0.7546771E-02  0.1158185E+00
          2   -1    0    0  502    0 -0.00000000000E+00  0.00000000000E+00  0.93067771347E+03  0.93067771347E+03  0.00000000000E+00 0. -1.
         21   -1    0    0  501  502  0.00000000000E+00 -0.00000000000E+00 -0.10869510737E+03  0.10869510737E+03  0.00000000000E+00 0. -1.
         23    2    1    2    0    0 -0.74721468163E+02 -0.15159340392E+03  0.75450526354E+03  0.77824790335E+03  0.88474563765E+02 0.  0.
         23    2    1    2    0    0  0.95920549958E+02  0.13099141900E+03  0.10471378771E+03  0.21358129858E+03  0.91063110046E+02 0.  0.
        -13    1    4    4    0    0  0.40623925923E+02  0.11215300366E+03  0.38639195117E+02  0.12538575272E+03  0.00000000000E+00 0. -1.
         13    1    4    4    0    0  0.55296624035E+02  0.18838415338E+02  0.66074592596E+02  0.88195545856E+02  0.00000000000E+00 0.  1.
        -13    1    3    3    0    0 -0.25463180658E+02 -0.91085043000E+02  0.57196886030E+03  0.57973548777E+03  0.00000000000E+00 0. -1.
         13    1    3    3    0    0 -0.49258287505E+02 -0.60508360919E+02  0.18253640324E+03  0.19851241557E+03  0.00000000000E+00 0.  1.
          2    1    1    2  501    0 -0.21199081795E+02  0.20601984922E+02 -0.37236445152E+02  0.47543618912E+02  0.00000000000E+00 0. -1.
<scales pt_clust_5="13000.00000" pt_clust_6="13000.00000" pt_clust_7="13000.00000" pt_clust_8="13000.00000" pt_clust_9="29.56083"></scales>
<clustering>
<clus scale="   29.561">  2  9  1 -1</clus>
<clus scale="   88.475">  7  8 -1 -1</clus>
<clus scale="   91.063">  5  6 -1 -1</clus>
<clus scale="  189.390">  1  7  2 -1</clus>
<clus scale="   29.561">  2  5  1 -1</clus>
</clustering>
</event>
<event>
 9    1  0.1636528E-005  0.1021110E+03  0.7546771E-02  0.1276728E+00
         21   -1    0    0  501  502  0.00000000000E+00  0.00000000000E+00  0.11028678927E+03  0.11028678927E+03  0.00000000000E+00 0. -1.
         -4   -1    0    0    0  501 -0.00000000000E+00 -0.00000000000E+00 -0.16411915667E+03  0.16411915667E+03  0.00000000000E+00 0.  1.
         23    2    1    2    0    0  0.28704780785E+02  0.39976158989E+02 -0.96442615335E+02  0.14269068183E+03  0.92937586055E+02 0.  0.
         23    2    1    2    0    0 -0.99522138037E+01 -0.23847555516E+02  0.17373895546E+02  0.96378822578E+02  0.91210047316E+02 0.  0.
        -11    1    3    3    0    0  0.87919397051E+01 -0.29613963501E+02 -0.17166806447E+02  0.35340971713E+02  0.00000000000E+00 0. -1.
         11    1    3    3    0    0  0.19912841080E+02  0.69590122490E+02 -0.79275808888E+02  0.10734971012E+03  0.00000000000E+00 0.  1.
        -13    1    4    4    0    0 -0.48455611725E+02 -0.18864354735E+02 -0.38342845273E+01  0.52139351023E+02  0.00000000000E+00 0.  1.
         13    1    4    4    0    0  0.38503397921E+02 -0.49832007805E+01  0.21208180073E+02  0.44239471556E+02  0.00000000000E+00 0. -1.
         -4    1    1    2    0  502 -0.18752566982E+02 -0.16128603473E+02  0.25236352381E+02  0.35336441529E+02  0.00000000000E+00 0.  1.
<scales pt_clust_5="13000.00000" pt_clust_6="13000.00000" pt_clust_7="13000.00000" pt_clust_8="13000.00000" pt_clust_9="24.73440"></scales>
<clustering>
<clus scale="   24.734">  1  9  2 -1</clus>
<clus scale="   91.210">  7  8 -1 -1</clus>
<clus scale="   92.938">  5  6 -1 -1</clus>
<clus scale="  100.541">  1  7  2 -1</clus>
<clus scale="   24.734">  1  5  2 -1</clus>
</clustering>
</event>
<event>
 9    1  0.1636528E-005  0.1060657E+03  0.7546771E-02  0.1270076E+00
         21   -1    0    0  501  502  0.00000000000E+00  0.00000000000E+00  0.43979991327E+02  0.43979991327E+02  0.00000000000E+00 0. -1.
          2   -1    0    0  502    0 -0.00000000000E+00 -0.00000000000E+00 -0.48071798468E+03  0.48071798468E+03  0.00000000000E+00 0. -1.
         23    2    1    2    0    0  0.15894823180E+01  0.47060693105E+02 -0.35800703662E+03  0.37325616420E+03  0.94519260242E+02 0.  0.
         23    2    1    2    0    0 -0.23436941204E+02 -0.50022951831E+02 -0.74079415700E+02  0.12890909625E+03  0.89878859263E+02 0.  0.
        -11    1    4    4    0    0 -0.54856982769E+02 -0.25319274248E+02 -0.24428677869E+02  0.65169889592E+02  0.00000000000E+00 0. -1.
         11    1    4    4    0    0  0.31420041565E+02 -0.24703677583E+02 -0.49650737831E+02  0.63739206657E+02  0.00000000000E+00 0.  1.
        -13    1    3    3    0    0  0.41653868523E+02  0.38912766958E+02 -0.27352148102E+03  0.27939801140E+03  0.00000000000E+00 0. -1.
         13    1    3    3    0    0 -0.40064386205E+02  0.81479261477E+01 -0.84485555597E+02  0.93858152800E+02  0.00000000000E+00 0.  1.
          2    1    1    2  501    0  0.21847458886E+02  0.29622587257E+01 -0.46515410393E+01  0.22532715562E+02  0.00000000000E+00 0. -1.
<scales pt_clust_5="13000.00000" pt_clust_6="13000.00000" pt_clust_7="13000.00000" pt_clust_8="13000.00000" pt_clust_9="22.04737"></scales>
<clustering>
<clus scale="   22.047">  1  9  2 -1</clus>
<clus scale="   89.879">  5  6 -1 -1</clus>
<clus scale="   94.519">  7  8 -1 -1</clus>
<clus scale="  101.952">  1  5  2 -1</clus>
<clus scale="   22.047">  1  5  2 -1</clus>
</clustering>
</event>
<event>
 9    1  0.1636528E-005  0.1072356E+03  0.7546771E-02  0.1269024E+00
         -3   -1    0    0    0  501 -0.00000000000E+00  0.00000000000E+00  0.90735234284E+02  0.90735234284E+02  0.00000000000E+00 0.  1.
         21   -1    0    0  501  502  0.00000000000E+00 -0.00000000000E+00 -0.18184454996E+03  0.18184454996E+03  0.00000000000E+00 0. -1.
         23    2    1    2    0    0 -0.16858481771E+00 -0.28684672731E+02 -0.18817028724E+02  0.97105397906E+02  0.90843485523E+02 0.  0.
         23    2    1    2    0    0  0.17819851788E+02  0.61623884430E+02 -0.34094184557E+02  0.12203606751E+03  0.98057830397E+02 0.  0.
        -11    1    3    3    0    0  0.90161072427E+01 -0.55483445975E+02 -0.33252734110E+02  0.65310391921E+02  0.00000000000E+00 0.  1.
         11    1    3    3    0    0 -0.91846920604E+01  0.26798773244E+02  0.14435705386E+02  0.31795005985E+02  0.00000000000E+00 0. -1.
        -11    1    4    4    0    0  0.57769570026E+02  0.38417636947E+02 -0.30218758259E+02  0.75673055973E+02  0.00000000000E+00 0.  1.
         11    1    4    4    0    0 -0.39949718238E+02  0.23206247483E+02 -0.38754262985E+01  0.46363011534E+02  0.00000000000E+00 0. -1.
         -3    1    1    2    0  502 -0.17651266970E+02 -0.32939211699E+02 -0.38198102400E+02  0.53438318835E+02  0.00000000000E+00 0.  1.
<scales pt_clust_5="13000.00000" pt_clust_6="13000.00000" pt_clust_7="13000.00000" pt_clust_8="13000.00000" pt_clust_9="37.37056"></scales>
<clustering>
<clus scale="   37.371">  2  9  1 -1</clus>
<clus scale="   90.843">  5  6 -1 -1</clus>
<clus scale="   98.058">  7  8 -1 -1</clus>
<clus scale="  100.681">  1  5  2 -1</clus>
<clus scale="   37.371">  2  5  1 -1</clus>
</clustering>
</event>
<event>
 9    1  0.1636528E-005  0.9474421E+02  0.7546771E-02  0.1293514E+00
         21   -1    0    0  501  502  0.00000000000E+00  0.00000000000E+00  0.72771996497E+02  0.72771996497E+02  0.00000000000E+00 0.  1.
         -1   -1    0    0    0  501 -0.00000000000E+00 -0.00000000000E+00 -0.38764809278E+03  0.38764809278E+03  0.00000000000E+00 0.  1.
         23    2    1    2    0    0 -0.55617275082E+01  0.25982729271E+02 -0.18866939324E+03  0.21174156530E+03  0.92370533721E+02 0.  0.
         23    2    1    2    0    0 -0.17505356322E+02 -0.14444463369E+02 -0.17258669677E+03  0.19560945808E+03  0.89228987249E+02 0.  0.
        -11    1    4    4    0    0 -0.42624036872E+02 -0.37501916599E+02 -0.12252416724E+03  0.13503841611E+03  0.00000000000E+00 0. -1.
         11    1    4    4    0    0  0.25118680550E+02  0.23057453230E+02 -0.50062529535E+02  0.60571041972E+02  0.00000000000E+00 0.  1.
        -13    1    3    3    0    0  0.35764921869E+02  0.24835726870E+01 -0.32127959296E+02  0.48140456355E+02  0.00000000000E+00 0.  1.
         13    1    3    3    0    0 -0.41326649377E+02  0.23499156584E+02 -0.15654143394E+03  0.16360110895E+03  0.00000000000E+00 0. -1.
         -1    1    1    2    0  502  0.23067083830E+02 -0.11538265902E+02  0.46379993728E+02  0.53069065892E+02  0.00000000000E+00 0.  1.
<scales pt_clust_5="13000.00000" pt_clust_6="13000.00000" pt_clust_7="13000.00000" pt_clust_8="13000.00000" pt_clust_9="25.79190"></scales>
<clustering>
<clus scale="   25.792">  1  9  2 -1</clus>
<clus scale="   89.229">  5  6 -1 -1</clus>
<clus scale="   91.684">  1  5  2 -1</clus>
<clus scale="   92.371">  7  8 -1 -1</clus>
<clus scale="   25.792">  1  5  2 -1</clus>
</clustering>
</event>
<event>
 9    1  0.1636528E-005  0.1132823E+03  0.7546771E-02  0.1260758E+00
         21   -1    0    0  501  502  0.00000000000E+00  0.00000000000E+00  0.12479596971E+03  0.12479596971E+03  0.00000000000E+00 0. -1.
         -1   -1    0    0    0  501 -0.00000000000E+00 -0.00000000000E+00 -0.25049372635E+03  0.25049372635E+03  0.00000000000E+00 0.  1.
         23    2    1    2    0    0  0.25886957203E+01 -0.57135199317E+02 -0.18535299789E+03  0.21066772966E+03  0.82182882319E+02 0.  0.
         23    2    1    2    0    0  0.18444931887E+02  0.59853115321E+02  0.17254385836E+02  0.11721275740E+03  0.97562829714E+02 0.  0.
        -13    1    3    3    0    0  0.23298752151E+01 -0.78330385107E+02 -0.13612841834E+03  0.15707330718E+03  0.00000000000E+00 0.  1.
         13    1    3    3    0    0  0.25882050520E+00  0.21195185790E+02 -0.49224579552E+02  0.53594422478E+02  0.00000000000E+00 0. -1.
        -13    1    4    4    0    0  0.18292229473E+02 -0.24232273483E+02 -0.36160045941E+01  0.30575876545E+02  0.00000000000E+00 0.  1.
         13    1    4    4    0    0  0.15270241351E+00  0.84085388805E+02  0.20870390430E+02  0.86636880860E+02  0.00000000000E+00 0. -1.
         -1    1    1    2    0  502 -0.21033627607E+02 -0.27179160044E+01  0.42400855412E+02  0.47409208993E+02  0.00000000000E+00 0.  1.
<scales pt_clust_5="13000.00000" pt_clust_6="13000.00000" pt_clust_7="13000.00000" pt_clust_8="13000.00000" pt_clust_9="21.20850"></scales>
<clustering>
<clus scale="   21.209">  1  9  2 -1</clus>
<clus scale="   82.183">  5  6 -1 -1</clus>
<clus scale="   97.563">  7  8 -1 -1</clus>
<clus scale="  100.341">  2  5  1 -1</clus>
<clus scale="   21.209">  1  5  2 -1</clus>
</clustering>
</event>
<event>
 9    1  0.1636528E-005  0.1152033E+03  0.7546771E-02  0.1251273E+00
         21   -1    0    0  501  502  0.00000000000E+00  0.00000000000E+00  0.12029258742E+03  0.12029258742E+03  0.00000000000E+00 0. -1.
          1   -1    0    0  502    0 -0.00000000000E+00 -0.00000000000E+00 -0.22556590731E+03  0.22556590731E+03  0.00000000000E+00 0. -1.
         23    2    1    2    0    0  0.35985369112E+02 -0.51490442111E+02 -0.91328223101E+02  0.14306409667E+03  0.90444894834E+02 0.  0.
         23    2    1    2    0    0 -0.35093832859E+02  0.75673289355E+02 -0.70067494388E+02  0.14167706460E+03  0.90580975027E+02 0.  0.
        -11    1    3    3    0    0 -0.26797144219E+02  0.20494790831E+01 -0.29859116563E+02  0.40172803546E+02  0.00000000000E+00 0.  1.
         11    1    3    3    0    0  0.62782513331E+02 -0.53539921194E+02 -0.61469106538E+02  0.10289129312E+03  0.00000000000E+00 0. -1.
        -11    1    4    4    0    0 -0.60674099520E+02  0.60416198693E+02 -0.71939472770E+02  0.11183358690E+03  0.00000000000E+00 0.  1.
         11    1    4    4    0    0  0.25580266661E+02  0.15257090661E+02  0.18719783818E+01  0.29843477695E+02  0.00000000000E+00 0. -1.
          1    1    1    2  501    0 -0.89153625289E+00 -0.24182847243E+02  0.56122397596E+02  0.61117333463E+02  0.00000000000E+00 0. -1.
<scales pt_clust_5="13000.00000" pt_clust_6="13000.00000" pt_clust_7="13000.00000" pt_clust_8="13000.00000" pt_clust_9="24.19928"></scales>
<clustering>
<clus scale="   24.199">  1  9  2 -1</clus>
<clus scale="   90.445">  5  6 -1 -1</clus>
<clus scale="   90.581">  7  8 -1 -1</clus>
<clus scale="  115.096">  2  5  1 -1</clus>
<clus scale="   24.199">  1  5  2 -1</clus>
</clustering>
</event>
<event>
 9    1  0.1636528E-005  0.1337380E+03  0.7546771E-02  0.1223429E+00
         21   -1    0    0  501  502  0.00000000000E+00  0.00000000000E+00  0.12692996564E+03  0.12692996564E+03  0.00000000000E+00 0.  1.
         -3   -1    0    0    0  501 -0.00000000000E+00 -0.00000000000E+00 -0.38976365423E+03  0.38976365423E+03  0.00000000000E+00 0.  1.
         23    2    1    2    0    0  0.68816921052E+02  0.31905710367E+02 -0.22374932193E+03  0.25456368095E+03  0.94790113516E+02 0.  0.
         23    2    1    2    0    0 -0.11785111936E+03 -0.50652904714E+02 -0.92572442208E+02  0.18718473143E+03  0.10006929367E+03 0.  0.
        -11    1    3    3    0    0 -0.47100634705E+01  0.45822245733E+02 -0.74176487621E+02  0.87315601227E+02  0.00000000000E+00 0.  1.
         11    1    3    3    0    0  0.73526984522E+02 -0.13916535365E+02 -0.14957283431E+03  0.16724807973E+03  0.00000000000E+00 0. -1.
        -11    1    4    4    0    0 -0.86228413070E+02  0.76392998850E+01 -0.83455800049E+02  0.12024378855E+03  0.00000000000E+00 0.  1.
         11    1    4    4    0    0 -0.31622706286E+02 -0.58292204599E+02 -0.91166421597E+01  0.66940942884E+02  0.00000000000E+00 0. -1.
         -3    1    1    2    0  502  0.49034198304E+02  0.18747194347E+02  0.53488075545E+02  0.74945207484E+02  0.00000000000E+00 0.  1.
<scales pt_clust_5="13000.00000" pt_clust_6="13000.00000" pt_clust_7="13000.00000" pt_clust_8="13000.00000" pt_clust_9="52.49581"></scales>
<clustering>
<clus scale="   52.496">  1  9  2 -1</clus>
<clus scale="   94.790">  5  6 -1 -1</clus>
<clus scale="  100.069">  7  8 -1 -1</clus>
<clus scale="  129.835">  2  5  1 -1</clus>
<clus scale="   52.496">  1  5  2 -1</clus>
</clustering>
</event>
<event>
 9    1  0.4017099E-005  0.1873755E+03  0.7546771E-02  0.1186633E+00
          2   -1    0    0  502    0 -0.00000000000E+00  0.00000000000E+00  0.55986066748E+03  0.55986066748E+03  0.00000000000E+00 0. -1.
         21   -1    0    0  501  502  0.00000000000E+00 -0.00000000000E+00 -0.68656987954E+03  0.68656987954E+03  0.00000000000E+00 0. -1.
         23    2    1    2    0    0 -0.13539789263E+02 -0.48963726124E+02 -0.29393073288E+03  0.31188228980E+03  0.91074225731E+02 0.  0.
         23    2    1    2    0    0  0.15841502288E+03  0.12428635333E+03  0.50958807660E+03  0.55523678889E+03  0.89807944066E+02 0.  0.
        -11    1    4    4    0    0  0.10126100101E+02  0.46683082115E+02  0.68922795388E+02  0.83858212377E+02  0.00000000000E+00 0.  1.
         11    1    4    4    0    0  0.14828892278E+03  0.77603271213E+02  0.44066528122E+03  0.47137857651E+03  0.00000000000E+00 0. -1.
        -13    1    3    3    0    0 -0.35327567766E+02 -0.58893302284E+01 -0.41234617527E+02  0.54616983965E+02  0.00000000000E+00 0. -1.
         13    1    3    3    0    0  0.21787778503E+02 -0.43074395896E+02 -0.25269611535E+03  0.25726530584E+03  0.00000000000E+00 0.  1.
          2    1    1    2  501    0 -0.14487523362E+03 -0.75322627204E+02 -0.34236655579E+03  0.37931146833E+03  0.00000000000E+00 0. -1.
<scales pt_clust_5="13000.00000" pt_clust_6="13000.00000" pt_clust_7="13000.00000" pt_clust_8="13000.00000" pt_clust_9="164.45098"></scales>
<clustering>
<clus scale="   89.808">  5  6 -1 -1</clus>
<clus scale="   91.074">  7  8 -1 -1</clus>
<clus scale="  104.285">  1  7  2 -1</clus>
<clus scale="  164.451">  2  9  1 -1</clus>
<clus scale="  164.451">  2  5  1 -1</clus>
</clustering>
</event>
<event>
 9    1  0.1636528E-005  0.9734230E+02  0.7546771E-02  0.1285994E+00
          1   -1    0    0  502    0 -0.00000000000E+00  0.00000000000E+00  0.62063373798E+02  0.62063373798E+02  0.00000000000E+00 0. -1.
         21   -1    0    0  501  502  0.00000000000E+00 -0.00000000000E+00 -0.35884450886E+03  0.35884450886E+03  0.00000000000E+00 0.  1.
         23    2    1    2    0    0 -0.61947703306E+02  0.50663616197E+02 -0.10693730835E+03  0.16084127205E+03  0.89610305916E+02 0.  0.
         23    2    1    2    0    0 -0.41917380954E+01  0.25492503540E+01 -0.12163944909E+03  0.15117275402E+03  0.89626874533E+02 0.  0.
        -11    1    3    3    0    0  0.15940536630E+01  0.39964886021E+02 -0.50861451723E+01  0.40318754872E+02  0.00000000000E+00 0. -1.
         11    1    3    3    0    0 -0.63541756969E+02  0.10698730176E+02 -0.10185116318E+03  0.12052251718E+03  0.00000000000E+00 0.  1.
        -13    1    4    4    0    0 -0.31168642139E+02 -0.30275958350E+02 -0.83261072735E+02  0.93917645519E+02  0.00000000000E+00 0.  1.
         13    1    4    4    0    0  0.26976904044E+02  0.32825208704E+02 -0.38378376354E+02  0.57255108504E+02  0.00000000000E+00 0. -1.
          1    1    1    2  501    0  0.66139441401E+02 -0.53212866551E+02 -0.68204377624E+02  0.10889385659E+03  0.00000000000E+00 0. -1.
<scales pt_clust_5="13000.00000" pt_clust_6="13000.00000" pt_clust_7="13000.00000" pt_clust_8="13000.00000" pt_clust_9="84.88841"></scales>
<clustering>
<clus scale="   84.888">  2  9  1 -1</clus>
<clus scale="   89.610">  5  6 -1 -1</clus>
<clus scale="   89.627">  7  8 -1 -1</clus>
<clus scale="   97.327">  1  5  2 -1</clus>
<clus scale="   84.888">  2  5  1 -1</clus>
</clustering>
</event>
<event>
 9    1  0.1636528E-005  0.1143506E+03  0.7546771E-02  0.1255177E+00
         21   -1    0    0  501  502  0.00000000000E+00  0.00000000000E+00  0.77220225417E+02  0.77220225417E+02  0.00000000000E+00 0.  1.
          3   -1    0    0  502    0 -0.00000000000E+00 -0.00000000000E+00 -0.30167364348E+03  0.30167364348E+03  0.00000000000E+00 0. -1.
         23    2    1    2    0    0  0.49711202150E+02 -0.34243156759E+01 -0.14020931290E+03  0.17601481578E+03  0.94019329900E+02 0.  0.
         23    2    1    2    0    0 -0.66613830244E+02 -0.43079172027E+02 -0.33877003126E+02  0.13227368382E+03  0.10027690985E+03 0.  0.
        -11    1    3    3    0    0  0.63025560083E+02  0.24506775550E+02 -0.12361838593E+03  0.14090531789E+03  0.00000000000E+00 0. -1.
         11    1    3    3    0    0 -0.13314357933E+02 -0.27931091226E+02 -0.16590926971E+02  0.35109497889E+02  0.00000000000E+00 0.  1.
        -13    1    4    4    0    0 -0.75235635299E+02 -0.65938982812E+02 -0.14492328009E+02  0.10108599232E+03  0.00000000000E+00 0.  1.
         13    1    4    4    0    0  0.86218050557E+01  0.22859810784E+02 -0.19384675117E+02  0.31187691497E+02  0.00000000000E+00 0. -1.
          3    1    1    2  501    0  0.16902628094E+02  0.46503487703E+02 -0.50367102035E+02  0.70605369289E+02  0.00000000000E+00 0. -1.
<scales pt_clust_5="13000.00000" pt_clust_6="13000.00000" pt_clust_7="13000.00000" pt_clust_8="13000.00000" pt_clust_9="49.48005"></scales>
<clustering>
<clus scale="   49.480">  1  9  2 -1</clus>
<clus scale="   94.019">  5  6 -1 -1</clus>
<clus scale="  100.277">  7  8 -1 -1</clus>
<clus scale="  108.905">  2  5  1 -1</clus>
<clus scale="   49.480">  1  5  2 -1</clus>
</clustering>
</event>
<event>
 9    1  0.1636528E-005  0.2744317E+03  0.7546771E-02  0.1099066E+00
         21   -1    0    0  501  502  0.00000000000E+00  0.00000000000E+00  0.44823465393E+03  0.44823465393E+03  0.00000000000E+00 0.  1.
          1   -1    0    0  502    0 -0.00000000000E+00 -0.00000000000E+00 -0.39074202076E+03  0.39074202076E+03  0.00000000000E+00 0. -1.
         23    2    1    2    0    0 -0.17378985962E+03 -0.13596576321E+03 -0.54295898816E+02  0.24215495211E+03  0.83674202313E+02 0.  0.
         23    2    1    2    0    0  0.20774679575E+03  0.31936880661E+03  0.12174623427E+03  0.41003600129E+03  0.90289595291E+02 0.  0.
        -11    1    3    3    0    0 -0.36317000758E+01 -0.38289540497E+02 -0.18644308137E+02  0.42742114861E+02  0.00000000000E+00 0.  1.
         11    1    3    3    0    0 -0.17015815954E+03 -0.97676222712E+02 -0.35651590679E+02  0.19941283725E+03  0.00000000000E+00 0. -1.
        -11    1    4    4    0    0  0.19113441410E+03  0.22344531177E+03  0.86494984921E+02  0.30649886464E+03  0.00000000000E+00 0.  1.
         11    1    4    4    0    0  0.16612381645E+02  0.95923494843E+02  0.35251249349E+02  0.10353713666E+03  0.00000000000E+00 0. -1.
          1    1    1    2  501    0 -0.33956936129E+02 -0.18340304340E+03 -0.99577022799E+01  0.18678572128E+03  0.00000000000E+00 0. -1.
<scales pt_clust_5="13000.00000" pt_clust_6="13000.00000" pt_clust_7="13000.00000" pt_clust_8="13000.00000" pt_clust_9="186.52020"></scales>
<clustering>
<clus scale="   83.674">  5  6 -1 -1</clus>
<clus scale="   90.290">  7  8 -1 -1</clus>
<clus scale="  186.520">  1  9  2 -1</clus>
<clus scale="  272.327">  2  5  1 -1</clus>
<clus scale="  186.520">  1  5  2 -1</clus>
</clustering>
</event>
<event>
 9    1  0.1636528E-005  0.2444660E+03  0.7546771E-02  0.1116940E+00
         -3   -1    0    0    0  501 -0.00000000000E+00  0.00000000000E+00  0.27340662954E+03  0.27340662954E+03  0.00000000000E+00 0.  1.
         21   -1    0    0  501  502  0.00000000000E+00 -0.00000000000E+00 -0.65015989251E+03  0.65015989251E+03  0.00000000000E+00 0.  1.
         23    2    1    2    0    0 -0.13876193541E+03 -0.65629596596E+02 -0.48178669448E+02  0.18512459621E+03  0.91585005677E+02 0.  0.
         23    2    1    2    0    0  0.31425769416E+03  0.85867131131E+02  0.29353919589E+02  0.33929140331E+03  0.90144002677E+02 0.  0.
        -11    1    3    3    0    0 -0.39124661578E+02 -0.16127063879E+02 -0.59803882784E+02  0.73262034704E+02  0.00000000000E+00 0.  1.
         11    1    3    3    0    0 -0.99637273828E+02 -0.49502532716E+02  0.11625213337E+02  0.11186256150E+03  0.00000000000E+00 0. -1.
        -13    1    4    4    0    0  0.29279590227E+03  0.68006358302E+02  0.49795913443E+02  0.30468662286E+03  0.00000000000E+00 0.  1.
         13    1    4    4    0    0  0.21461791888E+02  0.17860772829E+02 -0.20441993854E+02  0.34604780448E+02  0.00000000000E+00 0. -1.
         -3    1    1    2    0  502 -0.17549575875E+03 -0.20237534535E+02 -0.35792851311E+03  0.39915052253E+03  0.00000000000E+00 0.  1.
<scales pt_clust_5="13000.00000" pt_clust_6="13000.00000" pt_clust_7="13000.00000" pt_clust_8="13000.00000" pt_clust_9="176.65876"></scales>
<clustering>
<clus scale="   90.144">  7  8 -1 -1</clus>
<clus scale="   91.585">  5  6 -1 -1</clus>
<clus scale="  176.659">  2  9  1 -1</clus>
<clus scale="  243.930">  2  7  1 -1</clus>
<clus scale="  176.659">  2  5  1 -1</clus>
</clustering>
</event>
<event>
 9    1  0.1636528E-005  0.1323768E+03  0.7546771E-02  0.1224636E+00
         21   -1    0    0  501  502  0.00000000000E+00  0.00000000000E+00  0.74037455757E+02  0.74037455757E+02  0.00000000000E+00 0.  1.
          2   -1    0    0  502    0 -0.00000000000E+00 -0.00000000000E+00 -0.63968796809E+03  0.63968796809E+03  0.00000000000E+00 0. -1.
         23    2    1    2    0    0  0.81706116841E+02 -0.33609064042E+02 -0.44322647954E+03  0.46171641060E+03  0.94482130254E+02 0.  0.
         23    2    1    2    0    0 -0.92245409457E+02  0.52004901195E+02 -0.15759355500E+03  0.21094347044E+03  0.91911336797E+02 0.  0.
        -13    1    4    4    0    0 -0.24316778224E+02  0.32258705360E+02 -0.12806855633E+03  0.13428881150E+03  0.00000000000E+00 0. -1.
         13    1    4    4    0    0 -0.67928631233E+02  0.19746195835E+02 -0.29524998671E+02  0.76654658943E+02  0.00000000000E+00 0.  1.
        -13    1    3    3    0    0  0.49550292551E+02  0.23648695361E+02 -0.12111000174E+03  0.13297415090E+03  0.00000000000E+00 0.  1.
         13    1    3    3    0    0  0.32155824290E+02 -0.57257759404E+02 -0.32211647780E+03  0.32874225970E+03  0.00000000000E+00 0. -1.
          2    1    1    2  501    0  0.10539292616E+02 -0.18395837153E+02  0.35169522206E+02  0.41065542802E+02  0.00000000000E+00 0. -1.
<scales pt_clust_5="13000.00000" pt_clust_6="13000.00000" pt_clust_7="13000.00000" pt_clust_8="13000.00000" pt_clust_9="21.20103"></scales>
<clustering>
<clus scale="   21.201">  1  9  2 -1</clus>
<clus scale="   91.911">  5  6 -1 -1</clus>
<clus scale="   94.482">  7  8 -1 -1</clus>
<clus scale="  130.554">  1  5  2 -1</clus>
<clus scale="   21.201">  1  5  2 -1</clus>
</clustering>
</event>
<event>
 9    1  0.1636528E-005  0.1132996E+03  0.7546771E-02  0.1254817E+00
         -4   -1    0    0    0  501 -0.00000000000E+00  0.00000000000E+00  0.11031539952E+03  0.11031539952E+03  0.00000000000E+00 0.  1.
         21   -1    0    0  501  502  0.00000000000E+00 -0.00000000000E+00 -0.18043193651E+03  0.18043193651E+03  0.00000000000E+00 0.  1.
         23    2    1    2    0    0 -0.37274412534E+01  0.74921975354E+02  0.33572487895E+02  0.12257326915E+03  0.90938980413E+02 0.  0.
         23    2    1    2    0    0 -0.10120869981E+01 -0.52034352394E+02 -0.64508785270E+02  0.12255173035E+03  0.90271507611E+02 0.  0.
        -11    1    4    4    0    0  0.35835384700E+02 -0.32097515779E+01 -0.46487068921E+02  0.58783712699E+02  0.00000000000E+00 0. -1.
         11    1    4    4    0    0 -0.36847471698E+02 -0.48824600816E+02 -0.18021716349E+02  0.63768017655E+02  0.00000000000E+00 0.  1.
        -13    1    3    3    0    0 -0.30687448151E+02  0.44494107645E+02  0.54578875581E+02  0.76813402143E+02  0.00000000000E+00 0.  1.
         13    1    3    3    0    0  0.26960006898E+02  0.30427867709E+02 -0.21006387686E+02  0.45759867011E+02  0.00000000000E+00 0. -1.
         -4    1    1    2    0  502  0.47395282515E+01 -0.22887622960E+02 -0.39180239618E+02  0.45622336518E+02  0.00000000000E+00 0.  1.
<scales pt_clust_5="13000.00000" pt_clust_6="13000.00000" pt_clust_7="13000.00000" pt_clust_8="13000.00000" pt_clust_9="23.37320"></scales>
<clustering>
<clus scale="   23.373">  2  9  1 -1</clus>
<clus scale="   90.272">  5  6 -1 -1</clus>
<clus scale="   90.939">  7  8 -1 -1</clus>
<clus scale="  112.765">  2  5  1 -1</clus>
<clus scale="   23.373">  2  5  1 -1</clus>
</clustering>
</event>
<event>
 9    1  0.1636528E-005  0.1030431E+03  0.7546771E-02  0.1275090E+00
         21   -1    0    0  501  502  0.00000000000E+00  0.00000000000E+00  0.17338549509E+03  0.17338549509E+03  0.00000000000E+00 0.  1.
          1   -1    0    0  502    0 -0.00000000000E+00 -0.00000000000E+00 -0.23766622043E+03  0.23766622043E+03  0.00000000000E+00 0. -1.
         23    2    1    2    0    0 -0.19255492410E+02  0.43166144415E+02 -0.19516095722E+03  0.22026772147E+03  0.90531651318E+02 0.  0.
         23    2    1    2    0    0  0.34795168801E+02 -0.83959685470E+01  0.82854750053E+02  0.12949049050E+03  0.92853009985E+02 0.  0.
        -11    1    4    4    0    0 -0.20157142241E+02 -0.32644919450E+02  0.23200818267E+02  0.44836136290E+02  0.00000000000E+00 0.  1.
         11    1    4    4    0    0  0.54952311042E+02  0.24248950903E+02  0.59653931786E+02  0.84654354208E+02  0.00000000000E+00 0. -1.
        -11    1    3    3    0    0 -0.38645903712E+02  0.77112708368E+01 -0.28129414621E+02  0.48417285534E+02  0.00000000000E+00 0.  1.
         11    1    3    3    0    0  0.19390411302E+02  0.35454873578E+02 -0.16703154259E+03  0.17185043594E+03  0.00000000000E+00 0. -1.
          1    1    1    2  501    0 -0.15539676391E+02 -0.34770175868E+02  0.48025481829E+02  0.61293503548E+02  0.00000000000E+00 0. -1.
<scales pt_clust_5="13000.00000" pt_clust_6="13000.00000" pt_clust_7="13000.00000" pt_clust_8="13000.00000" pt_clust_9="38.08473"></scales>
<clustering>
<clus scale="   38.085">  1  9  2 -1</clus>
<clus scale="   90.532">  7  8 -1 -1</clus>
<clus scale="   92.853">  5  6 -1 -1</clus>
<clus scale="  100.956">  2  7  1 -1</clus>
<clus scale="   38.085">  1  5  2 -1</clus>
</clustering>
</event>
<event>
 9    1  0.1636528E-005  0.1315753E+03  0.7546771E-02  0.1233573E+00
         21   -1    0    0  501  502  0.00000000000E+00  0.00000000000E+00  0.19389089340E+03  0.19389089340E+03  0.00000000000E+00 0.  1.
          1   -1    0    0  502    0 -0.00000000000E+00 -0.00000000000E+00 -0.27591262903E+03  0.27591262903E+03  0.00000000000E+00 0. -1.
         23    2    1    2    0    0 -0.57594185921E+02 -0.17866234321E+02 -0.18088877917E+03  0.21125406493E+03  0.90946341000E+02 0.  0.
         23    2    1    2    0    0  0.87753895109E+02 -0.42486033214E+02  0.16596751324E+02  0.15215206451E+03  0.11562434629E+03 0.  0.
        -13    1    3    3    0    0 -0.73232533995E+02 -0.38106758335E+02 -0.12513392143E+03  0.14991206542E+03  0.00000000000E+00 0. -1.
         13    1    3    3    0    0  0.15638348074E+02  0.20240524014E+02 -0.55754857741E+02  0.61341999515E+02  0.00000000000E+00 0.  1.
        -13    1    4    4    0    0  0.97181118506E+02 -0.71264406802E+02  0.17943297822E+02  0.12183902252E+03  0.00000000000E+00 0. -1.
         13    1    4    4    0    0 -0.94272233969E+01  0.28778373588E+02 -0.13465464979E+01  0.30313041992E+02  0.00000000000E+00 0.  1.
          1    1    1    2  501    0 -0.30159709188E+02  0.60352267535E+02  0.82270292207E+02  0.10639739299E+03  0.00000000000E+00 0. -1.
<scales pt_clust_5="13000.00000" pt_clust_6="13000.00000" pt_clust_7="13000.00000" pt_clust_8="13000.00000" pt_clust_9="67.46854"></scales>
<clustering>
<clus scale="   67.469">  1  9  2 -1</clus>
<clus scale="   90.946">  5  6 -1 -1</clus>
<clus scale="  110.518">  2  5  1 -1</clus>
<clus scale="  115.624">  7  8 -1 -1</clus>
<clus scale="   67.469">  1  5  2 -1</clus>
</clustering>
</event>
<event>
 9    1  0.1636528E-005  0.1564750E+03  0.7546771E-02  0.1194227E+00
         21   -1    0    0  501  502  0.00000000000E+00  0.00000000000E+00  0.23785876785E+03  0.23785876785E+03  0.00000000000E+00 0.  1.
          3   -1    0    0  502    0 -0.00000000000E+00 -0.00000000000E+00 -0.18112564893E+03  0.18112564893E+03  0.00000000000E+00 0. -1.
         23    2    1    2    0    0 -0.92975783143E+02 -0.63242847292E+02  0.11539386931E+02  0.14668179884E+03  0.93478546599E+02 0.  0.
         23    2    1    2    0    0  0.14479341014E+03 -0.11654310366E+02  0.35628208706E+02  0.18072669356E+03  0.10144857781E+03 0.  0.
        -13    1    3    3    0    0 -0.46550080045E+02 -0.42106068930E+02 -0.39788844136E+02  0.74316775432E+02  0.00000000000E+00 0.  1.
         13    1    3    3    0    0 -0.46425703097E+02 -0.21136778362E+02  0.51328231067E+02  0.72365023403E+02  0.00000000000E+00 0. -1.
        -13    1    4    4    0    0  0.61967673118E+01  0.28507386876E+02  0.20461674874E+02  0.35633568026E+02  0.00000000000E+00 0. -1.
         13    1    4    4    0    0  0.13859664283E+03 -0.40161697242E+02  0.15166533832E+02  0.14509312553E+03  0.00000000000E+00 0.  1.
          3    1    1    2  501    0 -0.51817626995E+02  0.74897157658E+02  0.95655232785E+01  0.91575924392E+02  0.00000000000E+00 0. -1.
<scales pt_clust_5="13000.00000" pt_clust_6="13000.00000" pt_clust_7="13000.00000" pt_clust_8="13000.00000" pt_clust_9="91.07502"></scales>
<clustering>
<clus scale="   91.075">  1  9  2 -1</clus>
<clus scale="   93.479">  5  6 -1 -1</clus>
<clus scale="  101.449">  7  8 -1 -1</clus>
<clus scale="  151.429">  2  5  1 -1</clus>
<clus scale="   91.075">  1  5  2 -1</clus>
</clustering>
</event>
<event>
 9    1  0.1636528E-005  0.9494523E+02  0.7546771E-02  0.1295234E+00
          2   -1    0    0  502    0 -0.00000000000E+00  0.00000000000E+00  0.43192052974E+03  0.43192052974E+03  0.00000000000E+00 0. -1.
         21   -1    0    0  501  502  0.00000000000E+00 -0.00000000000E+00 -0.47698425607E+02  0.47698425607E+02  0.00000000000E+00 0. -1.
         23    2    1    2    0    0  0.20419678486E+02  0.13642942538E+02  0.23706619192E+03  0.25360214338E+03  0.86663571489E+02 0.  0.
         23    2    1    2    0    0 -0.65911044628E+01  0.14414299916E+01  0.17075014804E+03  0.19478452548E+03  0.93487314272E+02 0.  0.
        -11    1    4    4    0    0  0.20280715528E+02 -0.38180838478E+02  0.58416129424E+02  0.72674122122E+02  0.00000000000E+00 0.  1.
         11    1    4    4    0    0 -0.26871819991E+02  0.39622268470E+02  0.11233401862E+03  0.12211040336E+03  0.00000000000E+00 0. -1.
        -13    1    3    3    0    0  0.34522167096E+02  0.41332517491E+02  0.18767794368E+03  0.19525154946E+03  0.00000000000E+00 0. -1.
         13    1    3    3    0    0 -0.14102488610E+02 -0.27689574953E+02  0.49388248241E+02  0.58350593916E+02  0.00000000000E+00 0.  1.
          2    1    1    2  501    0 -0.13828574023E+02 -0.15084372530E+02 -0.23594235840E+02  0.31232286484E+02  0.00000000000E+00 0. -1.
<scales pt_clust_5="13000.00000" pt_clust_6="13000.00000" pt_clust_7="13000.00000" pt_clust_8="13000.00000" pt_clust_9="20.46382"></scales>
<clustering>
<clus scale="   20.464">  2  9  1 -1</clus>
<clus scale="   86.664">  7  8 -1 -1</clus>
<clus scale="   88.234">  1  7  2 -1</clus>
<clus scale="   93.487">  5  6 -1 -1</clus>
<clus scale="   20.464">  2  5  1 -1</clus>
</clustering>
</event>
<event>
 9    1  0.1636528E-005  0.1293290E+03  0.7546771E-02  0.1244752E+00
         21   -1    0    0  501  502  0.00000000000E+00  0.00000000000E+00  0.23159388235E+02  0.23159388235E+02  0.00000000000E+00 0. -1.
         -3   -1    0    0    0  501 -0.00000000000E+00 -0.00000000000E+00 -0.11869118209E+04  0.11869118209E+04  0.00000000000E+00 0.  1.
         23    2    1    2    0    0  0.24288847129E+01 -0.13232023168E+02 -0.25964120343E+03  0.27569745227E+03  0.91730827697E+02 0.  0.
         23    2    1    2    0    0  0.68534170392E+02 -0.51050213565E+02 -0.35328148836E+03  0.37528399254E+03  0.93419528041E+02 0.  0.
        -13    1    3    3    0    0  0.61303176454E+01  0.37538799549E+02 -0.15106830165E+03  0.15578309931E+03  0.00000000000E+00 0.  1.
         13    1    3    3    0    0 -0.37014329325E+01 -0.50770822717E+02 -0.10857290178E+03  0.11991435296E+03  0.00000000000E+00 0. -1.
        -13    1    4    4    0    0  0.41391802852E+02 -0.51751051310E+02 -0.33736370241E+03  0.34381058791E+03  0.00000000000E+00 0. -1.
         13    1    4    4    0    0  0.27142367540E+02  0.70083774545E+00 -0.15917785950E+02  0.31473404627E+02  0.00000000000E+00 0.  1.
         -3    1    1    2    0  502 -0.70963055105E+02  0.64282236732E+02 -0.55082974092E+03  0.55908976438E+03  0.00000000000E+00 0.  1.
<scales pt_clust_5="13000.00000" pt_clust_6="13000.00000" pt_clust_7="13000.00000" pt_clust_8="13000.00000" pt_clust_9="89.43601"></scales>
<clustering>
<clus scale="   91.731">  5  6 -1 -1</clus>
<clus scale="   92.712">  2  5  1 -1</clus>
<clus scale="   89.436">  1  9  2 -1</clus>
<clus scale="   93.420">  7  8 -1 -1</clus>
<clus scale="   89.436">  1  5  2 -1</clus>
</clustering>
</event>
<event>
 9    1  0.1636528E-005  0.2478903E+03  0.7546771E-02  0.1114785E+00
         21   -1    0    0  501  502  0.00000000000E+00  0.00000000000E+00  0.46080683882E+03  0.46080683882E+03  0.00000000000E+00 0.  1.
          2   -1    0    0  502    0 -0.00000000000E+00 -0.00000000000E+00 -0.17703902364E+03  0.17703902364E+03  0.00000000000E+00 0. -1.
         23    2    1    2    0    0 -0.17000086078E+02  0.22714905192E+03  0.76383289907E+02  0.25690988947E+03  0.91008733750E+02 0.  0.
         23    2    1    2    0    0  0.38965819582E+02 -0.22891510475E+03  0.97059441454E+02  0.26843158857E+03  0.93351605707E+02 0.  0.
        -13    1    4    4    0    0 -0.14193802448E+02 -0.24771879657E+02  0.41349298258E+02  0.50248129478E+02  0.00000000000E+00 0.  1.
         13    1    4    4    0    0  0.53159622030E+02 -0.20414322510E+03  0.55710143196E+02  0.21818345909E+03  0.00000000000E+00 0. -1.
        -13    1    3    3    0    0 -0.22906565940E+02  0.13757527603E+03  0.66281907019E+00  0.13947080938E+03  0.00000000000E+00 0.  1.
         13    1    3    3    0    0  0.59064798622E+01  0.89573775883E+02  0.75720470836E+02  0.11743908010E+03  0.00000000000E+00 0. -1.
          2    1    1    2  501    0 -0.21965733504E+02  0.17660528363E+01  0.11032508382E+03  0.11250438441E+03  0.00000000000E+00 0. -1.
<scales pt_clust_5="13000.00000" pt_clust_6="13000.00000" pt_clust_7="13000.00000" pt_clust_8="13000.00000" pt_clust_9="22.03661"></scales>
<clustering>
<clus scale="   22.037">  1  9  2 -1</clus>
<clus scale="   91.009">  7  8 -1 -1</clus>
<clus scale="   93.352">  5  6 -1 -1</clus>
<clus scale="  247.017">  2  7  1 -1</clus>
<clus scale="   22.037">  1  5  2 -1</clus>
</clustering>
</event>
<event>
 9    1  0.1636528E-005  0.1014216E+03  0.7546771E-02  0.1277779E+00
          1   -1    0    0  502    0 -0.00000000000E+00  0.00000000000E+00  0.30547234323E+03  0.30547234323E+03  0.00000000000E+00 0. -1.
         21   -1    0    0  501  502  0.00000000000E+00 -0.00000000000E+00 -0.49639243347E+02  0.49639243347E+02  0.00000000000E+00 0.  1.
         23    2    1    2    0    0  0.19107596605E+02  0.47525181776E+02  0.16268436022E+03  0.19450419478E+03  0.93498329266E+02 0.  0.
         23    2    1    2    0    0  0.60894700708E+01 -0.24918054661E+02  0.76958747632E+02  0.12308286372E+03  0.92567550529E+02 0.  0.
        -13    1    3    3    0    0 -0.11774212254E+02  0.41260085495E+02  0.15665092167E+03  0.16242086686E+03  0.00000000000E+00 0.  1.
         13    1    3    3    0    0  0.30881808859E+02  0.62650962808E+01  0.60334385449E+01  0.32083327921E+02  0.00000000000E+00 0. -1.
        -13    1    4    4    0    0 -0.17575579992E+02 -0.10661347765E+02 -0.16035705050E+02  0.26071232895E+02  0.00000000000E+00 0.  1.
         13    1    4    4    0    0  0.23665050063E+02 -0.14256706897E+02  0.92994452682E+02  0.97011630827E+02  0.00000000000E+00 0. -1.
          1    1    1    2  501    0 -0.25197066676E+02 -0.22607127114E+02  0.16189992033E+02  0.37524528078E+02  0.00000000000E+00 0. -1.
<scales pt_clust_5="13000.00000" pt_clust_6="13000.00000" pt_clust_7="13000.00000" pt_clust_8="13000.00000" pt_clust_9="33.85224"></scales>
<clustering>
<clus scale="   33.852">  2  9  1 -1</clus>
<clus scale="   92.568">  7  8 -1 -1</clus>
<clus scale="   93.498">  5  6 -1 -1</clus>
<clus scale="  100.564">  2  7  1 -1</clus>
<clus scale="   33.852">  2  5  1 -1</clus>
</clustering>
</event>
<event>
 9    1  0.1636528E-005  0.9770447E+02  0.7546771E-02  0.1286709E+00
          2   -1    0    0  502    0 -0.00000000000E+00  0.00000000000E+00  0.38981745945E+03  0.38981745945E+03  0.00000000000E+00 0. -1.
         21   -1    0    0  501  502  0.00000000000E+00 -0.00000000000E+00 -0.90854361517E+02  0.90854361517E+02  0.00000000000E+00 0. -1.
         23    2    1    2    0    0 -0.26023166160E+02 -0.76901344096E+00  0.22438867648E+03  0.24362369648E+03  0.91238318677E+02 0.  0.
         23    2    1    2    0    0  0.50203910131E+02 -0.12735319035E+02  0.13567720838E+03  0.16996141980E+03  0.88294724660E+02 0.  0.
        -11    1    4    4    0    0 -0.18163159614E+02 -0.14119874965E+02  0.66725994410E+01  0.23954014684E+02  0.00000000000E+00 0.  1.
         11    1    4    4    0    0  0.68367069745E+02  0.13845559295E+01  0.12900460894E+03  0.14600740512E+03  0.00000000000E+00 0. -1.
        -13    1    3    3    0    0 -0.55073428952E+02  0.11218646050E+02  0.18433336266E+03  0.19271151804E+03  0.00000000000E+00 0.  1.
         13    1    3    3    0    0  0.29050262792E+02 -0.11987659491E+02  0.40055313829E+02  0.50912178448E+02  0.00000000000E+00 0. -1.
          2    1    1    2  501    0 -0.24180743971E+02  0.13504332476E+02 -0.61102786932E+02  0.67086704685E+02  0.00000000000E+00 0. -1.
<scales pt_clust_5="13000.00000" pt_clust_6="13000.00000" pt_clust_7="13000.00000" pt_clust_8="13000.00000" pt_clust_9="27.69613"></scales>
<clustering>
<clus scale="   27.696">  2  9  1 -1</clus>
<clus scale="   88.295">  5  6 -1 -1</clus>
<clus scale="   91.238">  7  8 -1 -1</clus>
<clus scale="   94.962">  2  5  1 -1</clus>
<clus scale="   27.696">  2  5  1 -1</clus>
</clustering>
</event>
<event>
 9    1  0.1636528E-005  0.1322044E+03  0.7546771E-02  0.1225129E+00
          2   -1    0    0  502    0 -0.00000000000E+00  0.00000000000E+00  0.41359864696E+03  0.41359864696E+03  0.00000000000E+00 0. -1.
         21   -1    0    0  501  502  0.00000000000E+00 -0.00000000000E+00 -0.15416825141E+03  0.15416825141E+03  0.00000000000E+00 0. -1.
         23    2    1    2    0    0  0.98047477842E+02 -0.25708544288E+02  0.32746565106E+03  0.35387973321E+03  0.87879894121E+02 0.  0.
         23    2    1    2    0    0 -0.65493468334E+02  0.75211497364E+02 -0.98295268873E+01  0.13083168525E+03  0.84107945732E+02 0.  0.
        -11    1    3    3    0    0  0.71081456013E+02  0.18283947534E+02  0.25192021563E+03  0.26239411421E+03  0.00000000000E+00 0. -1.
         11    1    3    3    0    0  0.26966021829E+02 -0.43992491822E+02  0.75545435428E+02  0.91485619001E+02  0.00000000000E+00 0.  1.
        -13    1    4    4    0    0  0.19299139460E+02  0.18591442343E+02 -0.10738044026E+02  0.28868739179E+02  0.00000000000E+00 0. -1.
         13    1    4    4    0    0 -0.84792607794E+02  0.56620055022E+02  0.90851713846E+00  0.10196294607E+03  0.00000000000E+00 0.  1.
          2    1    1    2  501    0 -0.32554009509E+02 -0.49502953077E+02 -0.58205728626E+02  0.83055479911E+02  0.00000000000E+00 0. -1.
<scales pt_clust_5="13000.00000" pt_clust_6="13000.00000" pt_clust_7="13000.00000" pt_clust_8="13000.00000" pt_clust_9="59.24783"></scales>
<clustering>
<clus scale="   59.248">  2  9  1 -1</clus>
<clus scale="   84.108">  7  8 -1 -1</clus>
<clus scale="   87.880">  5  6 -1 -1</clus>
<clus scale="  129.728">  2  7  1 -1</clus>
<clus scale="   59.248">  2  5  1 -1</clus>
</clustering>
</event>
<event>
 9    1  0.1636528E-005  0.9876807E+02  0.7546771E-02  0.1285046E+00
         21   -1    0    0  501  502  0.00000000000E+00  0.00000000000E+00  0.64721467163E+02  0.64721467163E+02  0.00000000000E+00 0.  1.
          1   -1    0    0  502    0 -0.00000000000E+00 -0.00000000000E+00 -0.31614475102E+03  0.31614475102E+03  0.00000000000E+00 0. -1.
         23    2    1    2    0    0  0.16382597647E+02 -0.63095531026E+01 -0.13845097522E+03  0.16546721108E+03  0.88896149720E+02 0.  0.
         23    2    1    2    0    0 -0.74284508506E+02 -0.18290864059E+02 -0.75497439019E+02  0.14217211547E+03  0.93060750091E+02 0.  0.
        -11    1    4    4    0    0 -0.62061984692E+02 -0.43009702604E+00 -0.94709024756E+02  0.11323283224E+03  0.00000000000E+00 0. -1.
         11    1    4    4    0    0 -0.12222523814E+02 -0.17860767032E+02  0.19211585737E+02  0.28939283231E+02  0.00000000000E+00 0.  1.
        -13    1    3    3    0    0  0.20681254991E+02  0.29738999614E+02 -0.19580739206E+02  0.41176786590E+02  0.00000000000E+00 0.  1.
         13    1    3    3    0    0 -0.42986573437E+01 -0.36048552717E+02 -0.11887023602E+03  0.12429042449E+03  0.00000000000E+00 0. -1.
          1    1    1    2  501    0  0.57901910859E+02  0.24600417161E+02 -0.37474869610E+02  0.73226891630E+02  0.00000000000E+00 0. -1.
<scales pt_clust_5="13000.00000" pt_clust_6="13000.00000" pt_clust_7="13000.00000" pt_clust_8="13000.00000" pt_clust_9="62.91114"></scales>
<clustering>
<clus scale="   62.911">  1  9  2 -1</clus>
<clus scale="   88.896">  7  8 -1 -1</clus>
<clus scale="   93.061">  5  6 -1 -1</clus>
<clus scale="   94.854">  2  7  1 -1</clus>
<clus scale="   62.911">  1  5  2 -1</clus>
</clustering>
</event>
<event>
 9    1  0.1636528E-005  0.1208423E+03  0.7546771E-02  0.1242695E+00
         21   -1    0    0  501  502  0.00000000000E+00  0.00000000000E+00  0.45111904736E+03  0.45111904736E+03  0.00000000000E+00 0. -1.
          3   -1    0    0  502    0 -0.00000000000E+00 -0.00000000000E+00 -0.80993227546E+02  0.80993227546E+02  0.00000000000E+00 0. -1.
         23    2    1    2    0    0 -0.66316561055E+02 -0.55862257075E+01  0.74076468458E+02  0.13438897559E+03  0.90244010285E+02 0.  0.
         23    2    1    2    0    0  0.70083867137E+02 -0.95049126209E+02  0.11093504777E+03  0.18698893562E+03  0.93339125749E+02 0.  0.
        -11    1    4    4    0    0  0.82912282204E+02 -0.36691754937E+02  0.63391834161E+02  0.11063117128E+03  0.00000000000E+00 0.  1.
         11    1    4    4    0    0 -0.12828415068E+02 -0.58357371273E+02  0.47543213609E+02  0.76357764342E+02  0.00000000000E+00 0. -1.
        -13    1    3    3    0    0  0.21227242907E+02 -0.20196966970E+01  0.29285317114E+01  0.21523273779E+02  0.00000000000E+00 0.  1.
         13    1    3    3    0    0 -0.87543803962E+02 -0.35665290106E+01  0.71147936746E+02  0.11286570181E+03  0.00000000000E+00 0. -1.
          3    1    1    2  501    0 -0.37673060819E+01  0.10063535192E+03  0.18511430359E+03  0.21073436370E+03  0.00000000000E+00 0. -1.
<scales pt_clust_5="13000.00000" pt_clust_6="13000.00000" pt_clust_7="13000.00000" pt_clust_8="13000.00000" pt_clust_9="100.70584"></scales>
<clustering>
<clus scale="   90.244">  7  8 -1 -1</clus>
<clus scale="   93.339">  5  6 -1 -1</clus>
<clus scale="  100.706">  1  9  2 -1</clus>
<clus scale="  118.468">  2  7  1 -1</clus>
<clus scale="  100.706">  1  5  2 -1</clus>
</clustering>
</event>
<event>
 9    1  0.1636528E-005  0.1147196E+03  0.7546771E-02  0.1252339E+00
         21   -1    0    0  501  502  0.00000000000E+00  0.00000000000E+00  0.30097995262E+02  0.30097995262E+02  0.00000000000E+00 0.  1.
         -1   -1    0    0    0  501 -0.00000000000E+00 -0.00000000000E+00 -0.89645866987E+03  0.89645866987E+03  0.00000000000E+00 0.  1.
         23    2    1    2    0    0  0.33309374808E+01  0.40879913007E+02 -0.30955975531E+03  0.32512858318E+03  0.90548832462E+02 0.  0.
         23    2    1    2    0    0 -0.25534873260E+02 -0.10377647373E+03 -0.47772710682E+03  0.49797925434E+03  0.91315731978E+02 0.  0.
        -11    1    4    4    0    0 -0.48307095821E+02 -0.94320861852E+02 -0.44228800031E+03  0.45480619576E+03  0.00000000000E+00 0.  1.
         11    1    4    4    0    0  0.22772222560E+02 -0.94556118813E+01 -0.35439106514E+02  0.43173058577E+02  0.00000000000E+00 0. -1.
        -13    1    3    3    0    0 -0.29539870225E+02 -0.94035400731E+01 -0.17559867960E+03  0.17831412388E+03  0.00000000000E+00 0.  1.
         13    1    3    3    0    0  0.32870807706E+02  0.50283453080E+02 -0.13396107571E+03  0.14681445930E+03  0.00000000000E+00 0. -1.
         -1    1    1    2    0  502  0.22203935780E+02  0.62896560727E+02 -0.79073812476E+02  0.10344882761E+03  0.00000000000E+00 0.  1.
<scales pt_clust_5="13000.00000" pt_clust_6="13000.00000" pt_clust_7="13000.00000" pt_clust_8="13000.00000" pt_clust_9="66.70077"></scales>
<clustering>
<clus scale="   66.701">  1  9  2 -1</clus>
<clus scale="   90.549">  7  8 -1 -1</clus>
<clus scale="   91.316">  5  6 -1 -1</clus>
<clus scale="  114.110">  2  7  1 -1</clus>
<clus scale="   66.701">  1  5  2 -1</clus>
</clustering>
</event>
<event>
 9    1  0.1636528E-005  0.1360990E+03  0.7546771E-02  0.1236364E+00
         21   -1    0    0  501  502  0.00000000000E+00  0.00000000000E+00  0.48513502521E+02  0.48513502521E+02  0.00000000000E+00 0.  1.
         -3   -1    0    0    0  501 -0.00000000000E+00 -0.00000000000E+00 -0.57620669272E+03  0.57620669272E+03  0.00000000000E+00 0.  1.
         23    2    1    2    0    0  0.74746649148E+00  0.21614482021E+02 -0.15247286551E+03  0.17928445198E+03  0.91799757447E+02 0.  0.
         23    2    1    2    0    0 -0.14328256358E+02  0.88567018073E+02 -0.18561852859E+03  0.22572401871E+03  0.91911255291E+02 0.  0.
        -11    1    4    4    0    0 -0.38441904860E+02  0.79909938816E+02 -0.88497357342E+02  0.12528032817E+03  0.00000000000E+00 0.  1.
         11    1    4    4    0    0  0.24113648502E+02  0.86570792565E+01 -0.97121171245E+02  0.10044369054E+03  0.00000000000E+00 0. -1.
        -11    1    3    3    0    0  0.93023778220E+01  0.54370157820E+02 -0.63634066226E+02  0.84213672756E+02  0.00000000000E+00 0.  1.
         11    1    3    3    0    0 -0.85549113305E+01 -0.32755675799E+02 -0.88838799281E+02  0.95070779226E+02  0.00000000000E+00 0. -1.
         -3    1    1    2    0  502  0.13580789866E+02 -0.11018150009E+03 -0.18960179610E+03  0.21971172454E+03  0.00000000000E+00 0.  1.
<scales pt_clust_5="13000.00000" pt_clust_6="13000.00000" pt_clust_7="13000.00000" pt_clust_8="13000.00000" pt_clust_9="100.37563"></scales>
<clustering>
<clus scale="   91.800">  7  8 -1 -1</clus>
<clus scale="   91.911">  5  6 -1 -1</clus>
<clus scale="   94.313">  2  7  1 -1</clus>
<clus scale="  100.376">  1  9  2 -1</clus>
<clus scale="  100.376">  1  5  2 -1</clus>
</clustering>
</event>
<event>
 9    1  0.1636528E-005  0.1995973E+03  0.7546771E-02  0.1169850E+00
         21   -1    0    0  501  502  0.00000000000E+00  0.00000000000E+00  0.10077986855E+04  0.10077986855E+04  0.00000000000E+00 0.  1.
         -1   -1    0    0    0  501 -0.00000000000E+00 -0.00000000000E+00 -0.10158141143E+03  0.10158141143E+03  0.00000000000E+00 0.  1.
         23    2    1    2    0    0 -0.73081055147E+02 -0.46918210115E+02  0.12814153884E+03  0.17968768478E+03  0.91242813551E+02 0.  0.
         23    2    1    2    0    0  0.45273512246E+02  0.21664445415E+03  0.15917976129E+03  0.28734322058E+03  0.90793279415E+02 0.  0.
        -11    1    3    3    0    0  0.21306320954E+02 -0.15580195838E+02  0.23790625429E+02  0.35534429407E+02  0.00000000000E+00 0. -1.
         11    1    3    3    0    0 -0.94387376101E+02 -0.31338014277E+02  0.10435091341E+03  0.14415325537E+03  0.00000000000E+00 0.  1.
        -11    1    4    4    0    0 -0.43954003548E+01  0.13867988261E+03  0.13069811284E+03  0.19061328937E+03  0.00000000000E+00 0.  1.
         11    1    4    4    0    0  0.49668912601E+02  0.77964571541E+02  0.28481648452E+02  0.96729931216E+02  0.00000000000E+00 0. -1.
         -1    1    1    2    0  502  0.27807542901E+02 -0.16972624403E+03  0.61889597398E+03  0.64234919161E+03  0.00000000000E+00 0.  1.
<scales pt_clust_5="13000.00000" pt_clust_6="13000.00000" pt_clust_7="13000.00000" pt_clust_8="13000.00000" pt_clust_9="177.75164"></scales>
<clustering>
<clus scale="   90.793">  7  8 -1 -1</clus>
<clus scale="   91.243">  5  6 -1 -1</clus>
<clus scale="  125.966">  2  5  1 -1</clus>
<clus scale="  177.752">  1  9  2 -1</clus>
<clus scale="  177.752">  1  5  2 -1</clus>
</clustering>
</event>
<event>
 9    1  0.2863737E-005  0.1766574E+03  0.7546771E-02  0.1171575E+00
         21   -1    0    0  501  502  0.00000000000E+00  0.00000000000E+00  0.18846647875E+03  0.18846647875E+03  0.00000000000E+00 0.  1.
         -1   -1    0    0    0  501 -0.00000000000E+00 -0.00000000000E+00 -0.61988189855E+03  0.61988189855E+03  0.00000000000E+00 0.  1.
         23    2    1    2    0    0  0.45283045397E+02 -0.15613263642E+03 -0.54340938397E+03  0.57464584173E+03  0.92174456705E+02 0.  0.
         23    2    1    2    0    0 -0.35462549687E+02  0.75130604569E+02  0.49605586390E+02  0.13098894844E+03  0.88290374561E+02 0.  0.
        -11    1    3    3    0    0  0.31316051637E+01 -0.12890147738E+03 -0.45575151055E+03  0.47363998690E+03  0.00000000000E+00 0.  1.
         11    1    3    3    0    0  0.42151440233E+02 -0.27231159033E+02 -0.87657873420E+02  0.10100585482E+03  0.00000000000E+00 0. -1.
        -11    1    4    4    0    0 -0.52604926546E+02  0.10331510538E+02  0.28510425953E+02  0.60719542118E+02  0.00000000000E+00 0. -1.
         11    1    4    4    0    0  0.17142376859E+02  0.64799094031E+02  0.21095160437E+02  0.70269406326E+02  0.00000000000E+00 0.  1.
         -1    1    1    2    0  502 -0.98204957094E+01  0.81002031846E+02  0.62388377783E+02  0.10271358713E+03  0.00000000000E+00 0.  1.
<scales pt_clust_5="13000.00000" pt_clust_6="13000.00000" pt_clust_7="13000.00000" pt_clust_8="13000.00000" pt_clust_9="81.59517"></scales>
<clustering>
<clus scale="   81.595">  1  9  2 -1</clus>
<clus scale="   88.290">  7  8 -1 -1</clus>
<clus scale="   92.174">  5  6 -1 -1</clus>
<clus scale="  174.662">  1  7  2 -1</clus>
<clus scale="   81.595">  1  5  2 -1</clus>
</clustering>
</event>
<event>
 9    1  0.1636528E-005  0.1476059E+03  0.7546771E-02  0.1204875E+00
         -3   -1    0    0    0  501 -0.00000000000E+00  0.00000000000E+00  0.12630349407E+03  0.12630349407E+03  0.00000000000E+00 0.  1.
         21   -1    0    0  501  502  0.00000000000E+00 -0.00000000000E+00 -0.35773157237E+03  0.35773157237E+03  0.00000000000E+00 0.  1.
         23    2    1    2    0    0 -0.99557533450E+02  0.52514093888E+02  0.31601433712E+02  0.14849916521E+03  0.91563742448E+02 0.  0.
         23    2    1    2    0    0  0.11211454810E+03  0.99600317689E+00 -0.15999349581E+03  0.21875649491E+03  0.98416570998E+02 0.  0.
        -11    1    4    4    0    0  0.10822363692E+03  0.35133190754E+02 -0.13322425735E+03  0.17520102576E+03  0.00000000000E+00 0.  1.
         11    1    4    4    0    0  0.38909111815E+01 -0.34137187577E+02 -0.26769238458E+02  0.43555469153E+02  0.00000000000E+00 0. -1.
        -13    1    3    3    0    0 -0.16509409345E-01  0.22099706264E+02  0.38279944259E+02  0.44201260412E+02  0.00000000000E+00 0. -1.
         13    1    3    3    0    0 -0.99541024041E+02  0.30414387624E+02 -0.66785105470E+01  0.10429790480E+03  0.00000000000E+00 0.  1.
         -3    1    1    2    0  502 -0.12557014652E+02 -0.53510097065E+02 -0.10303601621E+03  0.11677940632E+03  0.00000000000E+00 0.  1.
<scales pt_clust_5="13000.00000" pt_clust_6="13000.00000" pt_clust_7="13000.00000" pt_clust_8="13000.00000" pt_clust_9="54.96371"></scales>
<clustering>
<clus scale="   54.964">  2  9  1 -1</clus>
<clus scale="   91.564">  7  8 -1 -1</clus>
<clus scale="   98.417">  5  6 -1 -1</clus>
<clus scale="  143.128">  1  7  2 -1</clus>
<clus scale="   54.964">  2  5  1 -1</clus>
</clustering>
</event>
<event>
 9    1  0.1636528E-005  0.1109975E+03  0.7546771E-02  0.1259323E+00
         21   -1    0    0  501  502  0.00000000000E+00  0.00000000000E+00  0.17549085192E+03  0.17549085192E+03  0.00000000000E+00 0.  1.
          1   -1    0    0  502    0 -0.00000000000E+00 -0.00000000000E+00 -0.13431065489E+03  0.13431065489E+03  0.00000000000E+00 0. -1.
         23    2    1    2    0    0 -0.63934775353E+02  0.14539086764E+02 -0.65101820459E+02  0.13123300228E+03  0.93192345801E+02 0.  0.
         23    2    1    2    0    0  0.36136659411E+02 -0.18237413569E+02  0.11164429026E+03  0.15001737775E+03  0.91664086060E+02 0.  0.
        -13    1    3    3    0    0 -0.11312268195E+02  0.29852057216E+02 -0.69267252404E+02  0.76269685901E+02  0.00000000000E+00 0. -1.
         13    1    3    3    0    0 -0.52622507158E+02 -0.15312970452E+02  0.41654319456E+01  0.54963316375E+02  0.00000000000E+00 0.  1.
        -13    1    4    4    0    0  0.26411025052E+02 -0.54283566800E+02  0.52125468601E+02  0.79757835639E+02  0.00000000000E+00 0.  1.
         13    1    4    4    0    0  0.97256343588E+01  0.36046153231E+02  0.59518821658E+02  0.70259542114E+02  0.00000000000E+00 0. -1.
          1    1    1    2  501    0  0.27798115942E+02  0.36983268051E+01 -0.53622727783E+01  0.28551126781E+02  0.00000000000E+00 0. -1.
<scales pt_clust_5="13000.00000" pt_clust_6="13000.00000" pt_clust_7="13000.00000" pt_clust_8="13000.00000" pt_clust_9="28.04307"></scales>
<clustering>
<clus scale="   28.043">  1  9  2 -1</clus>
<clus scale="   91.664">  7  8 -1 -1</clus>
<clus scale="   93.192">  5  6 -1 -1</clus>
<clus scale="  109.718">  1  7  2 -1</clus>
<clus scale="   28.043">  1  5  2 -1</clus>
</clustering>
</event>
<event>
 9    1  0.1636528E-005  0.4684259E+03  0.7546771E-02  0.1048932E+00
         21   -1    0    0  501  502  0.00000000000E+00  0.00000000000E+00  0.58264550604E+03  0.58264550604E+03  0.00000000000E+00 0. -1.
          1   -1    0    0  502    0 -0.00000000000E+00 -0.00000000000E+00 -0.75533664263E+03  0.75533664263E+03  0.00000000000E+00 0. -1.
         23    2    1    2    0    0  0.18718002696E+03  0.48237327132E+02 -0.31543375538E+03  0.38162179035E+03  0.93667148005E+02 0.  0.
         23    2    1    2    0    0  0.15422149248E+03  0.35907519125E+03 -0.81442348906E+01  0.40388834299E+03  0.10168679032E+03 0.  0.
        -11    1    3    3    0    0  0.12576854393E+03  0.74643893851E+02 -0.19332941843E+03  0.24241638055E+03  0.00000000000E+00 0.  1.
         11    1    3    3    0    0  0.61411483033E+02 -0.26406566719E+02 -0.12210433696E+03  0.13920540980E+03  0.00000000000E+00 0. -1.
        -11    1    4    4    0    0 -0.87333047911E+01  0.38579072988E+02  0.17869478881E+02  0.43404305785E+02  0.00000000000E+00 0.  1.
         11    1    4    4    0    0  0.16295479727E+03  0.32049611826E+03 -0.26013713772E+02  0.36048403720E+03  0.00000000000E+00 0. -1.
          1    1    1    2  501    0 -0.34140151944E+03 -0.40731251838E+03  0.15088685368E+03  0.55247201533E+03  0.00000000000E+00 0. -1.
<scales pt_clust_5="13000.00000" pt_clust_6="13000.00000" pt_clust_7="13000.00000" pt_clust_8="13000.00000" pt_clust_9="457.25549"></scales>
<clustering>
<clus scale="   93.667">  5  6 -1 -1</clus>
<clus scale="  101.687">  7  8 -1 -1</clus>
<clus scale="  214.795">  2  5  1 -1</clus>
<clus scale="  457.255">  1  9  2 -1</clus>
<clus scale="  457.255">  1  5  2 -1</clus>
</clustering>
</event>
<event>
 9    1  0.1636528E-005  0.9946575E+02  0.7546771E-02  0.1282222E+00
         21   -1    0    0  501  502  0.00000000000E+00  0.00000000000E+00  0.24084407956E+03  0.24084407956E+03  0.00000000000E+00 0.  1.
         -1   -1    0    0    0  501 -0.00000000000E+00 -0.00000000000E+00 -0.24671214037E+03  0.24671214037E+03  0.00000000000E+00 0.  1.
         23    2    1    2    0    0  0.24943624110E+01 -0.32199731089E+02 -0.19032791626E+03  0.21472869794E+03  0.94024749311E+02 0.  0.
         23    2    1    2    0    0 -0.25294355981E+02  0.29887426594E+02  0.14622736133E+02  0.10145122970E+03  0.92441683690E+02 0.  0.
        -11    1    4    4    0    0 -0.59012033234E+02  0.20907760447E+02  0.20890674834E+02  0.65999809154E+02  0.00000000000E+00 0. -1.
         11    1    4    4    0    0  0.33717677253E+02  0.89796661469E+01 -0.62679387010E+01  0.35451420550E+02  0.00000000000E+00 0.  1.
        -11    1    3    3    0    0  0.15315665755E+02 -0.57995731537E+02 -0.16767716747E+03  0.17808342704E+03  0.00000000000E+00 0.  1.
         11    1    3    3    0    0 -0.12821303344E+02  0.25796000448E+02 -0.22650748791E+02  0.36645270900E+02  0.00000000000E+00 0. -1.
         -1    1    1    2    0  502  0.22799993570E+02  0.23123044949E+01  0.16983711933E+03  0.17137629229E+03  0.00000000000E+00 0.  1.
<scales pt_clust_5="13000.00000" pt_clust_6="13000.00000" pt_clust_7="13000.00000" pt_clust_8="13000.00000" pt_clust_9="22.91695"></scales>
<clustering>
<clus scale="   22.917">  1  9  2 -1</clus>
<clus scale="   92.442">  5  6 -1 -1</clus>
<clus scale="   94.025">  7  8 -1 -1</clus>
<clus scale="   97.971">  1  5  2 -1</clus>
<clus scale="   22.917">  1  5  2 -1</clus>
</clustering>
</event>
<event>
 9    1  0.1636528E-005  0.1240659E+03  0.7546771E-02  0.1237529E+00
         -2   -1    0    0    0  501 -0.00000000000E+00  0.00000000000E+00  0.33530697177E+03  0.33530697177E+03  0.00000000000E+00 0.  1.
         21   -1    0    0  501  502  0.00000000000E+00 -0.00000000000E+00 -0.74877268117E+02  0.74877268117E+02  0.00000000000E+00 0. -1.
         23    2    1    2    0    0  0.67526017406E+02 -0.28045201554E+02  0.21447522727E+03  0.24500678509E+03  0.93179425148E+02 0.  0.
         23    2    1    2    0    0 -0.89749724114E+02  0.27488606664E+02  0.47989527100E+02  0.14285382676E+03  0.96403239745E+02 0.  0.
        -11    1    3    3    0    0  0.94146730572E+01 -0.53919942203E+02  0.94301677406E+02  0.10903578586E+03  0.00000000000E+00 0.  1.
         11    1    3    3    0    0  0.58111344349E+02  0.25874740648E+02  0.12017354986E+03  0.13597099923E+03  0.00000000000E+00 0. -1.
        -13    1    4    4    0    0 -0.18756493836E+01  0.29992742432E+02 -0.16071638351E+02  0.34079029013E+02  0.00000000000E+00 0. -1.
         13    1    4    4    0    0 -0.87874074730E+02 -0.25041357679E+01  0.64061165451E+02  0.10877479775E+03  0.00000000000E+00 0.  1.
         -2    1    1    2    0  502  0.22223706708E+02  0.55659489025E+00 -0.20350507090E+01  0.22323628045E+02  0.00000000000E+00 0.  1.
<scales pt_clust_5="13000.00000" pt_clust_6="13000.00000" pt_clust_7="13000.00000" pt_clust_8="13000.00000" pt_clust_9="22.23068"></scales>
<clustering>
<clus scale="   22.231">  2  9  1 -1</clus>
<clus scale="   93.179">  5  6 -1 -1</clus>
<clus scale="   96.403">  7  8 -1 -1</clus>
<clus scale="  121.578">  1  5  2 -1</clus>
<clus scale="   22.231">  2  5  1 -1</clus>
</clustering>
</event>
<event>
 9    1  0.1636528E-005  0.3538402E+03  0.7546771E-02  0.1061089E+00
         21   -1    0    0  501  502  0.00000000000E+00  0.00000000000E+00  0.11919384612E+03  0.11919384612E+03  0.00000000000E+00 0. -1.
          2   -1    0    0  502    0 -0.00000000000E+00 -0.00000000000E+00 -0.14442407916E+04  0.14442407916E+04  0.00000000000E+00 0. -1.
         23    2    1    2    0    0  0.22778508541E+03  0.26666767037E+03 -0.94828932085E+03  0.10156600516E+04  0.96514314407E+02 0.  0.
         23    2    1    2    0    0 -0.24328095331E+03 -0.20799912476E+03 -0.29222521105E+03  0.44371763479E+03  0.95081582356E+02 0.  0.
        -11    1    4    4    0    0 -0.10628802520E+03 -0.14731920831E+03 -0.18643357683E+03  0.26030284672E+03  0.00000000000E+00 0. -1.
         11    1    4    4    0    0 -0.13699292811E+03 -0.60679916450E+02 -0.10579163422E+03  0.18341478807E+03  0.00000000000E+00 0.  1.
        -13    1    3    3    0    0  0.18093924638E+03  0.19127334346E+03 -0.80638360311E+03  0.84828003523E+03  0.00000000000E+00 0. -1.
         13    1    3    3    0    0  0.46845839029E+02  0.75394326907E+02 -0.14190571774E+03  0.16738001640E+03  0.00000000000E+00 0.  1.
          2    1    1    2  501    0  0.15495867903E+02 -0.58668545604E+02 -0.84532413530E+02  0.10405695125E+03  0.00000000000E+00 0. -1.
<scales pt_clust_5="13000.00000" pt_clust_6="13000.00000" pt_clust_7="13000.00000" pt_clust_8="13000.00000" pt_clust_9="60.68048"></scales>
<clustering>
<clus scale="   60.680">  1  9  2 -1</clus>
<clus scale="   95.082">  5  6 -1 -1</clus>
<clus scale="   96.514">  7  8 -1 -1</clus>
<clus scale="  353.452">  1  5  2 -1</clus>
<clus scale="   60.680">  1  5  2 -1</clus>
</clustering>
</event>
<event>
 9    1  0.1636528E-005  0.1123956E+03  0.7546771E-02  0.1257151E+00
         -1   -1    0    0    0  501 -0.00000000000E+00  0.00000000000E+00  0.40540200945E+03  0.40540200945E+03  0.00000000000E+00 0.  1.
         21   -1    0    0  501  502  0.00000000000E+00 -0.00000000000E+00 -0.62742073316E+02  0.62742073316E+02  0.00000000000E+00 0. -1.
         23    2    1    2    0    0  0.12928776291E+02  0.82791748309E+02  0.22161472974E+03  0.25499865646E+03  0.94284672744E+02 0.  0.
         23    2    1    2    0    0  0.21683205871E+02 -0.36738479601E+02  0.11800199917E+03  0.15545527136E+03  0.91771413218E+02 0.  0.
        -13    1    3    3    0    0 -0.57953238590E+01  0.49857868380E+02  0.20919192467E+03  0.21512938936E+03  0.00000000000E+00 0.  1.
         13    1    3    3    0    0  0.18724100150E+02  0.32933879929E+02  0.12422805071E+02  0.39869267104E+02  0.00000000000E+00 0. -1.
        -13    1    4    4    0    0  0.39355864408E+02 -0.58754459215E+02  0.98021552408E+02  0.12086850408E+03  0.00000000000E+00 0.  1.
         13    1    4    4    0    0 -0.17672658537E+02  0.22015979614E+02  0.19980446765E+02  0.34586767283E+02  0.00000000000E+00 0. -1.
         -1    1    1    2    0  502 -0.34611982162E+02 -0.46053268708E+02  0.30432072230E+01  0.57690154949E+02  0.00000000000E+00 0.  1.
<scales pt_clust_5="13000.00000" pt_clust_6="13000.00000" pt_clust_7="13000.00000" pt_clust_8="13000.00000" pt_clust_9="57.60983"></scales>
<clustering>
<clus scale="   57.610">  2  9  1 -1</clus>
<clus scale="   91.771">  7  8 -1 -1</clus>
<clus scale="   94.285">  5  6 -1 -1</clus>
<clus scale="  110.296">  2  7  1 -1</clus>
<clus scale="   57.610">  2  5  1 -1</clus>
</clustering>
</event>
<event>
 9    1  0.1636528E-005  0.3962086E+03  0.7546771E-02  0.1045126E+00
         21   -1    0    0  501  502  0.00000000000E+00  0.00000000000E+00  0.70399732762E+03  0.70399732762E+03  0.00000000000E+00 0.  1.
          1   -1    0    0  502    0 -0.00000000000E+00 -0.00000000000E+00 -0.35329135824E+03  0.35329135824E+03  0.00000000000E+00 0. -1.
         23    2    1    2    0    0 -0.29951402590E+03 -0.22065392869E+03 -0.48549643145E+02  0.38597642149E+03  0.90685843091E+02 0.  0.
         23    2    1    2    0    0  0.31689220931E+03  0.28650369044E+03  0.41363598989E+03  0.60170631898E+03  0.91927826076E+02 0.  0.
        -13    1    3    3    0    0 -0.52946712178E+02 -0.83787105793E+02 -0.29107685495E+02  0.10330000379E+03  0.00000000000E+00 0.  1.
         13    1    3    3    0    0 -0.24656731372E+03 -0.13686682290E+03 -0.19441957651E+02  0.28267641770E+03  0.00000000000E+00 0. -1.
        -13    1    4    4    0    0  0.69521476920E+02  0.53842366050E+02  0.14118512532E+03  0.16632941937E+03  0.00000000000E+00 0. -1.
         13    1    4    4    0    0  0.24737073239E+03  0.23266132439E+03  0.27245086457E+03  0.43537689961E+03  0.00000000000E+00 0.  1.
          1    1    1    2  501    0 -0.17378183406E+02 -0.65849761752E+02 -0.14380377376E+02  0.69605945398E+02  0.00000000000E+00 0. -1.
<scales pt_clust_5="13000.00000" pt_clust_6="13000.00000" pt_clust_7="13000.00000" pt_clust_8="13000.00000" pt_clust_9="68.10431"></scales>
<clustering>
<clus scale="   68.104">  1  9  2 -1</clus>
<clus scale="   90.686">  5  6 -1 -1</clus>
<clus scale="   91.928">  7  8 -1 -1</clus>
<clus scale="  395.922">  2  5  1 -1</clus>
<clus scale="   68.104">  1  5  2 -1</clus>
</clustering>
</event>
<event>
 9    1  0.1636528E-005  0.9122119E+02  0.7546771E-02  0.1299980E+00
          2   -1    0    0  502    0 -0.00000000000E+00  0.00000000000E+00  0.43355864952E+03  0.43355864952E+03  0.00000000000E+00 0. -1.
         21   -1    0    0  501  502  0.00000000000E+00 -0.00000000000E+00 -0.37794369191E+02  0.37794369191E+02  0.00000000000E+00 0. -1.
         23    2    1    2    0    0  0.18010599613E+02  0.49698723915E+01  0.24205119471E+03  0.25928455551E+03  0.91052833768E+02 0.  0.
         23    2    1    2    0    0  0.25325955948E+02  0.18608877386E+02  0.92860218004E+02  0.13372890751E+03  0.90954418543E+02 0.  0.
        -11    1    3    3    0    0  0.35495931845E+02 -0.32607349578E+02  0.95337598457E+02  0.10682910701E+03  0.00000000000E+00 0.  1.
         11    1    3    3    0    0 -0.17485332232E+02  0.37577221970E+02  0.14671359625E+03  0.15245544851E+03  0.00000000000E+00 0. -1.
        -11    1    4    4    0    0  0.22101895246E+02 -0.35456778935E+02  0.35348575302E+02  0.54728408727E+02  0.00000000000E+00 0.  1.
         11    1    4    4    0    0  0.32240607011E+01  0.54065656321E+02  0.57511642702E+02  0.79000498778E+02  0.00000000000E+00 0. -1.
          2    1    1    2  501    0 -0.43336555561E+02 -0.23578749778E+02  0.60852867611E+02  0.78339555689E+02  0.00000000000E+00 0. -1.
<scales pt_clust_5="13000.00000" pt_clust_6="13000.00000" pt_clust_7="13000.00000" pt_clust_8="13000.00000" pt_clust_9="49.33573"></scales>
<clustering>
<clus scale="   49.336">  2  9  1 -1</clus>
<clus scale="   90.954">  7  8 -1 -1</clus>
<clus scale="   91.053">  5  6 -1 -1</clus>
<clus scale="   91.123">  2  7  1 -1</clus>
<clus scale="   49.336">  2  5  1 -1</clus>
</clustering>
</event>
<event>
 9    1  0.1636528E-005  0.2710863E+03  0.7546771E-02  0.1100708E+00
          4   -1    0    0  502    0 -0.00000000000E+00  0.00000000000E+00  0.12671316562E+03  0.12671316562E+03  0.00000000000E+00 0. -1.
         21   -1    0    0  501  502  0.00000000000E+00 -0.00000000000E+00 -0.79255332015E+03  0.79255332015E+03  0.00000000000E+00 0.  1.
         23    2    1    2    0    0  0.11632313510E+03 -0.24643909719E+03 -0.24329341675E+03  0.37600821259E+03  0.89034762443E+02 0.  0.
         23    2    1    2    0    0 -0.47688848666E+02  0.23770418253E+03 -0.26060879160E+03  0.36715926004E+03  0.90063729097E+02 0.  0.
        -11    1    3    3    0    0  0.22599703589E+02 -0.15177232837E+03 -0.13291939220E+03  0.20301022409E+03  0.00000000000E+00 0. -1.
         11    1    3    3    0    0  0.93723431512E+02 -0.94666768820E+02 -0.11037402455E+03  0.17299798851E+03  0.00000000000E+00 0.  1.
        -11    1    4    4    0    0 -0.19081326602E+02  0.11742899706E+03 -0.19171535062E+03  0.22562899202E+03  0.00000000000E+00 0.  1.
         11    1    4    4    0    0 -0.28607522064E+02  0.12027518547E+03 -0.68893440979E+02  0.14153026803E+03  0.00000000000E+00 0. -1.
          4    1    1    2  501    0 -0.68634286435E+02  0.87349146593E+01 -0.16193794619E+03  0.17609901313E+03  0.00000000000E+00 0. -1.
<scales pt_clust_5="13000.00000" pt_clust_6="13000.00000" pt_clust_7="13000.00000" pt_clust_8="13000.00000" pt_clust_9="69.18789"></scales>
<clustering>
<clus scale="   69.188">  2  9  1 -1</clus>
<clus scale="   89.035">  5  6 -1 -1</clus>
<clus scale="   90.064">  7  8 -1 -1</clus>
<clus scale="  270.746">  1  5  2 -1</clus>
<clus scale="   69.188">  2  5  1 -1</clus>
</clustering>
</event>
<event>
 9    1  0.1636528E-005  0.1590482E+03  0.7546771E-02  0.1189876E+00
          3   -1    0    0  502    0 -0.00000000000E+00  0.00000000000E+00  0.85785530807E+02  0.85785530807E+02  0.00000000000E+00 0. -1.
         21   -1    0    0  501  502  0.00000000000E+00 -0.00000000000E+00 -0.41337375007E+03  0.41337375007E+03  0.00000000000E+00 0. -1.
         23    2    1    2    0    0  0.10781216032E+03  0.74929023598E+02 -0.10774666955E+03  0.19288268144E+03  0.91414241302E+02 0.  0.
         23    2    1    2    0    0 -0.13104572298E+03 -0.29389109156E+02 -0.16844067053E+03  0.23378016765E+03  0.90797610361E+02 0.  0.
        -11    1    3    3    0    0  0.54741165224E+02 -0.12585714962E+02 -0.26002142879E+02  0.61895935452E+02  0.00000000000E+00 0.  1.
         11    1    3    3    0    0  0.53070995095E+02  0.87514738560E+02 -0.81744526668E+02  0.13098674599E+03  0.00000000000E+00 0. -1.
        -13    1    4    4    0    0 -0.89929903522E+02 -0.24159469982E+02 -0.44717475770E+02  0.10329917801E+03  0.00000000000E+00 0. -1.
         13    1    4    4    0    0 -0.41115819456E+02 -0.52296391741E+01 -0.12372319476E+03  0.13048098964E+03  0.00000000000E+00 0.  1.
          3    1    1    2  501    0  0.23233562658E+02 -0.45539914442E+02 -0.51400879183E+02  0.72496431788E+02  0.00000000000E+00 0. -1.
<scales pt_clust_5="13000.00000" pt_clust_6="13000.00000" pt_clust_7="13000.00000" pt_clust_8="13000.00000" pt_clust_9="51.12418"></scales>
<clustering>
<clus scale="   51.124">  2  9  1 -1</clus>
<clus scale="   90.798">  7  8 -1 -1</clus>
<clus scale="   91.414">  5  6 -1 -1</clus>
<clus scale="  158.695">  2  7  1 -1</clus>
<clus scale="   51.124">  2  5  1 -1</clus>
</clustering>
</event>
<event>
 9    1  0.1636528E-005  0.1192900E+03  0.7546771E-02  0.1256344E+00
          4   -1    0    0  502    0 -0.00000000000E+00  0.00000000000E+00  0.76655963866E+03  0.76655963866E+03  0.00000000000E+00 0. -1.
         21   -1    0    0  501  502  0.00000000000E+00 -0.00000000000E+00 -0.65067312185E+02  0.65067312185E+02  0.00000000000E+00 0. -1.
         23    2    1    2    0    0  0.54752888936E+02 -0.13403617691E+02  0.42974281011E+03  0.44718140320E+03  0.11006720090E+03 0.  0.
         23    2    1    2    0    0  0.17497720224E+02  0.73125742907E+02  0.26926952529E+03  0.29067437340E+03  0.79573674107E+02 0.  0.
        -11    1    4    4    0    0 -0.14363861103E+02  0.62906344842E+02  0.10666909470E+03  0.12466685402E+03  0.00000000000E+00 0.  1.
         11    1    4    4    0    0  0.31861581327E+02  0.10219398065E+02  0.16260043059E+03  0.16600751938E+03  0.00000000000E+00 0. -1.
        -13    1    3    3    0    0  0.68237555351E+02 -0.35903701520E+02  0.40067781869E+03  0.40802959958E+03  0.00000000000E+00 0. -1.
         13    1    3    3    0    0 -0.13484666415E+02  0.22500083829E+02  0.29064991418E+02  0.39151803621E+02  0.00000000000E+00 0.  1.
          4    1    1    2  501    0 -0.72250609160E+02 -0.59722125215E+02  0.24799910775E+01  0.93771174249E+02  0.00000000000E+00 0. -1.
<scales pt_clust_5="13000.00000" pt_clust_6="13000.00000" pt_clust_7="13000.00000" pt_clust_8="13000.00000" pt_clust_9="93.73837"></scales>
<clustering>
<clus scale="   79.574">  5  6 -1 -1</clus>
<clus scale="   93.738">  2  9  1 -1</clus>
<clus scale="   93.738">  2  5  1 -1</clus>
<clus scale="  110.067">  7  8 -1 -1</clus>
<clus scale="   93.738">  2  5  1 -1</clus>
</clustering>
</event>
<event>
 9    1  0.1997354E-005  0.2400033E+03  0.7546771E-02  0.1132204E+00
          2   -1    0    0  502    0 -0.00000000000E+00  0.00000000000E+00  0.12458537539E+04  0.12458537539E+04  0.00000000000E+00 0. -1.
         21   -1    0    0  501  502  0.00000000000E+00 -0.00000000000E+00 -0.15240242949E+03  0.15240242949E+03  0.00000000000E+00 0. -1.
         23    2    1    2    0    0 -0.14117716649E+03  0.54312382872E+02  0.12821471669E+03  0.21818769178E+03  0.91027622162E+02 0.  0.
         23    2    1    2    0    0  0.22362594065E+03 -0.24396293356E+03  0.89968415502E+03  0.96313012298E+03  0.93067613656E+02 0.  0.
        -11    1    3    3    0    0 -0.11324858690E+03  0.36643520592E+02  0.13939427710E+03  0.18329963045E+03  0.00000000000E+00 0.  1.
         11    1    3    3    0    0 -0.27928579586E+02  0.17668862281E+02 -0.11179560409E+02  0.34888061324E+02  0.00000000000E+00 0. -1.
        -13    1    4    4    0    0  0.12185141126E+02 -0.18099942453E+02  0.16597312199E+02  0.27414528142E+02  0.00000000000E+00 0.  1.
         13    1    4    4    0    0  0.21144079952E+03 -0.22586299111E+03  0.88308684282E+03  0.93571559484E+03  0.00000000000E+00 0. -1.
          2    1    1    2  501    0 -0.82448774159E+02  0.18965055069E+03  0.65552452727E+02  0.21693836866E+03  0.00000000000E+00 0. -1.
<scales pt_clust_5="13000.00000" pt_clust_6="13000.00000" pt_clust_7="13000.00000" pt_clust_8="13000.00000" pt_clust_9="221.22386"></scales>
<clustering>
<clus scale="   91.028">  5  6 -1 -1</clus>
<clus scale="   93.068">  7  8 -1 -1</clus>
<clus scale="  176.541">  1  5  2 -1</clus>
<clus scale="  221.224">  2  9  1 -1</clus>
<clus scale="  221.224">  2  5  1 -1</clus>
</clustering>
</event>
<event>
 9    1  0.1636528E-005  0.9799025E+02  0.7546771E-02  0.1287014E+00
          1   -1    0    0  502    0 -0.00000000000E+00  0.00000000000E+00  0.65589860265E+03  0.65589860265E+03  0.00000000000E+00 0. -1.
         21   -1    0    0  501  502  0.00000000000E+00 -0.00000000000E+00 -0.25599831198E+02  0.25599831198E+02  0.00000000000E+00 0. -1.
         23    2    1    2    0    0 -0.35784324727E+02  0.71614150174E+01  0.40458847750E+03  0.41730014940E+03  0.95476566764E+02 0.  0.
         23    2    1    2    0    0 -0.43089445559E+01 -0.84848895375E+01  0.18835361620E+03  0.20938274652E+03  0.90958723874E+02 0.  0.
        -13    1    3    3    0    0  0.31562677983E+02  0.58696118964E+01  0.89271283487E+02  0.94868419618E+02  0.00000000000E+00 0.  1.
         13    1    3    3    0    0 -0.67347002710E+02  0.12918031210E+01  0.31531719401E+03  0.32243172978E+03  0.00000000000E+00 0. -1.
        -13    1    4    4    0    0  0.20615976239E+02 -0.28755448226E+02  0.16723307214E+03  0.17093505988E+03  0.00000000000E+00 0.  1.
         13    1    4    4    0    0 -0.24924920795E+02  0.20270558689E+02  0.21120544063E+02  0.38447686637E+02  0.00000000000E+00 0. -1.
          1    1    1    2  501    0  0.40093269282E+02  0.13234745201E+01  0.37356677755E+02  0.54815537938E+02  0.00000000000E+00 0. -1.
<scales pt_clust_5="13000.00000" pt_clust_6="13000.00000" pt_clust_7="13000.00000" pt_clust_8="13000.00000" pt_clust_9="40.11511"></scales>
<clustering>
<clus scale="   40.115">  2  9  1 -1</clus>
<clus scale="   90.959">  7  8 -1 -1</clus>
<clus scale="   93.594">  2  7  1 -1</clus>
<clus scale="   95.477">  5  6 -1 -1</clus>
<clus scale="   40.115">  2  5  1 -1</clus>
</clustering>
</event>
<event>
 9    1  0.1636528E-005  0.9057103E+02  0.7546771E-02  0.1301525E+00
          1   -1    0    0  502    0 -0.00000000000E+00  0.00000000000E+00  0.43215311310E+03  0.43215311310E+03  0.00000000000E+00 0. -1.
         21   -1    0    0  501  502  0.00000000000E+00 -0.00000000000E+00 -0.40944373087E+02  0.40944373087E+02  0.00000000000E+00 0.  1.
         23    2    1    2    0    0 -0.32367348876E+02 -0.30976384864E+01  0.20947864579E+03  0.23028904446E+03  0.89969441025E+02 0.  0.
         23    2    1    2    0    0 -0.15464284971E+02 -0.12976487426E+01  0.17055435975E+03  0.19349231063E+03  0.90053632013E+02 0.  0.
        -11    1    4    4    0    0 -0.20053641375E+02  0.42575287817E+02  0.81519064760E+02  0.94128431329E+02  0.00000000000E+00 0.  1.
         11    1    4    4    0    0  0.45893564034E+01 -0.43872936559E+02  0.89035294993E+02  0.99363879298E+02  0.00000000000E+00 0. -1.
        -13    1    3    3    0    0  0.21257511826E+02 -0.27915689892E+02  0.98447736170E+02  0.10451375177E+03  0.00000000000E+00 0. -1.
         13    1    3    3    0    0 -0.53624860703E+02  0.24818051406E+02  0.11103090962E+03  0.12577529269E+03  0.00000000000E+00 0.  1.
          1    1    1    2  501    0  0.47831633848E+02  0.43952872291E+01  0.11175734476E+02  0.49316131108E+02  0.00000000000E+00 0. -1.
<scales pt_clust_5="13000.00000" pt_clust_6="13000.00000" pt_clust_7="13000.00000" pt_clust_8="13000.00000" pt_clust_9="48.03315"></scales>
<clustering>
<clus scale="   48.033">  2  9  1 -1</clus>
<clus scale="   89.969">  7  8 -1 -1</clus>
<clus scale="   90.054">  5  6 -1 -1</clus>
<clus scale="   90.487">  1  7  2 -1</clus>
<clus scale="   48.033">  2  5  1 -1</clus>
</clustering>
</event>
<event>
 9    1  0.1636528E-005  0.1249822E+03  0.7546771E-02  0.1236289E+00
         21   -1    0    0  501  502  0.00000000000E+00  0.00000000000E+00  0.27166512540E+03  0.27166512540E+03  0.00000000000E+00 0.  1.
          2   -1    0    0  502    0 -0.00000000000E+00 -0.00000000000E+00 -0.11867624516E+03  0.11867624516E+03  0.00000000000E+00 0. -1.
         23    2    1    2    0    0 -0.51286257614E+02  0.10275025817E+03 -0.39710356047E+01  0.14444780302E+03  0.87530011427E+02 0.  0.
         23    2    1    2    0    0  0.44595157755E+02 -0.29719431936E+02  0.53041452839E+02  0.11870347613E+03  0.91679587680E+02 0.  0.
        -11    1    4    4    0    0  0.36216708167E+02 -0.51308351646E+02  0.66864743066E+02  0.91733803825E+02  0.00000000000E+00 0. -1.
         11    1    4    4    0    0  0.83784495877E+01  0.21588919710E+02 -0.13823290226E+02  0.26969672309E+02  0.00000000000E+00 0.  1.
        -13    1    3    3    0    0 -0.19133119354E+02  0.86181824412E+02 -0.36759387770E+02  0.95627588615E+02  0.00000000000E+00 0. -1.
         13    1    3    3    0    0 -0.32153138260E+02  0.16568433759E+02  0.32788352165E+02  0.48820214408E+02  0.00000000000E+00 0.  1.
          2    1    1    2  501    0  0.66910998598E+01 -0.73030826235E+02  0.10391846301E+03  0.12719009141E+03  0.00000000000E+00 0. -1.
<scales pt_clust_5="13000.00000" pt_clust_6="13000.00000" pt_clust_7="13000.00000" pt_clust_8="13000.00000" pt_clust_9="73.33671"></scales>
<clustering>
<clus scale="   73.337">  1  9  2 -1</clus>
<clus scale="   87.530">  7  8 -1 -1</clus>
<clus scale="   91.680">  5  6 -1 -1</clus>
<clus scale="  121.971">  2  7  1 -1</clus>
<clus scale="   73.337">  1  5  2 -1</clus>
</clustering>
</event>
<event>
 9    1  0.1636528E-005  0.1018474E+03  0.7546771E-02  0.1282541E+00
          1   -1    0    0  502    0 -0.00000000000E+00  0.00000000000E+00  0.30232031464E+03  0.30232031464E+03  0.00000000000E+00 0. -1.
         21   -1    0    0  501  502  0.00000000000E+00 -0.00000000000E+00 -0.22328392788E+03  0.22328392788E+03  0.00000000000E+00 0. -1.
         23    2    1    2    0    0  0.42828566853E+02 -0.23413068326E+02  0.26676047312E+03  0.28559852065E+03  0.89570681998E+02 0.  0.
         23    2    1    2    0    0 -0.23036815195E+02  0.49919151264E+02 -0.69328691927E+02  0.11707584232E+03  0.76665956028E+02 0.  0.
        -11    1    4    4    0    0  0.73650126958E+01  0.46872514945E+02 -0.72191396233E+02  0.86387926004E+02  0.00000000000E+00 0.  1.
         11    1    4    4    0    0 -0.30401827890E+02  0.30466363189E+01  0.28627043053E+01  0.30687916317E+02  0.00000000000E+00 0. -1.
        -13    1    3    3    0    0  0.65756787017E+02 -0.20069339386E+00  0.21083485678E+03  0.22085138023E+03  0.00000000000E+00 0.  1.
         13    1    3    3    0    0 -0.22928220164E+02 -0.23212374932E+02  0.55925616332E+02  0.64747140415E+02  0.00000000000E+00 0. -1.
          1    1    1    2  501    0 -0.19791751658E+02 -0.26506082938E+02 -0.11839539442E+03  0.12292987955E+03  0.00000000000E+00 0. -1.
<scales pt_clust_5="13000.00000" pt_clust_6="13000.00000" pt_clust_7="13000.00000" pt_clust_8="13000.00000" pt_clust_9="33.07999"></scales>
<clustering>
<clus scale="   33.080">  2  9  1 -1</clus>
<clus scale="   76.666">  5  6 -1 -1</clus>
<clus scale="   89.571">  7  8 -1 -1</clus>
<clus scale="   90.706">  2  5  1 -1</clus>
<clus scale="   33.080">  2  5  1 -1</clus>
</clustering>
</event>
<event>
 9    1  0.1636528E-005  0.1282575E+03  0.7546771E-02  0.1230375E+00
         21   -1    0    0  501  502  0.00000000000E+00  0.00000000000E+00  0.13279570283E+03  0.13279570283E+03  0.00000000000E+00 0.  1.
         -3   -1    0    0    0  501 -0.00000000000E+00 -0.00000000000E+00 -0.43714812550E+03  0.43714812550E+03  0.00000000000E+00 0.  1.
         23    2    1    2    0    0  0.81851740929E+02  0.44164927706E+02 -0.32077765794E+03  0.34599637012E+03  0.90360024179E+02 0.  0.
         23    2    1    2    0    0 -0.79087155402E+02 -0.22293312256E+02 -0.65335311182E+02  0.13926689697E+03  0.91513910325E+02 0.  0.
        -11    1    3    3    0    0  0.25250743331E+02  0.54717356837E+02 -0.23559707594E+03  0.24318217733E+03  0.00000000000E+00 0.  1.
         11    1    3    3    0    0  0.56600997598E+02 -0.10552429131E+02 -0.85180581999E+02  0.10281419279E+03  0.00000000000E+00 0. -1.
        -11    1    4    4    0    0 -0.13377457254E+02 -0.49082669454E+02 -0.36780272751E+02  0.62776215774E+02  0.00000000000E+00 0.  1.
         11    1    4    4    0    0 -0.65709698148E+02  0.26789357198E+02 -0.28555038431E+02  0.76490681194E+02  0.00000000000E+00 0. -1.
         -3    1    1    2    0  502 -0.27645855273E+01 -0.21871615450E+02  0.81760546453E+02  0.84680561240E+02  0.00000000000E+00 0.  1.
<scales pt_clust_5="13000.00000" pt_clust_6="13000.00000" pt_clust_7="13000.00000" pt_clust_8="13000.00000" pt_clust_9="22.04565"></scales>
<clustering>
<clus scale="   22.046">  1  9  2 -1</clus>
<clus scale="   90.360">  5  6 -1 -1</clus>
<clus scale="   91.514">  7  8 -1 -1</clus>
<clus scale="  127.437">  2  5  1 -1</clus>
<clus scale="   22.046">  1  5  2 -1</clus>
</clustering>
</event>
<event>
 9    1  0.1636528E-005  0.9274350E+02  0.7546771E-02  0.1298901E+00
          2   -1    0    0  502    0 -0.00000000000E+00  0.00000000000E+00  0.98035023840E+02  0.98035023840E+02  0.00000000000E+00 0. -1.
         21   -1    0    0  501  502  0.00000000000E+00 -0.00000000000E+00 -0.19868651373E+03  0.19868651373E+03  0.00000000000E+00 0. -1.
         23    2    1    2    0    0  0.12937746016E+02  0.26786610004E+01  0.35579587662E+02  0.95541730754E+02  0.87679842385E+02 0.  0.
         23    2    1    2    0    0 -0.13236936231E+00 -0.18086066607E+02 -0.38412874464E+02  0.10133108788E+03  0.92007157974E+02 0.  0.
        -13    1    4    4    0    0  0.35207797549E+02 -0.30767018710E+02 -0.42977789829E+02  0.63508179529E+02  0.00000000000E+00 0.  1.
         13    1    4    4    0    0 -0.35340166911E+02  0.12680952102E+02  0.45649153645E+01  0.37822908347E+02  0.00000000000E+00 0. -1.
        -13    1    3    3    0    0  0.37135227304E+02  0.32945803891E+02  0.16232399233E+02  0.52229703099E+02  0.00000000000E+00 0.  1.
         13    1    3    3    0    0 -0.24197481288E+02 -0.30267142891E+02  0.19347188429E+02  0.43312027655E+02  0.00000000000E+00 0. -1.
          2    1    1    2  501    0 -0.12805376654E+02  0.15407405607E+02 -0.97818203085E+02  0.99848718938E+02  0.00000000000E+00 0. -1.
<scales pt_clust_5="13000.00000" pt_clust_6="13000.00000" pt_clust_7="13000.00000" pt_clust_8="13000.00000" pt_clust_9="20.03412"></scales>
<clustering>
<clus scale="   20.034">  2  9  1 -1</clus>
<clus scale="   87.680">  7  8 -1 -1</clus>
<clus scale="   88.452">  1  7  2 -1</clus>
<clus scale="   92.007">  5  6 -1 -1</clus>
<clus scale="   20.034">  2  5  1 -1</clus>
</clustering>
</event>
<event>
 9    1  0.1636528E-005  0.9180333E+02  0.7546771E-02  0.1314077E+00
         -1   -1    0    0    0  501 -0.00000000000E+00  0.00000000000E+00  0.35338160323E+02  0.35338160323E+02  0.00000000000E+00 0.  1.
         21   -1    0    0  501  502  0.00000000000E+00 -0.00000000000E+00 -0.37586088696E+03  0.37586088696E+03  0.00000000000E+00 0.  1.
         23    2    1    2    0    0  0.94177755878E+01 -0.33404401452E+01 -0.60668654338E+02  0.10919591655E+03  0.90239733683E+02 0.  0.
         23    2    1    2    0    0 -0.15540746385E+02  0.25495338424E+02 -0.12118165178E+03  0.14167450782E+03  0.67045852669E+02 0.  0.
        -11    1    3    3    0    0 -0.15062103707E+02  0.21293250969E+02 -0.68757039179E+02  0.73537745013E+02  0.00000000000E+00 0.  1.
         11    1    3    3    0    0  0.24479879295E+02 -0.24633691114E+02  0.80883848409E+01  0.35658171540E+02  0.00000000000E+00 0. -1.
        -11    1    4    4    0    0 -0.41907389915E+02  0.17069895862E+02 -0.82720558251E+02  0.94288395000E+02  0.00000000000E+00 0.  1.
         11    1    4    4    0    0  0.26366643529E+02  0.84254425613E+01 -0.38461093525E+02  0.47386112823E+02  0.00000000000E+00 0. -1.
         -1    1    1    2    0  502  0.61229707974E+01 -0.22154898279E+02 -0.15867242053E+03  0.16032862291E+03  0.00000000000E+00 0.  1.
<scales pt_clust_5="13000.00000" pt_clust_6="13000.00000" pt_clust_7="13000.00000" pt_clust_8="13000.00000" pt_clust_9="22.98544"></scales>
<clustering>
<clus scale="   22.985">  2  9  1 -1</clus>
<clus scale="   67.046">  7  8 -1 -1</clus>
<clus scale="   69.136">  2  7  1 -1</clus>
<clus scale="   90.240">  5  6 -1 -1</clus>
<clus scale="   22.985">  2  5  1 -1</clus>
</clustering>
</event>
<event>
 9    1  0.1636528E-005  0.1219054E+03  0.7546771E-02  0.1245875E+00
         21   -1    0    0  501  502  0.00000000000E+00  0.00000000000E+00  0.68994419120E+02  0.68994419120E+02  0.00000000000E+00 0.  1.
          2   -1    0    0  502    0 -0.00000000000E+00 -0.00000000000E+00 -0.32728880182E+03  0.32728880182E+03  0.00000000000E+00 0. -1.
         23    2    1    2    0    0 -0.57107322020E+02 -0.53645939249E+02 -0.19922498326E+03  0.22903361993E+03  0.81404373818E+02 0.  0.
         23    2    1    2    0    0  0.41475690329E+02  0.39304780413E+02 -0.78428992677E+02  0.13853008506E+03  0.98865458687E+02 0.  0.
        -13    1    3    3    0    0 -0.21399003922E+02 -0.44718263350E+02 -0.34875864708E+02  0.60613252553E+02  0.00000000000E+00 0.  1.
         13    1    3    3    0    0 -0.35708318098E+02 -0.89276758989E+01 -0.16434911855E+03  0.16842036738E+03  0.00000000000E+00 0. -1.
        -13    1    4    4    0    0  0.42035760382E+02  0.70880973100E+02 -0.60318203122E+02  0.10212444921E+03  0.00000000000E+00 0.  1.
         13    1    4    4    0    0 -0.56007005301E+00 -0.31576192686E+02 -0.18110789555E+02  0.36405635846E+02  0.00000000000E+00 0. -1.
          2    1    1    2  501    0  0.15631631691E+02  0.14341158836E+02  0.19359593241E+02  0.28719515952E+02  0.00000000000E+00 0. -1.
<scales pt_clust_5="13000.00000" pt_clust_6="13000.00000" pt_clust_7="13000.00000" pt_clust_8="13000.00000" pt_clust_9="21.21360"></scales>
<clustering>
<clus scale="   21.214">  1  9  2 -1</clus>
<clus scale="   81.404">  5  6 -1 -1</clus>
<clus scale="   98.865">  7  8 -1 -1</clus>
<clus scale="  108.228">  2  5  1 -1</clus>
<clus scale="   21.214">  1  5  2 -1</clus>
</clustering>
</event>
<event>
 9    1  0.1636528E-005  0.1219129E+03  0.7546771E-02  0.1240712E+00
         21   -1    0    0  501  502  0.00000000000E+00  0.00000000000E+00  0.31493791484E+02  0.31493791484E+02  0.00000000000E+00 0.  1.
         -2   -1    0    0    0  501 -0.00000000000E+00 -0.00000000000E+00 -0.89327838944E+03  0.89327838944E+03  0.00000000000E+00 0.  1.
         23    2    1    2    0    0 -0.51816122524E+02  0.27166855502E+02 -0.28224564534E+03  0.30242948365E+03  0.91531632095E+02 0.  0.
         23    2    1    2    0    0  0.41167352231E+02 -0.99280720939E+02 -0.46645870582E+03  0.48780293322E+03  0.93896565338E+02 0.  0.
        -13    1    3    3    0    0  0.16079318924E+02  0.36698642984E+02 -0.10278420175E+03  0.11031739221E+03  0.00000000000E+00 0. -1.
         13    1    3    3    0    0 -0.67895441448E+02 -0.95317874816E+01 -0.17946144359E+03  0.19211209144E+03  0.00000000000E+00 0.  1.
        -13    1    4    4    0    0  0.54786364074E+02 -0.41088435932E+02 -0.35284113339E+03  0.35942547304E+03  0.00000000000E+00 0.  1.
         13    1    4    4    0    0 -0.13619011843E+02 -0.58192285007E+02 -0.11361757243E+03  0.12837746018E+03  0.00000000000E+00 0. -1.
         -2    1    1    2    0  502  0.10648770293E+02  0.72113865437E+02 -0.11308024679E+03  0.13453976406E+03  0.00000000000E+00 0.  1.
<scales pt_clust_5="13000.00000" pt_clust_6="13000.00000" pt_clust_7="13000.00000" pt_clust_8="13000.00000" pt_clust_9="72.89586"></scales>
<clustering>
<clus scale="   72.896">  1  9  2 -1</clus>
<clus scale="   91.532">  5  6 -1 -1</clus>
<clus scale="   93.897">  7  8 -1 -1</clus>
<clus scale="  120.101">  2  5  1 -1</clus>
<clus scale="   72.896">  1  5  2 -1</clus>
</clustering>
</event>
<event>
 9    1  0.1636528E-005  0.1331450E+03  0.7546771E-02  0.1223889E+00
         -1   -1    0    0    0  501 -0.00000000000E+00  0.00000000000E+00  0.19783427789E+03  0.19783427789E+03  0.00000000000E+00 0.  1.
         21   -1    0    0  501  502  0.00000000000E+00 -0.00000000000E+00 -0.14153370070E+03  0.14153370070E+03  0.00000000000E+00 0. -1.
         23    2    1    2    0    0  0.43163080723E+02 -0.70754909355E+02  0.61973403660E+02  0.13737347777E+03  0.90340804174E+02 0.  0.
         23    2    1    2    0    0 -0.25788913082E+02  0.11580866385E+03  0.79966524296E+01  0.15180927243E+03  0.94368395577E+02 0.  0.
        -11    1    4    4    0    0  0.20851321965E+02  0.44289813626E+02  0.37293384653E+02  0.61539920032E+02  0.00000000000E+00 0.  1.
         11    1    4    4    0    0 -0.46640235047E+02  0.71518850224E+02 -0.29296732223E+02  0.90269352394E+02  0.00000000000E+00 0. -1.
        -13    1    3    3    0    0 -0.26775792509E+02 -0.22639651000E+02  0.31629552000E+02  0.47222086163E+02  0.00000000000E+00 0. -1.
         13    1    3    3    0    0  0.69938873232E+02 -0.48115258355E+02  0.30343851660E+02  0.90151391609E+02  0.00000000000E+00 0.  1.
         -1    1    1    2    0  502 -0.17374167641E+02 -0.45053754495E+02 -0.13669478892E+02  0.50185228389E+02  0.00000000000E+00 0.  1.
<scales pt_clust_5="13000.00000" pt_clust_6="13000.00000" pt_clust_7="13000.00000" pt_clust_8="13000.00000" pt_clust_9="48.28771"></scales>
<clustering>
<clus scale="   48.288">  2  9  1 -1</clus>
<clus scale="   90.341">  7  8 -1 -1</clus>
<clus scale="   94.368">  5  6 -1 -1</clus>
<clus scale="  130.321">  1  7  2 -1</clus>
<clus scale="   48.288">  2  5  1 -1</clus>
</clustering>
</event>
<event>
 9    1  0.1636528E-005  0.1354093E+03  0.7546771E-02  0.1222404E+00
         21   -1    0    0  501  502  0.00000000000E+00  0.00000000000E+00  0.49697211190E+02  0.49697211190E+02  0.00000000000E+00 0.  1.
          3   -1    0    0  502    0 -0.00000000000E+00 -0.00000000000E+00 -0.44281390507E+03  0.44281390507E+03  0.00000000000E+00 0. -1.
         23    2    1    2    0    0 -0.63427641578E+02  0.79939795070E+02 -0.21299550863E+03  0.25282335408E+03  0.90217099946E+02 0.  0.
         23    2    1    2    0    0  0.57632675839E+02 -0.50365376809E+02 -0.13135592345E+03  0.18236168956E+03  0.10071350796E+03 0.  0.
        -13    1    4    4    0    0  0.81756472298E+02 -0.50466515046E+02 -0.12453986516E+03  0.15729325452E+03  0.00000000000E+00 0. -1.
         13    1    4    4    0    0 -0.24123796460E+02  0.10113823662E+00 -0.68160582936E+01  0.25068435037E+02  0.00000000000E+00 0.  1.
        -13    1    3    3    0    0 -0.27361137749E+02  0.35124971017E+02 -0.15538631880E+02  0.47157656097E+02  0.00000000000E+00 0.  1.
         13    1    3    3    0    0 -0.36066503829E+02  0.44814824053E+02 -0.19745687675E+03  0.20566569799E+03  0.00000000000E+00 0. -1.
          3    1    1    2  501    0  0.57949657393E+01 -0.29574418261E+02 -0.48765261800E+02  0.57326072618E+02  0.00000000000E+00 0. -1.
<scales pt_clust_5="13000.00000" pt_clust_6="13000.00000" pt_clust_7="13000.00000" pt_clust_8="13000.00000" pt_clust_9="30.13683"></scales>
<clustering>
<clus scale="   30.137">  1  9  2 -1</clus>
<clus scale="   90.217">  7  8 -1 -1</clus>
<clus scale="  100.714">  5  6 -1 -1</clus>
<clus scale="  127.795">  2  7  1 -1</clus>
<clus scale="   30.137">  1  5  2 -1</clus>
</clustering>
</event>
<event>
 9    1  0.1636528E-005  0.1020736E+03  0.7546771E-02  0.1276231E+00
          1   -1    0    0  502    0 -0.00000000000E+00  0.00000000000E+00  0.62829128448E+03  0.62829128448E+03  0.00000000000E+00 0. -1.
         21   -1    0    0  501  502  0.00000000000E+00 -0.00000000000E+00 -0.93784680935E+02  0.93784680935E+02  0.00000000000E+00 0. -1.
         23    2    1    2    0    0 -0.14966809456E+02  0.37807890558E+02  0.47374132046E+03  0.48407922851E+03  0.90820805942E+02 0.  0.
         23    2    1    2    0    0  0.38497509563E+02 -0.55907571066E+02  0.12390115879E+03  0.16822975988E+03  0.91334770017E+02 0.  0.
        -11    1    4    4    0    0  0.49763162698E+02 -0.21834459679E+02  0.19340019594E+02  0.57681473188E+02  0.00000000000E+00 0.  1.
         11    1    4    4    0    0 -0.11265653136E+02 -0.34073111387E+02  0.10456113920E+03  0.11054828669E+03  0.00000000000E+00 0. -1.
        -13    1    3    3    0    0  0.26037657242E+02 -0.13317261608E+02  0.85961346754E+02  0.90800122176E+02  0.00000000000E+00 0.  1.
         13    1    3    3    0    0 -0.41004466698E+02  0.51125152167E+02  0.38777997370E+03  0.39327910633E+03  0.00000000000E+00 0. -1.
          1    1    1    2  501    0 -0.23530700107E+02  0.18099680508E+02 -0.63135875706E+02  0.69766977024E+02  0.00000000000E+00 0. -1.
<scales pt_clust_5="13000.00000" pt_clust_6="13000.00000" pt_clust_7="13000.00000" pt_clust_8="13000.00000" pt_clust_9="29.68657"></scales>
<clustering>
<clus scale="   29.687">  2  9  1 -1</clus>
<clus scale="   90.821">  7  8 -1 -1</clus>
<clus scale="   91.335">  5  6 -1 -1</clus>
<clus scale="  101.614">  1  7  2 -1</clus>
<clus scale="   29.687">  2  5  1 -1</clus>
</clustering>
</event>
<event>
 9    1  0.1636528E-005  0.1322763E+03  0.7546771E-02  0.1224865E+00
         21   -1    0    0  501  502  0.00000000000E+00  0.00000000000E+00  0.56059622031E+03  0.56059622031E+03  0.00000000000E+00 0. -1.
          2   -1    0    0  502    0 -0.00000000000E+00 -0.00000000000E+00 -0.88979952800E+02  0.88979952800E+02  0.00000000000E+00 0. -1.
         23    2    1    2    0    0 -0.94164705332E+02  0.53427577276E+02 -0.14523252991E+01  0.14298832853E+03  0.93391943457E+02 0.  0.
         23    2    1    2    0    0  0.52502996228E+02 -0.12810884096E+02  0.18688587414E+03  0.21455024044E+03  0.90469842236E+02 0.  0.
        -11    1    4    4    0    0  0.76947032676E+02 -0.14723126550E+02  0.16007912012E+03  0.17822160641E+03  0.00000000000E+00 0.  1.
         11    1    4    4    0    0 -0.24444036448E+02  0.19122424540E+01  0.26806754016E+02  0.36328634023E+02  0.00000000000E+00 0. -1.
        -13    1    3    3    0    0 -0.57623556288E+02  0.11503854544E+02 -0.43632176416E+02  0.73188658461E+02  0.00000000000E+00 0. -1.
         13    1    3    3    0    0 -0.36541149044E+02  0.41923722732E+02  0.42179851116E+02  0.69799670067E+02  0.00000000000E+00 0.  1.
          2    1    1    2  501    0  0.41661709104E+02 -0.40616693180E+02  0.28618271866E+03  0.29203760414E+03  0.00000000000E+00 0. -1.
<scales pt_clust_5="13000.00000" pt_clust_6="13000.00000" pt_clust_7="13000.00000" pt_clust_8="13000.00000" pt_clust_9="58.18431"></scales>
<clustering>
<clus scale="   58.184">  1  9  2 -1</clus>
<clus scale="   90.470">  5  6 -1 -1</clus>
<clus scale="   93.392">  7  8 -1 -1</clus>
<clus scale="  130.230">  1  5  2 -1</clus>
<clus scale="   58.184">  1  5  2 -1</clus>
</clustering>
</event>
<event>
 9    1  0.1636528E-005  0.2118416E+03  0.7546771E-02  0.1140769E+00
         21   -1    0    0  501  502  0.00000000000E+00  0.00000000000E+00  0.11091366191E+03  0.11091366191E+03  0.00000000000E+00 0. -1.
          2   -1    0    0  502    0 -0.00000000000E+00 -0.00000000000E+00 -0.90416094815E+03  0.90416094815E+03  0.00000000000E+00 0. -1.
         23    2    1    2    0    0  0.21015170585E+03  0.80902558390E+02 -0.66164440568E+03  0.70581347887E+03  0.98439747901E+02 0.  0.
         23    2    1    2    0    0 -0.11234488523E+03 -0.61258325337E+02 -0.13828962926E+03  0.20927721919E+03  0.91098722545E+02 0.  0.
        -13    1    3    3    0    0  0.50029243623E+02 -0.12325853836E+02 -0.23650299485E+03  0.24205065268E+03  0.00000000000E+00 0.  1.
         13    1    3    3    0    0  0.16012246223E+03  0.93228412226E+02 -0.42514141083E+03  0.46376282619E+03  0.00000000000E+00 0. -1.
        -13    1    4    4    0    0 -0.10473886456E+03 -0.15118078472E+02 -0.71386240209E+02  0.12765101385E+03  0.00000000000E+00 0.  1.
         13    1    4    4    0    0 -0.76060206717E+01 -0.46140246865E+02 -0.66903389048E+02  0.81626205334E+02  0.00000000000E+00 0. -1.
          2    1    1    2  501    0 -0.97806820621E+02 -0.19644233054E+02  0.66867486955E+01  0.99983912007E+02  0.00000000000E+00 0. -1.
<scales pt_clust_5="13000.00000" pt_clust_6="13000.00000" pt_clust_7="13000.00000" pt_clust_8="13000.00000" pt_clust_9="99.76006"></scales>
<clustering>
<clus scale="   91.099">  7  8 -1 -1</clus>
<clus scale="   98.440">  5  6 -1 -1</clus>
<clus scale="   99.760">  1  9  2 -1</clus>
<clus scale="  208.532">  1  7  2 -1</clus>
<clus scale="   99.760">  1  5  2 -1</clus>
</clustering>
</event>
<event>
 9    1  0.1636528E-005  0.9939608E+02  0.7546771E-02  0.1281717E+00
          1   -1    0    0  502    0 -0.00000000000E+00  0.00000000000E+00  0.36729889498E+03  0.36729889498E+03  0.00000000000E+00 0. -1.
         21   -1    0    0  501  502  0.00000000000E+00 -0.00000000000E+00 -0.40074729862E+03  0.40074729862E+03  0.00000000000E+00 0. -1.
         23    2    1    2    0    0  0.40689216828E+02 -0.33589911319E+02  0.27744621672E+03  0.29660155148E+03  0.90621093892E+02 0.  0.
         23    2    1    2    0    0 -0.18336066907E+02 -0.15338587459E+02  0.50407552632E+02  0.10615992917E+03  0.90319021171E+02 0.  0.
        -13    1    4    4    0    0 -0.27690855931E+02 -0.37777298241E+02  0.63219042217E+02  0.78680080474E+02  0.00000000000E+00 0.  1.
         13    1    4    4    0    0  0.93547890240E+01  0.22438710782E+02 -0.12811489585E+02  0.27479848701E+02  0.00000000000E+00 0. -1.
        -13    1    3    3    0    0 -0.29206149373E+02 -0.11802643027E+02  0.90872261765E+02  0.96177281631E+02  0.00000000000E+00 0.  1.
         13    1    3    3    0    0  0.69895366201E+02 -0.21787268291E+02  0.18657395495E+03  0.20042426985E+03  0.00000000000E+00 0. -1.
          1    1    1    2  501    0 -0.22353149922E+02  0.48928498778E+02 -0.36130217299E+03  0.36528471295E+03  0.00000000000E+00 0. -1.
<scales pt_clust_5="13000.00000" pt_clust_6="13000.00000" pt_clust_7="13000.00000" pt_clust_8="13000.00000" pt_clust_9="53.79276"></scales>
<clustering>
<clus scale="   53.793">  2  9  1 -1</clus>
<clus scale="   90.319">  5  6 -1 -1</clus>
<clus scale="   90.621">  7  8 -1 -1</clus>
<clus scale="   99.121">  2  5  1 -1</clus>
<clus scale="   53.793">  2  5  1 -1</clus>
</clustering>
</event>
<event>
 9    1  0.1636528E-005  0.1105574E+03  0.7546771E-02  0.1259610E+00
         21   -1    0    0  501  502  0.00000000000E+00  0.00000000000E+00  0.92892925927E+02  0.92892925927E+02  0.00000000000E+00 0. -1.
          3   -1    0    0  502    0 -0.00000000000E+00 -0.00000000000E+00 -0.27478136429E+03  0.27478136429E+03  0.00000000000E+00 0. -1.
         23    2    1    2    0    0  0.96947484216E+01  0.65117391192E+02 -0.19905028330E+03  0.22869111777E+03  0.91347409840E+02 0.  0.
         23    2    1    2    0    0 -0.15606252824E+02 -0.42858243022E+02  0.37140673859E+02  0.10849433569E+03  0.91165821991E+02 0.  0.
        -13    1    4    4    0    0  0.32506428727E+02 -0.34917040340E+02  0.35917342722E+02  0.59715350815E+02  0.00000000000E+00 0.  1.
         13    1    4    4    0    0 -0.48112681552E+02 -0.79412026821E+01  0.12233311368E+01  0.48778984873E+02  0.00000000000E+00 0. -1.
        -13    1    3    3    0    0 -0.35163549695E+02  0.38193287619E+01 -0.48078356294E+02  0.59687442928E+02  0.00000000000E+00 0.  1.
         13    1    3    3    0    0  0.44858298117E+02  0.61298062431E+02 -0.15097192700E+03  0.16900367484E+03  0.00000000000E+00 0. -1.
          3    1    1    2  501    0  0.59115044028E+01 -0.22259148171E+02 -0.19978828925E+02  0.30488836757E+02  0.00000000000E+00 0. -1.
<scales pt_clust_5="13000.00000" pt_clust_6="13000.00000" pt_clust_7="13000.00000" pt_clust_8="13000.00000" pt_clust_9="23.03076"></scales>
<clustering>
<clus scale="   23.031">  1  9  2 -1</clus>
<clus scale="   91.166">  5  6 -1 -1</clus>
<clus scale="   91.347">  7  8 -1 -1</clus>
<clus scale="  110.407">  1  5  2 -1</clus>
<clus scale="   23.031">  1  5  2 -1</clus>
</clustering>
</event>
<event>
 9    1  0.1636528E-005  0.1347512E+03  0.7546771E-02  0.1221397E+00
         21   -1    0    0  501  502  0.00000000000E+00  0.00000000000E+00  0.38732630344E+02  0.38732630344E+02  0.00000000000E+00 0.  1.
          2   -1    0    0  502    0 -0.00000000000E+00 -0.00000000000E+00 -0.92139586315E+03  0.92139586315E+03  0.00000000000E+00 0. -1.
         23    2    1    2    0    0 -0.85904435334E+02  0.14211899350E+02 -0.41028495173E+03  0.42858122503E+03  0.88128172223E+02 0.  0.
         23    2    1    2    0    0  0.11016166721E+03 -0.23804230214E+02 -0.48226389481E+03  0.50365190203E+03  0.91567133193E+02 0.  0.
        -13    1    3    3    0    0 -0.47502851647E+02  0.51705066097E+02 -0.23072250878E+03  0.24116967229E+03  0.00000000000E+00 0. -1.
         13    1    3    3    0    0 -0.38401583687E+02 -0.37493166747E+02 -0.17956244295E+03  0.18741155274E+03  0.00000000000E+00 0.  1.
        -13    1    4    4    0    0  0.79038038915E+02 -0.58699233254E+02 -0.32859368855E+03  0.34302539809E+03  0.00000000000E+00 0.  1.
         13    1    4    4    0    0  0.31123628293E+02  0.34895003040E+02 -0.15367020626E+03  0.16062650393E+03  0.00000000000E+00 0. -1.
          2    1    1    2  501    0 -0.24257231874E+02  0.95923308637E+01  0.98856137348E+01  0.27895366434E+02  0.00000000000E+00 0. -1.
<scales pt_clust_5="13000.00000" pt_clust_6="13000.00000" pt_clust_7="13000.00000" pt_clust_8="13000.00000" pt_clust_9="26.08498"></scales>
<clustering>
<clus scale="   26.085">  1  9  2 -1</clus>
<clus scale="   88.128">  5  6 -1 -1</clus>
<clus scale="   91.567">  7  8 -1 -1</clus>
<clus scale="  132.438">  2  5  1 -1</clus>
<clus scale="   26.085">  1  5  2 -1</clus>
</clustering>
</event>
<event>
 9    1  0.1636528E-005  0.1208373E+03  0.7546771E-02  0.1242069E+00
         21   -1    0    0  501  502  0.00000000000E+00  0.00000000000E+00  0.51828226107E+02  0.51828226107E+02  0.00000000000E+00 0.  1.
          1   -1    0    0  502    0 -0.00000000000E+00 -0.00000000000E+00 -0.64569383225E+03  0.64569383225E+03  0.00000000000E+00 0. -1.
         23    2    1    2    0    0  0.54414448653E+02  0.54231460547E+02 -0.47558167597E+03  0.49027047029E+03  0.91023183728E+02 0.  0.
         23    2    1    2    0    0 -0.31283972812E+02 -0.84840735963E+02 -0.10578476834E+03  0.16690092884E+03  0.92135038945E+02 0.  0.
        -11    1    4    4    0    0  0.10840899657E+02 -0.79014239227E+02 -0.41722356478E+02  0.90008500354E+02  0.00000000000E+00 0.  1.
         11    1    4    4    0    0 -0.42124872470E+02 -0.58264967367E+01 -0.64062411865E+02  0.76892428488E+02  0.00000000000E+00 0. -1.
        -13    1    3    3    0    0  0.43654619304E+02 -0.16039555935E+02 -0.22743572477E+03  0.23214220220E+03  0.00000000000E+00 0.  1.
         13    1    3    3    0    0  0.10759829349E+02  0.70271016482E+02 -0.24814595120E+03  0.25812826808E+03  0.00000000000E+00 0. -1.
          1    1    1    2  501    0 -0.23130475841E+02  0.30609275417E+02 -0.12499161830E+02  0.40350659234E+02  0.00000000000E+00 0. -1.
<scales pt_clust_5="13000.00000" pt_clust_6="13000.00000" pt_clust_7="13000.00000" pt_clust_8="13000.00000" pt_clust_9="38.36596"></scales>
<clustering>
<clus scale="   38.366">  1  9  2 -1</clus>
<clus scale="   91.023">  7  8 -1 -1</clus>
<clus scale="   92.135">  5  6 -1 -1</clus>
<clus scale="  119.992">  2  7  1 -1</clus>
<clus scale="   38.366">  1  5  2 -1</clus>
</clustering>
</event>
<event>
 9    1  0.1636528E-005  0.1068210E+03  0.7546771E-02  0.1270076E+00
          1   -1    0    0  502    0 -0.00000000000E+00  0.00000000000E+00  0.36720702386E+03  0.36720702386E+03  0.00000000000E+00 0. -1.
         21   -1    0    0  501  502  0.00000000000E+00 -0.00000000000E+00 -0.96244322383E+02  0.96244322383E+02  0.00000000000E+00 0. -1.
         23    2    1    2    0    0 -0.26592584493E+01  0.36984636070E+02  0.25027099513E+03  0.27092740981E+03  0.96907973980E+02 0.  0.
         23    2    1    2    0    0  0.26192817856E+02 -0.67057049710E+02  0.66833623439E+02  0.13263023898E+03  0.89114170849E+02 0.  0.
        -13    1    3    3    0    0 -0.40287564903E+02 -0.97696807449E+01  0.75404396032E+02  0.86048576331E+02  0.00000000000E+00 0.  1.
         13    1    3    3    0    0  0.37628306454E+02  0.46754316815E+02  0.17486659910E+03  0.18487883348E+03  0.00000000000E+00 0. -1.
        -13    1    4    4    0    0  0.16023221819E+02 -0.12049992082E+02  0.73601397500E+02  0.76283102065E+02  0.00000000000E+00 0.  1.
         13    1    4    4    0    0  0.10169596036E+02 -0.55007057628E+02 -0.67677740615E+01  0.56347136912E+02  0.00000000000E+00 0. -1.
          1    1    1    2  501    0 -0.23533559406E+02  0.30072413640E+02 -0.46141917100E+02  0.59893697449E+02  0.00000000000E+00 0. -1.
<scales pt_clust_5="13000.00000" pt_clust_6="13000.00000" pt_clust_7="13000.00000" pt_clust_8="13000.00000" pt_clust_9="38.18610"></scales>
<clustering>
<clus scale="   38.186">  2  9  1 -1</clus>
<clus scale="   89.114">  7  8 -1 -1</clus>
<clus scale="   96.908">  5  6 -1 -1</clus>
<clus scale="   99.804">  2  7  1 -1</clus>
<clus scale="   38.186">  2  5  1 -1</clus>
</clustering>
</event>
<event>
 9    1  0.1636528E-005  0.1016726E+03  0.7546771E-02  0.1282643E+00
         21   -1    0    0  501  502  0.00000000000E+00  0.00000000000E+00  0.39469074355E+02  0.39469074355E+02  0.00000000000E+00 0. -1.
          1   -1    0    0  502    0 -0.00000000000E+00 -0.00000000000E+00 -0.42462507952E+03  0.42462507952E+03  0.00000000000E+00 0. -1.
         23    2    1    2    0    0 -0.39354847863E+02  0.38136915251E+02 -0.19169027658E+03  0.21511445793E+03  0.80782668418E+02 0.  0.
         23    2    1    2    0    0  0.36831877394E+02  0.17153045686E+02 -0.11871524505E+03  0.15596905167E+03  0.92640280136E+02 0.  0.
        -11    1    3    3    0    0  0.57250941042E+01 -0.19348837875E+02 -0.73056489406E+02  0.75791852292E+02  0.00000000000E+00 0.  1.
         11    1    3    3    0    0 -0.45079941967E+02  0.57485753126E+02 -0.11863378718E+03  0.13932260563E+03  0.00000000000E+00 0. -1.
        -11    1    4    4    0    0  0.22944375763E+02 -0.36392135824E+02 -0.34193283077E+02  0.54954640719E+02  0.00000000000E+00 0.  1.
         11    1    4    4    0    0  0.13887501632E+02  0.53545181511E+02 -0.84521961971E+02  0.10101441095E+03  0.00000000000E+00 0. -1.
          1    1    1    2  501    0  0.25229704683E+01 -0.55289960937E+02 -0.74750483534E+02  0.93010644278E+02  0.00000000000E+00 0. -1.
<scales pt_clust_5="13000.00000" pt_clust_6="13000.00000" pt_clust_7="13000.00000" pt_clust_8="13000.00000" pt_clust_9="55.34749"></scales>
<clustering>
<clus scale="   55.347">  1  9  2 -1</clus>
<clus scale="   80.783">  5  6 -1 -1</clus>
<clus scale="   91.000">  2  5  1 -1</clus>
<clus scale="   92.640">  7  8 -1 -1</clus>
<clus scale="   55.347">  1  5  2 -1</clus>
</clustering>
</event>
<event>
 9    1  0.1636528E-005  0.2006963E+03  0.7546771E-02  0.1149202E+00
         -1   -1    0    0    0  501 -0.00000000000E+00  0.00000000000E+00  0.11506399528E+04  0.11506399528E+04  0.00000000000E+00 0.  1.
         21   -1    0    0  501  502  0.00000000000E+00 -0.00000000000E+00 -0.98054705505E+02  0.98054705505E+02  0.00000000000E+00 0. -1.
         23    2    1    2    0    0  0.19052330895E+03  0.34517302292E+02  0.92610265299E+03  0.95049094887E+03  0.90974417245E+02 0.  0.
         23    2    1    2    0    0 -0.13816460753E+03  0.11500045713E+02  0.15124524217E+03  0.22422926345E+03  0.90454018616E+02 0.  0.
        -11    1    3    3    0    0  0.18708284047E+03  0.99766601787E+01  0.85198157562E+03  0.87233716425E+03  0.00000000000E+00 0.  1.
         11    1    3    3    0    0  0.34404684850E+01  0.24540642114E+02  0.74121077372E+02  0.78153784614E+02  0.00000000000E+00 0. -1.
        -13    1    4    4    0    0 -0.11170678990E+03  0.15169680388E+02  0.57100322152E+02  0.12636840152E+03  0.00000000000E+00 0. -1.
         13    1    4    4    0    0 -0.26457817628E+02 -0.36696346753E+01  0.94144920023E+02  0.97860861934E+02  0.00000000000E+00 0.  1.
         -1    1    1    2    0  502 -0.52358701425E+02 -0.46017348005E+02 -0.24762647854E+02  0.73974446001E+02  0.00000000000E+00 0.  1.
<scales pt_clust_5="13000.00000" pt_clust_6="13000.00000" pt_clust_7="13000.00000" pt_clust_8="13000.00000" pt_clust_9="69.70674"></scales>
<clustering>
<clus scale="   69.707">  2  9  1 -1</clus>
<clus scale="   90.454">  7  8 -1 -1</clus>
<clus scale="   90.974">  5  6 -1 -1</clus>
<clus scale="  200.461">  2  7  1 -1</clus>
<clus scale="   69.707">  2  5  1 -1</clus>
</clustering>
</event>
<event>
 9    1  0.1636528E-005  0.1211152E+03  0.7546771E-02  0.1243047E+00
         21   -1    0    0  501  502  0.00000000000E+00  0.00000000000E+00  0.17518858025E+03  0.17518858025E+03  0.00000000000E+00 0. -1.
          2   -1    0    0  502    0 -0.00000000000E+00 -0.00000000000E+00 -0.50490766936E+03  0.50490766936E+03  0.00000000000E+00 0. -1.
         23    2    1    2    0    0 -0.46078848308E+02 -0.47168996142E+02 -0.22465081733E+03  0.24843105526E+03  0.83077223302E+02 0.  0.
         23    2    1    2    0    0  0.46260693879E+02  0.10193421494E+03 -0.24372602260E+03  0.28258389398E+03  0.88998017242E+02 0.  0.
        -11    1    4    4    0    0  0.28386379908E+02  0.42495391917E+02 -0.28346830055E+02  0.58439607054E+02  0.00000000000E+00 0.  1.
         11    1    4    4    0    0  0.17874313971E+02  0.59438823025E+02 -0.21537919254E+03  0.22414428693E+03  0.00000000000E+00 0. -1.
        -13    1    3    3    0    0  0.21956811127E+02  0.20768628527E+01 -0.48854573412E+02  0.53602091913E+02  0.00000000000E+00 0.  1.
         13    1    3    3    0    0 -0.68035659435E+02 -0.49245858994E+02 -0.17579624392E+03  0.19482896335E+03  0.00000000000E+00 0. -1.
          2    1    1    2  501    0 -0.18184557101E+00 -0.54765218800E+02  0.13865775081E+03  0.14908130037E+03  0.00000000000E+00 0. -1.
<scales pt_clust_5="13000.00000" pt_clust_6="13000.00000" pt_clust_7="13000.00000" pt_clust_8="13000.00000" pt_clust_9="54.76552"></scales>
<clustering>
<clus scale="   54.766">  1  9  2 -1</clus>
<clus scale="   83.077">  7  8 -1 -1</clus>
<clus scale="   88.998">  5  6 -1 -1</clus>
<clus scale="  116.833">  2  7  1 -1</clus>
<clus scale="   54.766">  1  5  2 -1</clus>
</clustering>
</event>
<event>
 9    1  0.1636528E-005  0.9539398E+02  0.7546771E-02  0.1290464E+00
         21   -1    0    0  501  502  0.00000000000E+00  0.00000000000E+00  0.19777843524E+03  0.19777843524E+03  0.00000000000E+00 0. -1.
          1   -1    0    0  502    0 -0.00000000000E+00 -0.00000000000E+00 -0.12221763278E+03  0.12221763278E+03  0.00000000000E+00 0. -1.
         23    2    1    2    0    0 -0.28566201536E+02 -0.42271876975E+02 -0.28002464351E+02  0.10852996699E+03  0.91606092986E+02 0.  0.
         23    2    1    2    0    0 -0.24803111534E+02  0.24162684138E+01  0.88200500657E+01  0.95651463655E+02  0.91925929538E+02 0.  0.
        -11    1    4    4    0    0  0.24711458604E+02 -0.26622070140E+02 -0.48472641545E+01  0.36645419559E+02  0.00000000000E+00 0. -1.
         11    1    4    4    0    0 -0.49514570138E+02  0.29038338553E+02  0.13667314220E+02  0.59006044096E+02  0.00000000000E+00 0.  1.
        -13    1    3    3    0    0 -0.31446040317E+02 -0.69910195149E+02 -0.24744315983E+02  0.80551660509E+02  0.00000000000E+00 0. -1.
         13    1    3    3    0    0  0.28798387805E+01  0.27638318173E+02 -0.32581483681E+01  0.27978306483E+02  0.00000000000E+00 0.  1.
          1    1    1    2  501    0  0.53369313070E+02  0.39855608562E+02  0.94743216749E+02  0.11581463738E+03  0.00000000000E+00 0. -1.
<scales pt_clust_5="13000.00000" pt_clust_6="13000.00000" pt_clust_7="13000.00000" pt_clust_8="13000.00000" pt_clust_9="66.60896"></scales>
<clustering>
<clus scale="   66.609">  1  9  2 -1</clus>
<clus scale="   91.606">  7  8 -1 -1</clus>
<clus scale="   91.926">  5  6 -1 -1</clus>
<clus scale="   95.086">  2  7  1 -1</clus>
<clus scale="   66.609">  1  5  2 -1</clus>
</clustering>
</event>
<event>
 9    1  0.1636528E-005  0.9917643E+02  0.7546771E-02  0.1282130E+00
          1   -1    0    0  502    0 -0.00000000000E+00  0.00000000000E+00  0.11894822284E+04  0.11894822284E+04  0.00000000000E+00 0. -1.
         21   -1    0    0  501  502  0.00000000000E+00 -0.00000000000E+00 -0.14193591197E+02  0.14193591197E+02  0.00000000000E+00 0.  1.
         23    2    1    2    0    0  0.62763966774E+01 -0.17490986664E+02  0.47940445767E+03  0.48835392142E+03  0.91189861087E+02 0.  0.
         23    2    1    2    0    0  0.85269707913E+00  0.65634812204E+02  0.55612267392E+03  0.56732889035E+03  0.90999921456E+02 0.  0.
        -13    1    4    4    0    0 -0.43386920490E+02  0.43462165564E+02  0.26434874810E+03  0.27138836623E+03  0.00000000000E+00 0.  1.
         13    1    4    4    0    0  0.44239617569E+02  0.22172646640E+02  0.29177392582E+03  0.29594052411E+03  0.00000000000E+00 0. -1.
        -13    1    3    3    0    0 -0.41693146741E+02 -0.26479359326E+01  0.18139651000E+03  0.18614516886E+03  0.00000000000E+00 0.  1.
         13    1    3    3    0    0  0.47969543418E+02 -0.14843050732E+02  0.29800794767E+03  0.30220875256E+03  0.00000000000E+00 0. -1.
          1    1    1    2  501    0 -0.71290937565E+01 -0.48143825540E+02  0.13976150558E+03  0.14799300780E+03  0.00000000000E+00 0. -1.
<scales pt_clust_5="13000.00000" pt_clust_6="13000.00000" pt_clust_7="13000.00000" pt_clust_8="13000.00000" pt_clust_9="48.66880"></scales>
<clustering>
<clus scale="   48.669">  2  9  1 -1</clus>
<clus scale="   91.000">  5  6 -1 -1</clus>
<clus scale="   91.190">  7  8 -1 -1</clus>
<clus scale="   99.002">  2  5  1 -1</clus>
<clus scale="   48.669">  2  5  1 -1</clus>
</clustering>
</event>
<event>
 9    1  0.1636528E-005  0.1063855E+03  0.7546771E-02  0.1270233E+00
          1   -1    0    0  502    0 -0.00000000000E+00  0.00000000000E+00  0.40165698888E+03  0.40165698888E+03  0.00000000000E+00 0. -1.
         21   -1    0    0  501  502  0.00000000000E+00 -0.00000000000E+00 -0.72676903211E+02  0.72676903211E+02  0.00000000000E+00 0.  1.
         23    2    1    2    0    0  0.57399137283E+02 -0.26994974472E+02  0.21960628558E+03  0.24430441187E+03  0.86222592092E+02 0.  0.
         23    2    1    2    0    0 -0.34674520584E+02  0.15948058183E+02  0.15103108669E+03  0.18130810821E+03  0.92766254753E+02 0.  0.
        -11    1    3    3    0    0  0.80027414837E+02 -0.15096397315E+02  0.16439659642E+03  0.18346260996E+03  0.00000000000E+00 0.  1.
         11    1    3    3    0    0 -0.22628277554E+02 -0.11898577158E+02  0.55209689156E+02  0.60841801914E+02  0.00000000000E+00 0. -1.
        -11    1    4    4    0    0 -0.55339803483E+02  0.11010206016E+02  0.14974434940E+03  0.16002215054E+03  0.00000000000E+00 0. -1.
         11    1    4    4    0    0  0.20665282898E+02  0.49378521674E+01  0.12867372869E+01  0.21285957675E+02  0.00000000000E+00 0.  1.
          1    1    1    2  501    0 -0.22724616698E+02  0.11046916289E+02 -0.41657286595E+02  0.48721372005E+02  0.00000000000E+00 0. -1.
<scales pt_clust_5="13000.00000" pt_clust_6="13000.00000" pt_clust_7="13000.00000" pt_clust_8="13000.00000" pt_clust_9="25.26742"></scales>
<clustering>
<clus scale="   25.267">  2  9  1 -1</clus>
<clus scale="   86.223">  5  6 -1 -1</clus>
<clus scale="   92.766">  7  8 -1 -1</clus>
<clus scale="  100.730">  1  5  2 -1</clus>
<clus scale="   25.267">  2  5  1 -1</clus>
</clustering>
</event>
<event>
 9    1  0.1636528E-005  0.9974870E+02  0.7546771E-02  0.1281637E+00
          2   -1    0    0  502    0 -0.00000000000E+00  0.00000000000E+00  0.16127495111E+03  0.16127495111E+03  0.00000000000E+00 0. -1.
         21   -1    0    0  501  502  0.00000000000E+00 -0.00000000000E+00 -0.12804872309E+03  0.12804872309E+03  0.00000000000E+00 0. -1.
         23    2    1    2    0    0 -0.33663839884E+02 -0.17741758763E+02  0.63410489968E+02  0.11730904217E+03  0.91063148518E+02 0.  0.
         23    2    1    2    0    0  0.48505826605E+02 -0.45884495879E+01  0.29995415970E+02  0.10613203637E+03  0.89389121715E+02 0.  0.
        -13    1    3    3    0    0 -0.14399652507E+02  0.34697983996E+02  0.75737708337E+01  0.38323127356E+02  0.00000000000E+00 0.  1.
         13    1    3    3    0    0 -0.19264187377E+02 -0.52439742759E+02  0.55836719134E+02  0.78985914817E+02  0.00000000000E+00 0. -1.
        -13    1    4    4    0    0 -0.21003983037E+01  0.34978938827E+02  0.22054837730E+02  0.41404754579E+02  0.00000000000E+00 0.  1.
         13    1    4    4    0    0  0.50606224909E+02 -0.39567388414E+02  0.79405782404E+01  0.64727281793E+02  0.00000000000E+00 0. -1.
          2    1    1    2  501    0 -0.14841986722E+02  0.22330208351E+02 -0.60179677924E+02  0.65882595652E+02  0.00000000000E+00 0. -1.
<scales pt_clust_5="13000.00000" pt_clust_6="13000.00000" pt_clust_7="13000.00000" pt_clust_8="13000.00000" pt_clust_9="26.81274"></scales>
<clustering>
<clus scale="   26.813">  2  9  1 -1</clus>
<clus scale="   89.389">  7  8 -1 -1</clus>
<clus scale="   91.063">  5  6 -1 -1</clus>
<clus scale="   98.223">  2  7  1 -1</clus>
<clus scale="   26.813">  2  5  1 -1</clus>
</clustering>
</event>
<event>
 9    1  0.1636528E-005  0.1230968E+03  0.7546771E-02  0.1238408E+00
         -1   -1    0    0    0  501 -0.00000000000E+00  0.00000000000E+00  0.47982528257E+02  0.47982528257E+02  0.00000000000E+00 0.  1.
         21   -1    0    0  501  502  0.00000000000E+00 -0.00000000000E+00 -0.44470977531E+03  0.44470977531E+03  0.00000000000E+00 0.  1.
         23    2    1    2    0    0 -0.67480282151E+02 -0.27762804439E+02 -0.13596958964E+03  0.17847890456E+03  0.89680701804E+02 0.  0.
         23    2    1    2    0    0  0.79869189841E+02  0.51037566251E+02 -0.14543284468E+03  0.19591288336E+03  0.90814232913E+02 0.  0.
        -13    1    4    4    0    0  0.23198124720E+02 -0.25323852125E+02 -0.53987435242E+02  0.63985104837E+02  0.00000000000E+00 0. -1.
         13    1    4    4    0    0  0.56671065121E+02  0.76361418376E+02 -0.91445409439E+02  0.13192777852E+03  0.00000000000E+00 0.  1.
        -13    1    3    3    0    0 -0.41775443556E+02 -0.60546168611E+02 -0.93779371865E+02  0.11918723424E+03  0.00000000000E+00 0.  1.
         13    1    3    3    0    0 -0.25704838595E+02  0.32783364171E+02 -0.42190217774E+02  0.59291670320E+02  0.00000000000E+00 0. -1.
         -1    1    1    2    0  502 -0.12388907690E+02 -0.23274761811E+02 -0.11532481273E+03  0.11830051565E+03  0.00000000000E+00 0.  1.
<scales pt_clust_5="13000.00000" pt_clust_6="13000.00000" pt_clust_7="13000.00000" pt_clust_8="13000.00000" pt_clust_9="26.36664"></scales>
<clustering>
<clus scale="   26.367">  2  9  1 -1</clus>
<clus scale="   89.681">  7  8 -1 -1</clus>
<clus scale="   90.814">  5  6 -1 -1</clus>
<clus scale="  122.263">  1  7  2 -1</clus>
<clus scale="   26.367">  2  5  1 -1</clus>
</clustering>
</event>
<event>
 9    1  0.1636528E-005  0.1039261E+03  0.7546771E-02  0.1274433E+00
         -1   -1    0    0    0  501 -0.00000000000E+00  0.00000000000E+00  0.19284743318E+03  0.19284743318E+03  0.00000000000E+00 0.  1.
         21   -1    0    0  501  502  0.00000000000E+00 -0.00000000000E+00 -0.97403620356E+02  0.97403620356E+02  0.00000000000E+00 0.  1.
         23    2    1    2    0    0 -0.16020131624E+02  0.39660216607E+02  0.84134180890E+02  0.13045517823E+03  0.90057846600E+02 0.  0.
         23    2    1    2    0    0  0.95647900451E+01 -0.66487137452E+02  0.44017741058E+02  0.11700363864E+03  0.85089748336E+02 0.  0.
        -11    1    3    3    0    0 -0.50139103910E+02  0.38414394717E+02  0.67612788175E+02  0.92526129213E+02  0.00000000000E+00 0. -1.
         11    1    3    3    0    0  0.34118972286E+02  0.12458218901E+01  0.16521392715E+02  0.37929049016E+02  0.00000000000E+00 0.  1.
        -11    1    4    4    0    0  0.25905396287E+02 -0.37914746739E+02  0.63795765735E+02  0.78603545104E+02  0.00000000000E+00 0.  1.
         11    1    4    4    0    0 -0.16340606242E+02 -0.28572390712E+02 -0.19778024678E+02  0.38400093535E+02  0.00000000000E+00 0. -1.
         -1    1    1    2    0  502  0.64553415789E+01  0.26826920844E+02 -0.32708109122E+02  0.42792236670E+02  0.00000000000E+00 0.  1.
<scales pt_clust_5="13000.00000" pt_clust_6="13000.00000" pt_clust_7="13000.00000" pt_clust_8="13000.00000" pt_clust_9="27.59266"></scales>
<clustering>
<clus scale="   27.593">  2  9  1 -1</clus>
<clus scale="   85.090">  7  8 -1 -1</clus>
<clus scale="   90.058">  5  6 -1 -1</clus>
<clus scale="   99.652">  2  7  1 -1</clus>
<clus scale="   27.593">  2  5  1 -1</clus>
</clustering>
</event>
<event>
 9    1  0.1636528E-005  0.1103915E+03  0.7546771E-02  0.1266688E+00
         -4   -1    0    0    0  501 -0.00000000000E+00  0.00000000000E+00  0.11377762205E+03  0.11377762205E+03  0.00000000000E+00 0.  1.
         21   -1    0    0  501  502  0.00000000000E+00 -0.00000000000E+00 -0.29128770295E+03  0.29128770295E+03  0.00000000000E+00 0. -1.
         23    2    1    2    0    0  0.14995407766E+02 -0.30601590566E+02  0.69397633298E+02  0.13119593497E+03  0.10599538786E+03 0.  0.
         23    2    1    2    0    0 -0.10729230180E+02  0.78265581702E+01 -0.16969190114E+03  0.19325187235E+03  0.91512695622E+02 0.  0.
        -11    1    4    4    0    0 -0.29290495924E+02  0.33999985308E+02 -0.14766081016E+03  0.15432966989E+03  0.00000000000E+00 0. -1.
         11    1    4    4    0    0  0.18561265744E+02 -0.26173427138E+02 -0.22031090986E+02  0.38922202458E+02  0.00000000000E+00 0.  1.
        -13    1    3    3    0    0 -0.36299263154E+02 -0.42411384074E+02  0.50478587124E+02  0.75262538906E+02  0.00000000000E+00 0.  1.
         13    1    3    3    0    0  0.51294670919E+02  0.11809793508E+02  0.18919046174E+02  0.55933396067E+02  0.00000000000E+00 0. -1.
         -4    1    1    2    0  502 -0.42661775862E+01  0.22775032395E+02 -0.77215813050E+02  0.80617517679E+02  0.00000000000E+00 0.  1.
<scales pt_clust_5="13000.00000" pt_clust_6="13000.00000" pt_clust_7="13000.00000" pt_clust_8="13000.00000" pt_clust_9="23.17115"></scales>
<clustering>
<clus scale="   23.171">  2  9  1 -1</clus>
<clus scale="   91.513">  5  6 -1 -1</clus>
<clus scale="   96.570">  2  5  1 -1</clus>
<clus scale="  105.995">  7  8 -1 -1</clus>
<clus scale="   23.171">  2  5  1 -1</clus>
</clustering>
</event>
<event>
 9    1  0.1636528E-005  0.9286359E+02  0.7546771E-02  0.1297917E+00
         21   -1    0    0  501  502  0.00000000000E+00  0.00000000000E+00  0.15440914012E+03  0.15440914012E+03  0.00000000000E+00 0.  1.
         -4   -1    0    0    0  501 -0.00000000000E+00 -0.00000000000E+00 -0.10885254979E+03  0.10885254979E+03  0.00000000000E+00 0.  1.
         23    2    1    2    0    0  0.10626819336E+02 -0.13780666769E+02 -0.42066075602E+02  0.10122569685E+03  0.90411564084E+02 0.  0.
         23    2    1    2    0    0  0.11642205849E+02  0.37644920803E+02  0.38662740640E+02  0.10319309725E+03  0.87185588184E+02 0.  0.
        -11    1    3    3    0    0  0.36466551009E+02 -0.40698362744E+02 -0.22532874778E+02  0.59109191487E+02  0.00000000000E+00 0.  1.
         11    1    3    3    0    0 -0.25839731673E+02  0.26917695974E+02 -0.19533200824E+02  0.42116505362E+02  0.00000000000E+00 0. -1.
        -13    1    4    4    0    0 -0.33960021873E+02  0.35900609922E+02  0.25964662739E+02  0.55823835317E+02  0.00000000000E+00 0. -1.
         13    1    4    4    0    0  0.45602227722E+02  0.17443108817E+01  0.12698077901E+02  0.47369261933E+02  0.00000000000E+00 0.  1.
         -4    1    1    2    0  502 -0.22269025185E+02 -0.23864254034E+02  0.48959925287E+02  0.58842895811E+02  0.00000000000E+00 0.  1.
<scales pt_clust_5="13000.00000" pt_clust_6="13000.00000" pt_clust_7="13000.00000" pt_clust_8="13000.00000" pt_clust_9="32.64065"></scales>
<clustering>
<clus scale="   32.641">  1  9  2 -1</clus>
<clus scale="   87.186">  7  8 -1 -1</clus>
<clus scale="   89.726">  1  7  2 -1</clus>
<clus scale="   90.412">  5  6 -1 -1</clus>
<clus scale="   32.641">  1  5  2 -1</clus>
</clustering>
</event>
<event>
 9    1  0.1636528E-005  0.9461657E+02  0.7546771E-02  0.1292690E+00
         -1   -1    0    0    0  501 -0.00000000000E+00  0.00000000000E+00  0.18087329936E+03  0.18087329936E+03  0.00000000000E+00 0.  1.
         21   -1    0    0  501  502  0.00000000000E+00 -0.00000000000E+00 -0.83776658748E+02  0.83776658748E+02  0.00000000000E+00 0.  1.
         23    2    1    2    0    0 -0.21717496957E+02  0.10513230627E+02  0.91109673673E+02  0.13064622628E+03  0.90472571046E+02 0.  0.
         23    2    1    2    0    0  0.27189639032E+02  0.20849397247E+02  0.18893978161E+02  0.99650424784E+02  0.91647427201E+02 0.  0.
        -13    1    3    3    0    0 -0.54498158035E+02  0.76172788443E+01  0.77466813763E+02  0.95021994301E+02  0.00000000000E+00 0.  1.
         13    1    3    3    0    0  0.32780661079E+02  0.28959517829E+01  0.13642859910E+02  0.35624231978E+02  0.00000000000E+00 0. -1.
        -13    1    4    4    0    0 -0.16891003094E+02 -0.25936560392E+02 -0.44335200232E+01  0.31267671008E+02  0.00000000000E+00 0. -1.
         13    1    4    4    0    0  0.44080642126E+02  0.46785957638E+02  0.23327498185E+02  0.68382753776E+02  0.00000000000E+00 0.  1.
         -1    1    1    2    0  502 -0.54721420750E+01 -0.31362627874E+02 -0.12907011225E+02  0.34353307043E+02  0.00000000000E+00 0.  1.
<scales pt_clust_5="13000.00000" pt_clust_6="13000.00000" pt_clust_7="13000.00000" pt_clust_8="13000.00000" pt_clust_9="31.83644"></scales>
<clustering>
<clus scale="   31.836">  2  9  1 -1</clus>
<clus scale="   90.473">  5  6 -1 -1</clus>
<clus scale="   91.647">  7  8 -1 -1</clus>
<clus scale="   93.479">  1  5  2 -1</clus>
<clus scale="   31.836">  2  5  1 -1</clus>
</clustering>
</event>
<event>
 9    1  0.1636528E-005  0.9327940E+02  0.7546771E-02  0.1295446E+00
          1   -1    0    0  502    0 -0.00000000000E+00  0.00000000000E+00  0.34819068866E+03  0.34819068866E+03  0.00000000000E+00 0. -1.
         21   -1    0    0  501  502  0.00000000000E+00 -0.00000000000E+00 -0.42795232912E+02  0.42795232912E+02  0.00000000000E+00 0.  1.
         23    2    1    2    0    0  0.17663736547E+02  0.69751031698E+01  0.20932983077E+03  0.22921487159E+03  0.91432049399E+02 0.  0.
         23    2    1    2    0    0 -0.20810620327E+02  0.17021714271E+02  0.44171162799E+02  0.10451037124E+03  0.90821282738E+02 0.  0.
        -13    1    4    4    0    0 -0.35472247243E+02 -0.15993519861E+02  0.54475469373E+02  0.66945125031E+02  0.00000000000E+00 0.  1.
         13    1    4    4    0    0  0.14661626916E+02  0.33015234131E+02 -0.10304306575E+02  0.37565246206E+02  0.00000000000E+00 0. -1.
        -13    1    3    3    0    0 -0.25470492722E+02 -0.23262288534E+01  0.14396874411E+02  0.29350082333E+02  0.00000000000E+00 0.  1.
         13    1    3    3    0    0  0.43134229269E+02  0.93013320232E+01  0.19493295636E+03  0.19986478926E+03  0.00000000000E+00 0. -1.
          1    1    1    2  501    0  0.31468837800E+01 -0.23996817440E+02  0.51894462177E+02  0.57260678737E+02  0.00000000000E+00 0. -1.
<scales pt_clust_5="13000.00000" pt_clust_6="13000.00000" pt_clust_7="13000.00000" pt_clust_8="13000.00000" pt_clust_9="24.20229"></scales>
<clustering>
<clus scale="   24.202">  2  9  1 -1</clus>
<clus scale="   90.821">  5  6 -1 -1</clus>
<clus scale="   91.432">  7  8 -1 -1</clus>
<clus scale="   92.681">  2  5  1 -1</clus>
<clus scale="   24.202">  2  5  1 -1</clus>
</clustering>
</event>
<event>
 9    1  0.1636528E-005  0.1185951E+03  0.7546771E-02  0.1250402E+00
          1   -1    0    0  502    0 -0.00000000000E+00  0.00000000000E+00  0.24868748080E+03  0.24868748080E+03  0.00000000000E+00 0. -1.
         21   -1    0    0  501  502  0.00000000000E+00 -0.00000000000E+00 -0.71495430741E+02  0.71495430741E+02  0.00000000000E+00 0.  1.
         23    2    1    2    0    0  0.95694124381E+01 -0.67752805043E+02  0.95186089887E+02  0.14637828032E+03  0.87659528831E+02 0.  0.
         23    2    1    2    0    0  0.62822719414E+01  0.95430128152E+02  0.75089626457E+02  0.14116805995E+03  0.71718845847E+02 0.  0.
        -11    1    3    3    0    0  0.37331346021E+02 -0.29360767790E+02  0.94538843438E+01  0.48425819664E+02  0.00000000000E+00 0.  1.
         11    1    3    3    0    0 -0.27761933583E+02 -0.38392037254E+02  0.85732205543E+02  0.97952460653E+02  0.00000000000E+00 0. -1.
        -11    1    4    4    0    0 -0.28376082753E+02  0.17728294713E+02  0.13246530140E+02  0.35985623054E+02  0.00000000000E+00 0. -1.
         11    1    4    4    0    0  0.34658354695E+02  0.77701833438E+02  0.61843096317E+02  0.10518243690E+03  0.00000000000E+00 0.  1.
          1    1    1    2  501    0 -0.15851684380E+02 -0.27677323108E+02  0.69163337116E+01  0.32636571268E+02  0.00000000000E+00 0. -1.
<scales pt_clust_5="13000.00000" pt_clust_6="13000.00000" pt_clust_7="13000.00000" pt_clust_8="13000.00000" pt_clust_9="31.89530"></scales>
<clustering>
<clus scale="   31.895">  2  9  1 -1</clus>
<clus scale="   71.719">  7  8 -1 -1</clus>
<clus scale="   87.660">  5  6 -1 -1</clus>
<clus scale="  107.351">  2  7  1 -1</clus>
<clus scale="   31.895">  2  5  1 -1</clus>
</clustering>
</event>
<event>
 9    1  0.1636528E-005  0.1694259E+03  0.7546771E-02  0.1202219E+00
         21   -1    0    0  501  502  0.00000000000E+00  0.00000000000E+00  0.39454255013E+03  0.39454255013E+03  0.00000000000E+00 0.  1.
         -1   -1    0    0    0  501 -0.00000000000E+00 -0.00000000000E+00 -0.12853411717E+03  0.12853411717E+03  0.00000000000E+00 0.  1.
         23    2    1    2    0    0 -0.21506013741E+02  0.22843298383E+02  0.28759794681E+02  0.10427467435E+03  0.95193261382E+02 0.  0.
         23    2    1    2    0    0 -0.77050156113E+02  0.90594294616E+02  0.15771949830E+02  0.15115795762E+03  0.91956081775E+02 0.  0.
        -11    1    3    3    0    0 -0.44634514196E+02 -0.21930604055E+02  0.16661670174E+02  0.52448093433E+02  0.00000000000E+00 0. -1.
         11    1    3    3    0    0  0.23128500456E+02  0.44773902438E+02  0.12098124507E+02  0.51826580916E+02  0.00000000000E+00 0.  1.
        -13    1    4    4    0    0 -0.68047210557E+02  0.48115379451E+02 -0.29519983416E+02  0.88413471967E+02  0.00000000000E+00 0.  1.
         13    1    4    4    0    0 -0.90029455553E+01  0.42478915166E+02  0.45291933246E+02  0.62744485650E+02  0.00000000000E+00 0. -1.
         -1    1    1    2    0  502  0.98556169853E+02 -0.11343759300E+03  0.22147668846E+03  0.26764403534E+03  0.00000000000E+00 0.  1.
<scales pt_clust_5="13000.00000" pt_clust_6="13000.00000" pt_clust_7="13000.00000" pt_clust_8="13000.00000" pt_clust_9="142.29972"></scales>
<clustering>
<clus scale="   91.956">  7  8 -1 -1</clus>
<clus scale="   95.193">  5  6 -1 -1</clus>
<clus scale="  100.230">  2  5  1 -1</clus>
<clus scale="  142.300">  1  9  2 -1</clus>
<clus scale="  142.300">  1  5  2 -1</clus>
</clustering>
</event>
<event>
 9    1  0.1636528E-005  0.1287137E+03  0.7546771E-02  0.1230875E+00
         21   -1    0    0  501  502  0.00000000000E+00  0.00000000000E+00  0.29611929672E+03  0.29611929672E+03  0.00000000000E+00 0.  1.
         -3   -1    0    0    0  501 -0.00000000000E+00 -0.00000000000E+00 -0.15065391440E+03  0.15065391440E+03  0.00000000000E+00 0.  1.
         23    2    1    2    0    0 -0.26713795514E+02  0.84646744362E+02 -0.17914738819E+02  0.12812822757E+03  0.90648809318E+02 0.  0.
         23    2    1    2    0    0 -0.46312001138E+02 -0.86656560526E+02 -0.25199462857E+01  0.13737270572E+03  0.95972648265E+02 0.  0.
        -13    1    4    4    0    0  0.19389720551E+02 -0.61525444774E+02  0.11818563421E+02  0.65582162659E+02  0.00000000000E+00 0.  1.
         13    1    4    4    0    0 -0.65701721689E+02 -0.25131115752E+02 -0.14338509706E+02  0.71790543057E+02  0.00000000000E+00 0. -1.
        -13    1    3    3    0    0 -0.44994873478E+02  0.41854404457E+02 -0.43248918677E+02  0.75145184665E+02  0.00000000000E+00 0.  1.
         13    1    3    3    0    0  0.18281077964E+02  0.42792339905E+02  0.25334179858E+02  0.52983042902E+02  0.00000000000E+00 0. -1.
         -3    1    1    2    0  502  0.73025796652E+02  0.20098161643E+01  0.16590006743E+03  0.18127227783E+03  0.00000000000E+00 0.  1.
<scales pt_clust_5="13000.00000" pt_clust_6="13000.00000" pt_clust_7="13000.00000" pt_clust_8="13000.00000" pt_clust_9="73.05345"></scales>
<clustering>
<clus scale="   73.053">  1  9  2 -1</clus>
<clus scale="   90.649">  7  8 -1 -1</clus>
<clus scale="   95.973">  5  6 -1 -1</clus>
<clus scale="  124.795">  2  7  1 -1</clus>
<clus scale="   73.053">  1  5  2 -1</clus>
</clustering>
</event>
<event>
 9    1  0.1636528E-005  0.1286350E+03  0.7546771E-02  0.1236474E+00
         -1   -1    0    0    0  501 -0.00000000000E+00  0.00000000000E+00  0.19275630852E+03  0.19275630852E+03  0.00000000000E+00 0.  1.
         21   -1    0    0  501  502  0.00000000000E+00 -0.00000000000E+00 -0.26873915977E+03  0.26873915977E+03  0.00000000000E+00 0.  1.
         23    2    1    2    0    0  0.11766073462E+02  0.76704233467E+02  0.59635364175E+02  0.13442939674E+03  0.92156964636E+02 0.  0.
         23    2    1    2    0    0  0.30340113228E+01 -0.10339932722E+03  0.54648178320E+02  0.13436689893E+03  0.66086413423E+02 0.  0.
        -11    1    4    4    0    0  0.23204669369E+02 -0.14822945104E+02  0.28960186542E+02  0.39960840665E+02  0.00000000000E+00 0.  1.
         11    1    4    4    0    0 -0.20170658047E+02 -0.88576382118E+02  0.25687991778E+02  0.94406058263E+02  0.00000000000E+00 0. -1.
        -13    1    3    3    0    0 -0.35596241768E+02  0.31928007290E+02  0.48863852824E+02  0.68367873964E+02  0.00000000000E+00 0. -1.
         13    1    3    3    0    0  0.47362315230E+02  0.44776226178E+02  0.10771511351E+02  0.66061522776E+02  0.00000000000E+00 0.  1.
         -1    1    1    2    0  502 -0.14800084785E+02  0.26695093755E+02 -0.19026639374E+03  0.19269917262E+03  0.00000000000E+00 0.  1.
<scales pt_clust_5="13000.00000" pt_clust_6="13000.00000" pt_clust_7="13000.00000" pt_clust_8="13000.00000" pt_clust_9="30.52328"></scales>
<clustering>
<clus scale="   30.523">  2  9  1 -1</clus>
<clus scale="   66.086">  5  6 -1 -1</clus>
<clus scale="   92.157">  7  8 -1 -1</clus>
<clus scale="  111.452">  2  5  1 -1</clus>
<clus scale="   30.523">  2  5  1 -1</clus>
</clustering>
</event>
<event>
 9    1  0.1706176E-005  0.1073150E+03  0.7546771E-02  0.1266447E+00
         21   -1    0    0  501  502  0.00000000000E+00  0.00000000000E+00  0.22426662090E+03  0.22426662090E+03  0.00000000000E+00 0.  1.
         -3   -1    0    0    0  501 -0.00000000000E+00 -0.00000000000E+00 -0.48880043336E+03  0.48880043336E+03  0.00000000000E+00 0.  1.
         23    2    1    2    0    0  0.16393646072E+02 -0.53902815218E+02 -0.38382533843E+03  0.39880873010E+03  0.92478363194E+02 0.  0.
         23    2    1    2    0    0  0.13580770076E+02  0.36019981385E+02 -0.68767002792E+02  0.12298817069E+03  0.94420935608E+02 0.  0.
        -11    1    3    3    0    0 -0.22234537181E+02 -0.63415987443E+02 -0.26978523430E+03  0.27802883799E+03  0.00000000000E+00 0. -1.
         11    1    3    3    0    0  0.38628183253E+02  0.95131722250E+01 -0.11404010413E+03  0.12077989211E+03  0.00000000000E+00 0.  1.
        -11    1    4    4    0    0 -0.27486310684E+02 -0.14530713666E+02 -0.43681113366E+01  0.31396167144E+02  0.00000000000E+00 0.  1.
         11    1    4    4    0    0  0.41067080761E+02  0.50550695051E+02 -0.64398891455E+02  0.91592003543E+02  0.00000000000E+00 0. -1.
         -3    1    1    2    0  502 -0.29974416148E+02  0.17882833833E+02  0.18805852877E+03  0.19127015348E+03  0.00000000000E+00 0.  1.
<scales pt_clust_5="13000.00000" pt_clust_6="13000.00000" pt_clust_7="13000.00000" pt_clust_8="13000.00000" pt_clust_9="34.90360"></scales>
<clustering>
<clus scale="   34.904">  1  9  2 -1</clus>
<clus scale="   92.478">  5  6 -1 -1</clus>
<clus scale="   94.421">  7  8 -1 -1</clus>
<clus scale="  105.610">  2  5  1 -1</clus>
<clus scale="   34.904">  1  5  2 -1</clus>
</clustering>
</event>
<event>
 9    1  0.1636528E-005  0.1206437E+03  0.7546771E-02  0.1244187E+00
          1   -1    0    0  502    0 -0.00000000000E+00  0.00000000000E+00  0.39341432477E+03  0.39341432477E+03  0.00000000000E+00 0. -1.
         21   -1    0    0  501  502  0.00000000000E+00 -0.00000000000E+00 -0.71726377105E+02  0.71726377105E+02  0.00000000000E+00 0.  1.
         23    2    1    2    0    0  0.27056821791E+02  0.80780150494E+02  0.20833293376E+03  0.24566510676E+03  0.98444040320E+02 0.  0.
         23    2    1    2    0    0 -0.21185632652E+02 -0.50678160465E+02  0.14170933433E+03  0.17770756725E+03  0.92094174842E+02 0.  0.
        -13    1    4    4    0    0 -0.57598667368E+02 -0.25902649407E+02  0.81298435808E+02  0.10294653658E+03  0.00000000000E+00 0. -1.
         13    1    4    4    0    0  0.36413034717E+02 -0.24775511058E+02  0.60410898526E+02  0.74761030666E+02  0.00000000000E+00 0.  1.
        -13    1    3    3    0    0  0.61770983409E+02  0.62734437069E+02  0.16678032148E+03  0.18859199245E+03  0.00000000000E+00 0.  1.
         13    1    3    3    0    0 -0.34714161618E+02  0.18045713425E+02  0.41552612278E+02  0.57073114309E+02  0.00000000000E+00 0. -1.
          1    1    1    2  501    0 -0.58711891394E+01 -0.30101990029E+02 -0.28354320422E+02  0.41768027870E+02  0.00000000000E+00 0. -1.
<scales pt_clust_5="13000.00000" pt_clust_6="13000.00000" pt_clust_7="13000.00000" pt_clust_8="13000.00000" pt_clust_9="30.66921"></scales>
<clustering>
<clus scale="   30.669">  2  9  1 -1</clus>
<clus scale="   92.094">  5  6 -1 -1</clus>
<clus scale="   98.444">  7  8 -1 -1</clus>
<clus scale="  115.521">  2  5  1 -1</clus>
<clus scale="   30.669">  2  5  1 -1</clus>
</clustering>
</event>
<event>
 9    1  0.1636528E-005  0.1108236E+03  0.7546771E-02  0.1260611E+00
         -1   -1    0    0    0  501 -0.00000000000E+00  0.00000000000E+00  0.40213459364E+03  0.40213459364E+03  0.00000000000E+00 0.  1.
         21   -1    0    0  501  502  0.00000000000E+00 -0.00000000000E+00 -0.68606799997E+02  0.68606799997E+02  0.00000000000E+00 0. -1.
         23    2    1    2    0    0 -0.41240514868E+02  0.35053843964E+02  0.23940368204E+03  0.26079896866E+03  0.88161369299E+02 0.  0.
         23    2    1    2    0    0  0.66815502728E+02 -0.42626558390E+02  0.12138123542E+03  0.17180613246E+03  0.92209587096E+02 0.  0.
        -13    1    3    3    0    0 -0.61155424771E+02 -0.12959256280E+01  0.15855473219E+03  0.16994489843E+03  0.00000000000E+00 0.  1.
         13    1    3    3    0    0  0.19914909903E+02  0.36349769592E+02  0.80848949857E+02  0.90854070238E+02  0.00000000000E+00 0. -1.
        -13    1    4    4    0    0  0.62156118250E+02  0.10195764023E+02  0.39806647761E+02  0.74511112231E+02  0.00000000000E+00 0. -1.
         13    1    4    4    0    0  0.46593844780E+01 -0.52822322413E+02  0.81574587658E+02  0.97295020224E+02  0.00000000000E+00 0.  1.
         -1    1    1    2    0  502 -0.25574987860E+02  0.75727144258E+01 -0.27257123822E+02  0.38136292516E+02  0.00000000000E+00 0.  1.
<scales pt_clust_5="13000.00000" pt_clust_6="13000.00000" pt_clust_7="13000.00000" pt_clust_8="13000.00000" pt_clust_9="26.67257"></scales>
<clustering>
<clus scale="   26.673">  2  9  1 -1</clus>
<clus scale="   88.161">  5  6 -1 -1</clus>
<clus scale="   92.210">  7  8 -1 -1</clus>
<clus scale="  107.479">  1  5  2 -1</clus>
<clus scale="   26.673">  2  5  1 -1</clus>
</clustering>
</event>
<event>
 9    1  0.1636528E-005  0.1639463E+03  0.7546771E-02  0.1184323E+00
          2   -1    0    0  502    0 -0.00000000000E+00  0.00000000000E+00  0.38768192244E+03  0.38768192244E+03  0.00000000000E+00 0. -1.
         21   -1    0    0  501  502  0.00000000000E+00 -0.00000000000E+00 -0.11177131748E+03  0.11177131748E+03  0.00000000000E+00 0. -1.
         23    2    1    2    0    0 -0.15463778654E+03  0.53914866039E+02  0.20478599931E+03  0.27779812197E+03  0.91732400219E+02 0.  0.
         23    2    1    2    0    0  0.95899495639E+02 -0.43333244476E+02  0.80572627277E+02  0.16122811533E+03  0.91804540015E+02 0.  0.
        -13    1    3    3    0    0 -0.86596319666E+02  0.44726213789E+02  0.52397473358E+02  0.11065645934E+03  0.00000000000E+00 0. -1.
         13    1    3    3    0    0 -0.68041466876E+02  0.91886522500E+01  0.15238852595E+03  0.16714166263E+03  0.00000000000E+00 0.  1.
        -13    1    4    4    0    0  0.10343417576E+02 -0.50981736995E+02  0.42920317097E+02  0.67440917950E+02  0.00000000000E+00 0. -1.
         13    1    4    4    0    0  0.85556078063E+02  0.76484925193E+01  0.37652310179E+02  0.93787197384E+02  0.00000000000E+00 0.  1.
          2    1    1    2  501    0  0.58738290903E+02 -0.10581621563E+02 -0.94480216281E+01  0.60427002622E+02  0.00000000000E+00 0. -1.
<scales pt_clust_5="13000.00000" pt_clust_6="13000.00000" pt_clust_7="13000.00000" pt_clust_8="13000.00000" pt_clust_9="59.68381"></scales>
<clustering>
<clus scale="   59.684">  2  9  1 -1</clus>
<clus scale="   91.732">  5  6 -1 -1</clus>
<clus scale="   91.805">  7  8 -1 -1</clus>
<clus scale="  163.906">  1  5  2 -1</clus>
<clus scale="   59.684">  2  5  1 -1</clus>
</clustering>
</event>
<event>
 9    1  0.1636528E-005  0.9808112E+02  0.7546771E-02  0.1284644E+00
         21   -1    0    0  501  502  0.00000000000E+00  0.00000000000E+00  0.20701450778E+03  0.20701450778E+03  0.00000000000E+00 0.  1.
         -2   -1    0    0    0  501 -0.00000000000E+00 -0.00000000000E+00 -0.14420353807E+03  0.14420353807E+03  0.00000000000E+00 0.  1.
         23    2    1    2    0    0 -0.55058975614E+01 -0.37930869698E+02 -0.70653233190E+02  0.12295020581E+03  0.93036594763E+02 0.  0.
         23    2    1    2    0    0  0.16294055387E+02  0.14110583078E+02  0.28376345334E+01  0.95049632699E+02  0.92529863886E+02 0.  0.
        -11    1    4    4    0    0  0.43064216887E+02  0.23262306292E+02  0.28682552303E+02  0.56730507461E+02  0.00000000000E+00 0.  1.
         11    1    4    4    0    0 -0.26770161500E+02 -0.91517232143E+01 -0.25844917770E+02  0.38319125238E+02  0.00000000000E+00 0. -1.
        -13    1    3    3    0    0  0.20579620427E+02 -0.61238708346E+02 -0.37207696301E+02  0.74552752068E+02  0.00000000000E+00 0.  1.
         13    1    3    3    0    0 -0.26085517988E+02  0.23307838648E+02 -0.33445536889E+02  0.48397453745E+02  0.00000000000E+00 0. -1.
         -2    1    1    2    0  502 -0.10788157826E+02  0.23820286620E+02  0.13062656836E+03  0.13321820734E+03  0.00000000000E+00 0.  1.
<scales pt_clust_5="13000.00000" pt_clust_6="13000.00000" pt_clust_7="13000.00000" pt_clust_8="13000.00000" pt_clust_9="26.14939"></scales>
<clustering>
<clus scale="   26.149">  1  9  2 -1</clus>
<clus scale="   92.530">  5  6 -1 -1</clus>
<clus scale="   93.037">  7  8 -1 -1</clus>
<clus scale="   97.601">  1  5  2 -1</clus>
<clus scale="   26.149">  1  5  2 -1</clus>
</clustering>
</event>
<event>
 9    1  0.1636528E-005  0.1220625E+03  0.7546771E-02  0.1239886E+00
         21   -1    0    0  501  502  0.00000000000E+00  0.00000000000E+00  0.58607319058E+02  0.58607319058E+02  0.00000000000E+00 0. -1.
         -1   -1    0    0    0  501 -0.00000000000E+00 -0.00000000000E+00 -0.34679712167E+03  0.34679712167E+03  0.00000000000E+00 0.  1.
         23    2    1    2    0    0 -0.26451668662E+02  0.75607826009E+02 -0.16299525594E+03  0.20328933325E+03  0.91339287408E+02 0.  0.
         23    2    1    2    0    0  0.68320297864E+01 -0.84007382417E+02 -0.68610949136E+02  0.14164043272E+03  0.90832994600E+02 0.  0.
        -11    1    3    3    0    0 -0.59047633377E+02  0.38232723212E+02 -0.79293619186E+02  0.10599925554E+03  0.00000000000E+00 0.  1.
         11    1    3    3    0    0  0.32595964715E+02  0.37375102796E+02 -0.83701636754E+02  0.97290077706E+02  0.00000000000E+00 0. -1.
        -11    1    4    4    0    0  0.21774253180E+02 -0.42329299660E+02 -0.82491130061E+02  0.95240087411E+02  0.00000000000E+00 0.  1.
         11    1    4    4    0    0 -0.14942223393E+02 -0.41678082757E+02  0.13880180925E+02  0.46400345309E+02  0.00000000000E+00 0. -1.
         -1    1    1    2    0  502  0.19619638875E+02  0.83995564082E+01 -0.56583597537E+02  0.60474674763E+02  0.00000000000E+00 0.  1.
<scales pt_clust_5="13000.00000" pt_clust_6="13000.00000" pt_clust_7="13000.00000" pt_clust_8="13000.00000" pt_clust_9="21.34205"></scales>
<clustering>
<clus scale="   21.342">  1  9  2 -1</clus>
<clus scale="   90.833">  7  8 -1 -1</clus>
<clus scale="   91.339">  5  6 -1 -1</clus>
<clus scale="  121.684">  1  7  2 -1</clus>
<clus scale="   21.342">  1  5  2 -1</clus>
</clustering>
</event>
<event>
 9    1  0.1636528E-005  0.1324850E+03  0.7546771E-02  0.1226630E+00
          1   -1    0    0  502    0 -0.00000000000E+00  0.00000000000E+00  0.95163567744E+03  0.95163567744E+03  0.00000000000E+00 0. -1.
         21   -1    0    0  501  502  0.00000000000E+00 -0.00000000000E+00 -0.42043245496E+02  0.42043245496E+02  0.00000000000E+00 0.  1.
         23    2    1    2    0    0 -0.73466255689E+02  0.39110899539E+02  0.46894730364E+03  0.48266492852E+03  0.78274558107E+02 0.  0.
         23    2    1    2    0    0  0.14281534148E+03 -0.84142917070E+01  0.37267849385E+03  0.40917568712E+03  0.89824612914E+02 0.  0.
        -11    1    3    3    0    0 -0.53585078889E+02  0.62941355183E+02  0.36113981973E+03  0.37047934391E+03  0.00000000000E+00 0.  1.
         11    1    3    3    0    0 -0.19881176800E+02 -0.23830455644E+02  0.10780748391E+03  0.11218558461E+03  0.00000000000E+00 0. -1.
        -13    1    4    4    0    0  0.45320921758E+02 -0.19116820447E+02  0.23525207706E+03  0.24033929877E+03  0.00000000000E+00 0. -1.
         13    1    4    4    0    0  0.97494419727E+02  0.10702528740E+02  0.13742641679E+03  0.16883638835E+03  0.00000000000E+00 0.  1.
          1    1    1    2  501    0 -0.69349085796E+02 -0.30696607832E+02  0.67966634457E+02  0.10183830729E+03  0.00000000000E+00 0. -1.
<scales pt_clust_5="13000.00000" pt_clust_6="13000.00000" pt_clust_7="13000.00000" pt_clust_8="13000.00000" pt_clust_9="75.83916"></scales>
<clustering>
<clus scale="   75.839">  2  9  1 -1</clus>
<clus scale="   78.275">  5  6 -1 -1</clus>
<clus scale="   89.825">  7  8 -1 -1</clus>
<clus scale="  124.943">  1  5  2 -1</clus>
<clus scale="   75.839">  2  5  1 -1</clus>
</clustering>
</event>
<event>
 9    1  0.1636528E-005  0.1055084E+03  0.7546771E-02  0.1274625E+00
         21   -1    0    0  501  502  0.00000000000E+00  0.00000000000E+00  0.44857349757E+03  0.44857349757E+03  0.00000000000E+00 0. -1.
         -3   -1    0    0    0  501 -0.00000000000E+00 -0.00000000000E+00 -0.51792906483E+02  0.51792906483E+02  0.00000000000E+00 0.  1.
         23    2    1    2    0    0 -0.32965028757E+02 -0.16548246981E+02  0.49144040921E+02  0.10989145874E+03  0.91106851267E+02 0.  0.
         23    2    1    2    0    0  0.14100787800E+02 -0.27529498893E+02  0.13282137900E+03  0.17037436595E+03  0.10212345631E+03 0.  0.
        -11    1    3    3    0    0 -0.38226185306E+02 -0.39600658928E+02  0.62057937082E+02  0.82949629206E+02  0.00000000000E+00 0.  1.
         11    1    3    3    0    0  0.52611565487E+01  0.23052411947E+02 -0.12913896160E+02  0.26941829538E+02  0.00000000000E+00 0. -1.
        -13    1    4    4    0    0  0.20352729325E+02 -0.56948770622E+02  0.39271434672E+02  0.72108540740E+02  0.00000000000E+00 0.  1.
         13    1    4    4    0    0 -0.62519415243E+01  0.29419271729E+02  0.93549944325E+02  0.98265825215E+02  0.00000000000E+00 0. -1.
         -3    1    1    2    0  502  0.18864240957E+02  0.44077745874E+02  0.21481517117E+03  0.22010057936E+03  0.00000000000E+00 0.  1.
<scales pt_clust_5="13000.00000" pt_clust_6="13000.00000" pt_clust_7="13000.00000" pt_clust_8="13000.00000" pt_clust_9="47.94484"></scales>
<clustering>
<clus scale="   47.945">  1  9  2 -1</clus>
<clus scale="   91.107">  5  6 -1 -1</clus>
<clus scale="   94.886">  2  5  1 -1</clus>
<clus scale="  102.123">  7  8 -1 -1</clus>
<clus scale="   47.945">  1  5  2 -1</clus>
</clustering>
</event>
<event>
 9    1  0.1636528E-005  0.1265303E+03  0.7546771E-02  0.1232913E+00
          1   -1    0    0  502    0 -0.00000000000E+00  0.00000000000E+00  0.10970474245E+03  0.10970474245E+03  0.00000000000E+00 0. -1.
         21   -1    0    0  501  502  0.00000000000E+00 -0.00000000000E+00 -0.75753415908E+03  0.75753415908E+03  0.00000000000E+00 0. -1.
         23    2    1    2    0    0  0.28270459522E+02  0.78929882288E+02  0.18451172648E+02  0.12464335984E+03  0.90368004182E+02 0.  0.
         23    2    1    2    0    0 -0.13645551213E+03 -0.53527005427E+02 -0.20184660235E+03  0.26505157515E+03  0.89582584841E+02 0.  0.
        -11    1    3    3    0    0  0.51660345222E+02  0.30863249328E+02  0.33810268907E+02  0.69025109280E+02  0.00000000000E+00 0.  1.
         11    1    3    3    0    0 -0.23389885700E+02  0.48066632960E+02 -0.15359096258E+02  0.55618250557E+02  0.00000000000E+00 0. -1.
        -13    1    4    4    0    0 -0.61014158361E+02  0.41877588332E+01 -0.13702844974E+03  0.15005685884E+03  0.00000000000E+00 0.  1.
         13    1    4    4    0    0 -0.75441353771E+02 -0.57714764260E+02 -0.64818152609E+02  0.11499471631E+03  0.00000000000E+00 0. -1.
          1    1    1    2  501    0  0.10818505261E+03 -0.25402876861E+02 -0.46443398693E+03  0.47754396653E+03  0.00000000000E+00 0. -1.
<scales pt_clust_5="13000.00000" pt_clust_6="13000.00000" pt_clust_7="13000.00000" pt_clust_8="13000.00000" pt_clust_9="111.12746"></scales>
<clustering>
<clus scale="   89.583">  7  8 -1 -1</clus>
<clus scale="   90.368">  5  6 -1 -1</clus>
<clus scale="  111.127">  2  9  1 -1</clus>
<clus scale="  125.971">  2  7  1 -1</clus>
<clus scale="  111.127">  2  5  1 -1</clus>
</clustering>
</event>
<event>
 9    1  0.1636528E-005  0.1077563E+03  0.7546771E-02  0.1266818E+00
         -2   -1    0    0    0  501 -0.00000000000E+00  0.00000000000E+00  0.62712590230E+03  0.62712590230E+03  0.00000000000E+00 0.  1.
         21   -1    0    0  501  502  0.00000000000E+00 -0.00000000000E+00 -0.40105384724E+02  0.40105384724E+02  0.00000000000E+00 0. -1.
         23    2    1    2    0    0 -0.40136401688E+02  0.19761872310E+02  0.47796407079E+03  0.48955713397E+03  0.95995167181E+02 0.  0.
         23    2    1    2    0    0  0.65221850659E+02 -0.21625785248E+02  0.96574107491E+02  0.14959279418E+03  0.91268184180E+02 0.  0.
        -11    1    3    3    0    0  0.26675335888E+02 -0.29169900021E+01  0.60658889064E+02  0.66329353969E+02  0.00000000000E+00 0. -1.
         11    1    3    3    0    0 -0.66811737576E+02  0.22678862312E+02  0.41730518172E+03  0.42322778000E+03  0.00000000000E+00 0.  1.
        -11    1    4    4    0    0 -0.22489260264E+02 -0.29579522475E+01  0.94797599289E+01  0.24584185100E+02  0.00000000000E+00 0.  1.
         11    1    4    4    0    0  0.87711110922E+02 -0.18667833000E+02  0.87094347562E+02  0.12500860909E+03  0.00000000000E+00 0. -1.
         -2    1    1    2    0  502 -0.25085448971E+02  0.18639129375E+01  0.12482339301E+02  0.28081358869E+02  0.00000000000E+00 0.  1.
<scales pt_clust_5="13000.00000" pt_clust_6="13000.00000" pt_clust_7="13000.00000" pt_clust_8="13000.00000" pt_clust_9="25.15460"></scales>
<clustering>
<clus scale="   25.155">  2  9  1 -1</clus>
<clus scale="   91.268">  7  8 -1 -1</clus>
<clus scale="   95.995">  5  6 -1 -1</clus>
<clus scale="  103.568">  2  7  1 -1</clus>
<clus scale="   25.155">  2  5  1 -1</clus>
</clustering>
</event>
<event>
 9    1  0.1636528E-005  0.2625946E+03  0.7546771E-02  0.1105629E+00
          2   -1    0    0  502    0 -0.00000000000E+00  0.00000000000E+00  0.68806223315E+03  0.68806223315E+03  0.00000000000E+00 0. -1.
         21   -1    0    0  501  502  0.00000000000E+00 -0.00000000000E+00 -0.15151088343E+03  0.15151088343E+03  0.00000000000E+00 0. -1.
         23    2    1    2    0    0 -0.39046954221E+02 -0.24621922461E+03  0.31898412567E+03  0.41509219951E+03  0.91662917617E+02 0.  0.
         23    2    1    2    0    0 -0.19964918381E+02  0.24526502239E+03  0.24538646042E+03  0.35923352998E+03  0.90998268861E+02 0.  0.
        -11    1    3    3    0    0  0.17906344659E+02 -0.32074518928E+02  0.16861342205E+02  0.40419262789E+02  0.00000000000E+00 0.  1.
         11    1    3    3    0    0 -0.56953298880E+02 -0.21414470569E+03  0.30212278346E+03  0.37467293672E+03  0.00000000000E+00 0. -1.
        -13    1    4    4    0    0  0.17118752742E+02  0.30047802433E+02  0.58273357956E+01  0.35069644552E+02  0.00000000000E+00 0.  1.
         13    1    4    4    0    0 -0.37083671123E+02  0.21521721995E+03  0.23955912462E+03  0.32416388543E+03  0.00000000000E+00 0. -1.
          2    1    1    2  501    0  0.59011872602E+02  0.95420222530E+00 -0.27819236368E+02  0.65247387089E+02  0.00000000000E+00 0. -1.
<scales pt_clust_5="13000.00000" pt_clust_6="13000.00000" pt_clust_7="13000.00000" pt_clust_8="13000.00000" pt_clust_9="59.01959"></scales>
<clustering>
<clus scale="   59.020">  2  9  1 -1</clus>
<clus scale="   90.998">  7  8 -1 -1</clus>
<clus scale="   91.663">  5  6 -1 -1</clus>
<clus scale="  262.363">  2  7  1 -1</clus>
<clus scale="   59.020">  2  5  1 -1</clus>
</clustering>
</event>
<event>
 9    1  0.1636528E-005  0.2254456E+03  0.7546771E-02  0.1165560E+00
          2   -1    0    0  502    0 -0.00000000000E+00  0.00000000000E+00  0.75258455385E+03  0.75258455385E+03  0.00000000000E+00 0. -1.
         21   -1    0    0  501  502  0.00000000000E+00 -0.00000000000E+00 -0.94522455763E+02  0.94522455763E+02  0.00000000000E+00 0. -1.
         23    2    1    2    0    0  0.23975103726E+02 -0.32462626419E+02  0.89985438918E+02  0.13192171925E+03  0.87620391915E+02 0.  0.
         23    2    1    2    0    0 -0.21870249741E+03  0.38360648890E+02  0.30965161506E+03  0.39155425363E+03  0.90157024503E+02 0.  0.
        -13    1    4    4    0    0 -0.15036738776E+02 -0.13428193540E+02  0.38778568894E+01  0.20529434206E+02  0.00000000000E+00 0.  1.
         13    1    4    4    0    0 -0.20366575863E+03  0.51788842430E+02  0.30577375817E+03  0.37102481942E+03  0.00000000000E+00 0. -1.
        -13    1    3    3    0    0  0.49162748011E+02 -0.23545303740E+02  0.89978510480E+02  0.10520213623E+03  0.00000000000E+00 0.  1.
         13    1    3    3    0    0 -0.25187644285E+02 -0.89173226798E+01  0.69284383299E-02  0.26719583013E+02  0.00000000000E+00 0. -1.
          2    1    1    2  501    0  0.19472739368E+03 -0.58980224707E+01  0.25842504411E+03  0.32363103674E+03  0.00000000000E+00 0. -1.
<scales pt_clust_5="13000.00000" pt_clust_6="13000.00000" pt_clust_7="13000.00000" pt_clust_8="13000.00000" pt_clust_9="206.63355"></scales>
<clustering>
<clus scale="   87.620">  7  8 -1 -1</clus>
<clus scale="   90.157">  5  6 -1 -1</clus>
<clus scale="   96.467">  1  7  2 -1</clus>
<clus scale="  206.634">  2  9  1 -1</clus>
<clus scale="  206.634">  2  5  1 -1</clus>
</clustering>
</event>
<event>
 9    1  0.1636528E-005  0.1109530E+03  0.7546771E-02  0.1260768E+00
         -3   -1    0    0    0  501 -0.00000000000E+00  0.00000000000E+00  0.31842429513E+03  0.31842429513E+03  0.00000000000E+00 0.  1.
         21   -1    0    0  501  502  0.00000000000E+00 -0.00000000000E+00 -0.11386415054E+03  0.11386415054E+03  0.00000000000E+00 0. -1.
         23    2    1    2    0    0 -0.39108987485E+02 -0.40799013586E+01  0.11361999823E+03  0.14972963343E+03  0.89237327575E+02 0.  0.
         23    2    1    2    0    0  0.64372240487E+02  0.85573844733E+02  0.12601104672E+03  0.19031206264E+03  0.94197818677E+02 0.  0.
        -11    1    4    4    0    0 -0.97352399607E+01  0.53821780969E+02  0.22585401386E+02  0.59174820317E+02  0.00000000000E+00 0.  1.
         11    1    4    4    0    0  0.74107480448E+02  0.31752063764E+02  0.10342564534E+03  0.13113724233E+03  0.00000000000E+00 0. -1.
        -13    1    3    3    0    0 -0.67621497212E+02  0.11464727948E+01  0.88420391914E+02  0.11132002062E+03  0.00000000000E+00 0.  1.
         13    1    3    3    0    0  0.28512509727E+02 -0.52263741534E+01  0.25199606315E+02  0.38409612809E+02  0.00000000000E+00 0. -1.
         -3    1    1    2    0  502 -0.25263253002E+02 -0.81493943374E+02 -0.35070900366E+02  0.92246749598E+02  0.00000000000E+00 0.  1.
<scales pt_clust_5="13000.00000" pt_clust_6="13000.00000" pt_clust_7="13000.00000" pt_clust_8="13000.00000" pt_clust_9="85.31996"></scales>
<clustering>
<clus scale="   85.320">  2  9  1 -1</clus>
<clus scale="   89.237">  7  8 -1 -1</clus>
<clus scale="   94.198">  5  6 -1 -1</clus>
<clus scale="  106.774">  1  7  2 -1</clus>
<clus scale="   85.320">  2  5  1 -1</clus>
</clustering>
</event>
<event>
 9    1  0.1636528E-005  0.1047610E+03  0.7546771E-02  0.1271897E+00
         21   -1    0    0  501  502  0.00000000000E+00  0.00000000000E+00  0.56409993828E+03  0.56409993828E+03  0.00000000000E+00 0. -1.
          2   -1    0    0  502    0 -0.00000000000E+00 -0.00000000000E+00 -0.13221316352E+03  0.13221316352E+03  0.00000000000E+00 0. -1.
         23    2    1    2    0    0  0.23278710451E+02  0.12296117886E+02 -0.51230567677E+01  0.92390787839E+02  0.88412211213E+02 0.  0.
         23    2    1    2    0    0 -0.79772321694E+02  0.51255900086E+01 -0.36450180856E+02  0.12678561726E+03  0.91411608011E+02 0.  0.
        -11    1    4    4    0    0 -0.55328688670E+02 -0.24716515828E+02  0.15050977379E+02  0.62439585719E+02  0.00000000000E+00 0. -1.
         11    1    4    4    0    0 -0.24443633024E+02  0.29842105837E+02 -0.51501158234E+02  0.64346031546E+02  0.00000000000E+00 0.  1.
        -13    1    3    3    0    0  0.49277980680E+02  0.14665155622E+02 -0.27231548179E+02  0.58180266290E+02  0.00000000000E+00 0.  1.
         13    1    3    3    0    0 -0.25999270229E+02 -0.23690377357E+01  0.22108491411E+02  0.34210521550E+02  0.00000000000E+00 0. -1.
          2    1    1    2  501    0  0.56493611243E+02 -0.17421707895E+02  0.47346001238E+03  0.47713669670E+03  0.00000000000E+00 0. -1.
<scales pt_clust_5="13000.00000" pt_clust_6="13000.00000" pt_clust_7="13000.00000" pt_clust_8="13000.00000" pt_clust_9="59.11890"></scales>
<clustering>
<clus scale="   59.119">  1  9  2 -1</clus>
<clus scale="   88.412">  7  8 -1 -1</clus>
<clus scale="   91.412">  5  6 -1 -1</clus>
<clus scale="  102.154">  2  7  1 -1</clus>
<clus scale="   59.119">  1  5  2 -1</clus>
</clustering>
</event>
<event>
 9    1  0.1636528E-005  0.1424622E+03  0.7546771E-02  0.1210725E+00
          1   -1    0    0  502    0 -0.00000000000E+00  0.00000000000E+00  0.43906051980E+03  0.43906051980E+03  0.00000000000E+00 0. -1.
         21   -1    0    0  501  502  0.00000000000E+00 -0.00000000000E+00 -0.15650155922E+03  0.15650155922E+03  0.00000000000E+00 0. -1.
         23    2    1    2    0    0 -0.13141003951E+02 -0.85117681187E+02  0.12830281829E+03  0.17960763934E+03  0.91540074792E+02 0.  0.
         23    2    1    2    0    0  0.12923713735E+03  0.84941117746E+02  0.21797691551E+03  0.28352075702E+03  0.94619516026E+02 0.  0.
        -11    1    4    4    0    0  0.40707028677E+02  0.25036050324E+02  0.14857906157E+03  0.15607563403E+03  0.00000000000E+00 0. -1.
         11    1    4    4    0    0  0.88530108670E+02  0.59905067423E+02  0.69397853942E+02  0.12744512300E+03  0.00000000000E+00 0.  1.
        -13    1    3    3    0    0 -0.12830586420E+02  0.17180267656E+02  0.11468655157E+02  0.24316981633E+02  0.00000000000E+00 0. -1.
         13    1    3    3    0    0 -0.31041753109E+00 -0.10229794884E+03  0.11683416313E+03  0.15529065771E+03  0.00000000000E+00 0.  1.
          1    1    1    2  501    0 -0.11609613340E+03  0.17656344057E+00 -0.63720773209E+02  0.13243368266E+03  0.00000000000E+00 0. -1.
<scales pt_clust_5="13000.00000" pt_clust_6="13000.00000" pt_clust_7="13000.00000" pt_clust_8="13000.00000" pt_clust_9="116.09627"></scales>
<clustering>
<clus scale="   91.540">  7  8 -1 -1</clus>
<clus scale="   94.620">  5  6 -1 -1</clus>
<clus scale="  116.096">  2  9  1 -1</clus>
<clus scale="  140.436">  1  7  2 -1</clus>
<clus scale="  116.096">  2  5  1 -1</clus>
</clustering>
</event>
<event>
 9    1  0.1636528E-005  0.9510466E+02  0.7546771E-02  0.1292048E+00
         -2   -1    0    0    0  501 -0.00000000000E+00  0.00000000000E+00  0.54479239007E+03  0.54479239007E+03  0.00000000000E+00 0.  1.
         21   -1    0    0  501  502  0.00000000000E+00 -0.00000000000E+00 -0.25565538543E+02  0.25565538543E+02  0.00000000000E+00 0. -1.
         23    2    1    2    0    0  0.40809847509E+02 -0.47834579743E+01  0.32268073059E+03  0.33712010546E+03  0.88536921619E+02 0.  0.
         23    2    1    2    0    0 -0.63405330486E+01  0.59756626510E+01  0.14629115311E+03  0.17228606532E+03  0.90584082053E+02 0.  0.
        -11    1    4    4    0    0 -0.32663688595E+02  0.35623389318E+02  0.57974446140E+02  0.75478333476E+02  0.00000000000E+00 0.  1.
         11    1    4    4    0    0  0.26323155547E+02 -0.29647726667E+02  0.88316706970E+02  0.96807731843E+02  0.00000000000E+00 0. -1.
        -13    1    3    3    0    0  0.23818711755E+02  0.41372600125E+02  0.17888168806E+03  0.18514232740E+03  0.00000000000E+00 0.  1.
         13    1    3    3    0    0  0.16991135754E+02 -0.46156058099E+02  0.14379904253E+03  0.15197777807E+03  0.00000000000E+00 0. -1.
         -2    1    1    2    0  502 -0.34469314460E+02 -0.11922046768E+01  0.50254967823E+02  0.60951757827E+02  0.00000000000E+00 0.  1.
<scales pt_clust_5="13000.00000" pt_clust_6="13000.00000" pt_clust_7="13000.00000" pt_clust_8="13000.00000" pt_clust_9="34.48993"></scales>
<clustering>
<clus scale="   34.490">  2  9  1 -1</clus>
<clus scale="   88.537">  7  8 -1 -1</clus>
<clus scale="   90.584">  5  6 -1 -1</clus>
<clus scale="   93.157">  1  7  2 -1</clus>
<clus scale="   34.490">  2  5  1 -1</clus>
</clustering>
</event>
<event>
 9    1  0.1636528E-005  0.1834618E+03  0.7546771E-02  0.1165012E+00
          3   -1    0    0  502    0 -0.00000000000E+00  0.00000000000E+00  0.42980643128E+03  0.42980643128E+03  0.00000000000E+00 0. -1.
         21   -1    0    0  501  502  0.00000000000E+00 -0.00000000000E+00 -0.13946694291E+03  0.13946694291E+03  0.00000000000E+00 0.  1.
         23    2    1    2    0    0 -0.14534850826E+03 -0.89294902387E+02  0.30352062203E+03  0.35874668627E+03  0.86456049315E+02 0.  0.
         23    2    1    2    0    0  0.11359705900E+03  0.63901954888E+02  0.17085549241E+02  0.15984110411E+03  0.90936851258E+02 0.  0.
        -13    1    3    3    0    0 -0.29485465728E+02 -0.61593946822E+02  0.14664910690E+03  0.16176887070E+03  0.00000000000E+00 0. -1.
         13    1    3    3    0    0 -0.11586304254E+03 -0.27700955565E+02  0.15687151513E+03  0.19697781556E+03  0.00000000000E+00 0.  1.
        -13    1    4    4    0    0  0.98899463400E+02  0.45755834761E+02 -0.24917146756E+02  0.11178356086E+03  0.00000000000E+00 0.  1.
         13    1    4    4    0    0  0.14697595602E+02  0.18146120127E+02  0.42002695997E+02  0.48057543249E+02  0.00000000000E+00 0. -1.
          3    1    1    2  501    0  0.31751449262E+02  0.25392947499E+02 -0.30266682907E+02  0.50685583820E+02  0.00000000000E+00 0. -1.
<scales pt_clust_5="13000.00000" pt_clust_6="13000.00000" pt_clust_7="13000.00000" pt_clust_8="13000.00000" pt_clust_9="40.65657"></scales>
<clustering>
<clus scale="   40.657">  2  9  1 -1</clus>
<clus scale="   86.456">  5  6 -1 -1</clus>
<clus scale="   90.937">  7  8 -1 -1</clus>
<clus scale="  181.283">  1  5  2 -1</clus>
<clus scale="   40.657">  2  5  1 -1</clus>
</clustering>
</event>
<event>
 9    1  0.1636528E-005  0.9774881E+02  0.7546771E-02  0.1287665E+00
         21   -1    0    0  501  502  0.00000000000E+00  0.00000000000E+00  0.39171282566E+03  0.39171282566E+03  0.00000000000E+00 0. -1.
         -2   -1    0    0    0  501 -0.00000000000E+00 -0.00000000000E+00 -0.38320939321E+02  0.38320939321E+02  0.00000000000E+00 0.  1.
         23    2    1    2    0    0 -0.32414734843E+02 -0.32619062424E+02  0.11215564930E+03  0.14839294386E+03  0.85597066813E+02 0.  0.
         23    2    1    2    0    0  0.35747117875E+02 -0.63158889021E+01  0.12239348236E+03  0.15653832095E+03  0.90588821124E+02 0.  0.
        -11    1    3    3    0    0 -0.52286488637E+01  0.23018600628E+02  0.68968555657E+02  0.72896203009E+02  0.00000000000E+00 0.  1.
         11    1    3    3    0    0 -0.27186085979E+02 -0.55637663052E+02  0.43187093647E+02  0.75496740846E+02  0.00000000000E+00 0. -1.
        -13    1    4    4    0    0  0.45859622780E+02  0.24644184161E+02  0.33607478121E+02  0.61966954098E+02  0.00000000000E+00 0.  1.
         13    1    4    4    0    0 -0.10112504905E+02 -0.30960073063E+02  0.88786004239E+02  0.94571366852E+02  0.00000000000E+00 0. -1.
         -2    1    1    2    0  502 -0.33323830323E+01  0.38934951326E+02  0.11884275467E+03  0.12510250017E+03  0.00000000000E+00 0.  1.
<scales pt_clust_5="13000.00000" pt_clust_6="13000.00000" pt_clust_7="13000.00000" pt_clust_8="13000.00000" pt_clust_9="39.07730"></scales>
<clustering>
<clus scale="   39.077">  1  9  2 -1</clus>
<clus scale="   85.597">  5  6 -1 -1</clus>
<clus scale="   90.589">  7  8 -1 -1</clus>
<clus scale="   93.142">  2  5  1 -1</clus>
<clus scale="   39.077">  1  5  2 -1</clus>
</clustering>
</event>
<event>
 9    1  0.1636528E-005  0.1826452E+03  0.7546771E-02  0.1165309E+00
         21   -1    0    0  501  502  0.00000000000E+00  0.00000000000E+00  0.43061782628E+03  0.43061782628E+03  0.00000000000E+00 0. -1.
          4   -1    0    0  502    0 -0.00000000000E+00 -0.00000000000E+00 -0.24204928024E+03  0.24204928024E+03  0.00000000000E+00 0. -1.
         23    2    1    2    0    0 -0.13748639778E+03  0.72923516492E+02 -0.13461479715E+03  0.22515101243E+03  0.91386464844E+02 0.  0.
         23    2    1    2    0    0  0.17646622428E+03 -0.19491162558E+02  0.11769534173E+03  0.23164631375E+03  0.91036187727E+02 0.  0.
        -11    1    4    4    0    0  0.13652166114E+03  0.24681662471E+02  0.70275473131E+02  0.15551845725E+03  0.00000000000E+00 0. -1.
         11    1    4    4    0    0  0.39944563141E+02 -0.44172825030E+02  0.47419868603E+02  0.76127856491E+02  0.00000000000E+00 0.  1.
        -13    1    3    3    0    0 -0.53549931712E+02  0.91444304820E+01 -0.10068634402E+03  0.11440697386E+03  0.00000000000E+00 0. -1.
         13    1    3    3    0    0 -0.83936466065E+02  0.63779086011E+02 -0.33928453129E+02  0.11074403857E+03  0.00000000000E+00 0.  1.
          4    1    1    2  501    0 -0.38979826504E+02 -0.53432353934E+02  0.20548800146E+03  0.21586978034E+03  0.00000000000E+00 0. -1.
<scales pt_clust_5="13000.00000" pt_clust_6="13000.00000" pt_clust_7="13000.00000" pt_clust_8="13000.00000" pt_clust_9="66.13957"></scales>
<clustering>
<clus scale="   66.140">  1  9  2 -1</clus>
<clus scale="   91.036">  5  6 -1 -1</clus>
<clus scale="   91.386">  7  8 -1 -1</clus>
<clus scale="  182.470">  1  5  2 -1</clus>
<clus scale="   66.140">  1  5  2 -1</clus>
</clustering>
</event>
<event>
 9    1  0.1636528E-005  0.9428897E+02  0.7546771E-02  0.1292921E+00
         21   -1    0    0  501  502  0.00000000000E+00  0.00000000000E+00  0.54654974582E+02  0.54654974582E+02  0.00000000000E+00 0.  1.
          1   -1    0    0  502    0 -0.00000000000E+00 -0.00000000000E+00 -0.22350588424E+03  0.22350588424E+03  0.00000000000E+00 0. -1.
         23    2    1    2    0    0 -0.83030824329E+01  0.15564569469E+02 -0.80433624021E+02  0.12297037966E+03  0.91328798306E+02 0.  0.
         23    2    1    2    0    0  0.34097823665E+02 -0.23940806368E+01 -0.75348345211E+02  0.12341584061E+03  0.91573486264E+02 0.  0.
        -11    1    3    3    0    0 -0.47014486344E+02  0.22063553271E+02 -0.33570293539E+02  0.61839525527E+02  0.00000000000E+00 0.  1.
         11    1    3    3    0    0  0.38711403911E+02 -0.64989838019E+01 -0.46863330482E+02  0.61130854134E+02  0.00000000000E+00 0. -1.
        -13    1    4    4    0    0  0.32055449024E+02  0.39719977431E+02 -0.22425703290E+02  0.55750700330E+02  0.00000000000E+00 0.  1.
         13    1    4    4    0    0  0.20423746417E+01 -0.42114058068E+02 -0.52922641920E+02  0.67665140279E+02  0.00000000000E+00 0. -1.
          1    1    1    2  501    0 -0.25794741233E+02 -0.13170488833E+02 -0.13068940427E+02  0.31774638554E+02  0.00000000000E+00 0. -1.
<scales pt_clust_5="13000.00000" pt_clust_6="13000.00000" pt_clust_7="13000.00000" pt_clust_8="13000.00000" pt_clust_9="28.96257"></scales>
<clustering>
<clus scale="   28.963">  1  9  2 -1</clus>
<clus scale="   91.329">  5  6 -1 -1</clus>
<clus scale="   91.573">  7  8 -1 -1</clus>
<clus scale="   94.051">  2  5  1 -1</clus>
<clus scale="   28.963">  1  5  2 -1</clus>
</clustering>
</event>
<event>
 9    1  0.1636528E-005  0.1112912E+03  0.7546771E-02  0.1262702E+00
          2   -1    0    0  502    0 -0.00000000000E+00  0.00000000000E+00  0.26986672038E+03  0.26986672038E+03  0.00000000000E+00 0. -1.
         21   -1    0    0  501  502  0.00000000000E+00 -0.00000000000E+00 -0.92691950278E+02  0.92691950278E+02  0.00000000000E+00 0. -1.
         23    2    1    2    0    0 -0.40259925817E+02 -0.15943123244E+02  0.15525531888E+03  0.19101769697E+03  0.10251098337E+03 0.  0.
         23    2    1    2    0    0  0.51277584765E+02 -0.39675509786E+02  0.22029030407E+02  0.11484147496E+03  0.92194085572E+02 0.  0.
        -13    1    4    4    0    0  0.64931312632E+02 -0.18551221813E+02 -0.15856905325E+02  0.69366163491E+02  0.00000000000E+00 0.  1.
         13    1    4    4    0    0 -0.13653727867E+02 -0.21124287973E+02  0.37885935732E+02  0.45475311470E+02  0.00000000000E+00 0. -1.
        -13    1    3    3    0    0  0.17113531587E+02  0.14131038984E+02 -0.63662805729E+00  0.22202804360E+02  0.00000000000E+00 0.  1.
         13    1    3    3    0    0 -0.57373457404E+02 -0.30074162228E+02  0.15589194693E+03  0.16881489261E+03  0.00000000000E+00 0. -1.
          2    1    1    2  501    0 -0.11017658948E+02  0.55618633029E+02 -0.10957917668E+00  0.56699498731E+02  0.00000000000E+00 0. -1.
<scales pt_clust_5="13000.00000" pt_clust_6="13000.00000" pt_clust_7="13000.00000" pt_clust_8="13000.00000" pt_clust_9="56.69939"></scales>
<clustering>
<clus scale="   56.699">  2  9  1 -1</clus>
<clus scale="   92.194">  5  6 -1 -1</clus>
<clus scale="  101.867">  2  5  1 -1</clus>
<clus scale="  102.511">  7  8 -1 -1</clus>
<clus scale="   56.699">  2  5  1 -1</clus>
</clustering>
</event>
<event>
 9    1  0.1636528E-005  0.1102813E+03  0.7546771E-02  0.1261059E+00
         21   -1    0    0  501  502  0.00000000000E+00  0.00000000000E+00  0.60926927698E+02  0.60926927698E+02  0.00000000000E+00 0.  1.
          2   -1    0    0  502    0 -0.00000000000E+00 -0.00000000000E+00 -0.41997332224E+03  0.41997332224E+03  0.00000000000E+00 0. -1.
         23    2    1    2    0    0 -0.24004583103E+02 -0.47377502955E+02 -0.24703780149E+03  0.26783458384E+03  0.88807888959E+02 0.  0.
         23    2    1    2    0    0  0.61417628599E+02  0.61392602074E+02 -0.11796221430E+03  0.17267254066E+03  0.91430550717E+02 0.  0.
        -11    1    4    4    0    0  0.73069994312E+02  0.27603670470E+02 -0.11183095681E+03  0.13640875923E+03  0.00000000000E+00 0. -1.
         11    1    4    4    0    0 -0.11652365713E+02  0.33788931604E+02 -0.61312574858E+01  0.36263781436E+02  0.00000000000E+00 0.  1.
        -13    1    3    3    0    0 -0.19247484159E+02 -0.67542778030E+01 -0.32691770329E+01  0.20658495433E+02  0.00000000000E+00 0.  1.
         13    1    3    3    0    0 -0.47570989435E+01 -0.40623225152E+02 -0.24376862445E+03  0.24717608841E+03  0.00000000000E+00 0. -1.
          2    1    1    2  501    0 -0.37413045497E+02 -0.14015099119E+02  0.59536212409E+01  0.40393125436E+02  0.00000000000E+00 0. -1.
<scales pt_clust_5="13000.00000" pt_clust_6="13000.00000" pt_clust_7="13000.00000" pt_clust_8="13000.00000" pt_clust_9="39.95196"></scales>
<clustering>
<clus scale="   39.952">  1  9  2 -1</clus>
<clus scale="   88.808">  7  8 -1 -1</clus>
<clus scale="   91.431">  5  6 -1 -1</clus>
<clus scale="  108.117">  2  7  1 -1</clus>
<clus scale="   39.952">  1  5  2 -1</clus>
</clustering>
</event>
<event>
 9    1  0.1636528E-005  0.1297208E+03  0.7546771E-02  0.1228080E+00
         21   -1    0    0  501  502  0.00000000000E+00  0.00000000000E+00  0.33998269480E+02  0.33998269480E+02  0.00000000000E+00 0.  1.
          1   -1    0    0  502    0 -0.00000000000E+00 -0.00000000000E+00 -0.94355910508E+03  0.94355910508E+03  0.00000000000E+00 0. -1.
         23    2    1    2    0    0 -0.67822525134E+02 -0.33233188612E+02 -0.48075434379E+03  0.49552669718E+03  0.93368243016E+02 0.  0.
         23    2    1    2    0    0  0.93874002074E+02  0.87772300219E+02 -0.33301382723E+03  0.36876360920E+03  0.92585557172E+02 0.  0.
        -11    1    4    4    0    0  0.59562104794E+02  0.95494179629E+01 -0.21353436381E+03  0.22189132529E+03  0.00000000000E+00 0. -1.
         11    1    4    4    0    0  0.34311897280E+02  0.78222882256E+02 -0.11947946341E+03  0.14687228391E+03  0.00000000000E+00 0.  1.
        -13    1    3    3    0    0 -0.53807508560E+02  0.25450555923E+02 -0.25423166499E+03  0.26110671814E+03  0.00000000000E+00 0.  1.
         13    1    3    3    0    0 -0.14015016574E+02 -0.58683744535E+02 -0.22652267880E+03  0.23441997904E+03  0.00000000000E+00 0. -1.
          1    1    1    2  501    0 -0.26051476941E+02 -0.54539111607E+02 -0.95792664584E+02  0.11326706818E+03  0.00000000000E+00 0. -1.
<scales pt_clust_5="13000.00000" pt_clust_6="13000.00000" pt_clust_7="13000.00000" pt_clust_8="13000.00000" pt_clust_9="60.44166"></scales>
<clustering>
<clus scale="   60.442">  1  9  2 -1</clus>
<clus scale="   92.586">  5  6 -1 -1</clus>
<clus scale="   93.368">  7  8 -1 -1</clus>
<clus scale="  129.159">  1  5  2 -1</clus>
<clus scale="   60.442">  1  5  2 -1</clus>
</clustering>
</event>
<event>
 9    1  0.1636528E-005  0.9316904E+02  0.7546771E-02  0.1295421E+00
         21   -1    0    0  501  502  0.00000000000E+00  0.00000000000E+00  0.98689048032E+02  0.98689048032E+02  0.00000000000E+00 0. -1.
         -4   -1    0    0    0  501 -0.00000000000E+00 -0.00000000000E+00 -0.21279768574E+03  0.21279768574E+03  0.00000000000E+00 0.  1.
         23    2    1    2    0    0  0.18344139858E+02  0.14760492919E+02 -0.12439058797E+03  0.15627193818E+03  0.91616159423E+02 0.  0.
         23    2    1    2    0    0  0.23329563467E+02 -0.55141331181E+01  0.40523341356E+02  0.10290098811E+03  0.91497529819E+02 0.  0.
        -13    1    4    4    0    0  0.29448602583E+02  0.36453927707E+02  0.41819542990E+01  0.47048887140E+02  0.00000000000E+00 0.  1.
         13    1    4    4    0    0 -0.61190391163E+01 -0.41968060825E+02  0.36341387057E+02  0.55852100966E+02  0.00000000000E+00 0. -1.
        -13    1    3    3    0    0  0.52475675512E+02 -0.82409114385E+01 -0.76362810898E+02  0.93020901038E+02  0.00000000000E+00 0.  1.
         13    1    3    3    0    0 -0.34131535654E+02  0.23001404358E+02 -0.48027777075E+02  0.63251037140E+02  0.00000000000E+00 0. -1.
         -4    1    1    2    0  502 -0.41673703325E+02 -0.92463598010E+01 -0.30241391088E+02  0.52313807483E+02  0.00000000000E+00 0.  1.
<scales pt_clust_5="13000.00000" pt_clust_6="13000.00000" pt_clust_7="13000.00000" pt_clust_8="13000.00000" pt_clust_9="42.68717"></scales>
<clustering>
<clus scale="   42.687">  1  9  2 -1</clus>
<clus scale="   91.498">  5  6 -1 -1</clus>
<clus scale="   91.616">  7  8 -1 -1</clus>
<clus scale="   93.052">  1  5  2 -1</clus>
<clus scale="   42.687">  1  5  2 -1</clus>
</clustering>
</event>
<event>
 9    1  0.1636528E-005  0.2551017E+03  0.7546771E-02  0.1150732E+00
         21   -1    0    0  501  502  0.00000000000E+00  0.00000000000E+00  0.51287941189E+03  0.51287941189E+03  0.00000000000E+00 0. -1.
          2   -1    0    0  502    0 -0.00000000000E+00 -0.00000000000E+00 -0.53140288429E+03  0.53140288429E+03  0.00000000000E+00 0. -1.
         23    2    1    2    0    0 -0.22898146471E+02 -0.91809818842E+01 -0.11970359051E+03  0.15228638621E+03  0.90849206409E+02 0.  0.
         23    2    1    2    0    0 -0.12589888854E+03 -0.17906171146E+03 -0.32535789207E+03  0.40259776597E+03  0.91178816541E+02 0.  0.
        -11    1    4    4    0    0 -0.67429023986E+02 -0.24410178222E+02 -0.93791166359E+02  0.11806486761E+03  0.00000000000E+00 0.  1.
         11    1    4    4    0    0 -0.58469864557E+02 -0.15465153324E+03 -0.23156672571E+03  0.28453289836E+03  0.00000000000E+00 0. -1.
        -11    1    3    3    0    0 -0.24783992210E+02 -0.41917753231E+02 -0.10618379656E+03  0.11681756271E+03  0.00000000000E+00 0. -1.
         11    1    3    3    0    0  0.18858457383E+01  0.32736771346E+02 -0.13519793951E+02  0.35468823505E+02  0.00000000000E+00 0.  1.
          2    1    1    2  501    0  0.14879703501E+03  0.18824269335E+03  0.42653801017E+03  0.48939814400E+03  0.00000000000E+00 0. -1.
<scales pt_clust_5="13000.00000" pt_clust_6="13000.00000" pt_clust_7="13000.00000" pt_clust_8="13000.00000" pt_clust_9="238.25051"></scales>
<clustering>
<clus scale="   90.849">  7  8 -1 -1</clus>
<clus scale="   91.179">  5  6 -1 -1</clus>
<clus scale="   94.139">  2  7  1 -1</clus>
<clus scale="  238.251">  1  9  2 -1</clus>
<clus scale="  238.251">  1  5  2 -1</clus>
</clustering>
</event>
<event>
 9    1  0.1636528E-005  0.1635836E+03  0.7546771E-02  0.1186233E+00
         21   -1    0    0  501  502  0.00000000000E+00  0.00000000000E+00  0.99955557057E+02  0.99955557057E+02  0.00000000000E+00 0. -1.
          2   -1    0    0  502    0 -0.00000000000E+00 -0.00000000000E+00 -0.49364844905E+03  0.49364844905E+03  0.00000000000E+00 0. -1.
         23    2    1    2    0    0  0.47782476564E+02 -0.12759916345E+03 -0.30552932939E+03  0.34914759931E+03  0.99955807249E+02 0.  0.
         23    2    1    2    0    0 -0.66486574644E+02  0.10046144450E+03 -0.12437361685E+03  0.19549247004E+03  0.90749891650E+02 0.  0.
        -11    1    4    4    0    0 -0.88276708569E+02  0.91738444861E+02 -0.10333025130E+03  0.16396908360E+03  0.00000000000E+00 0.  1.
         11    1    4    4    0    0  0.21790133925E+02  0.87229996364E+01 -0.21043365549E+02  0.31523386442E+02  0.00000000000E+00 0. -1.
        -13    1    3    3    0    0 -0.17666879582E+02 -0.72535793148E+02 -0.19892286457E+03  0.21247085911E+03  0.00000000000E+00 0.  1.
         13    1    3    3    0    0  0.65449356146E+02 -0.55063370304E+02 -0.10660646482E+03  0.13667674019E+03  0.00000000000E+00 0. -1.
          2    1    1    2  501    0  0.18704098080E+02  0.27137718955E+02  0.36210054246E+02  0.48963936765E+02  0.00000000000E+00 0. -1.
<scales pt_clust_5="13000.00000" pt_clust_6="13000.00000" pt_clust_7="13000.00000" pt_clust_8="13000.00000" pt_clust_9="32.95905"></scales>
<clustering>
<clus scale="   32.959">  1  9  2 -1</clus>
<clus scale="   90.750">  5  6 -1 -1</clus>
<clus scale="   99.956">  7  8 -1 -1</clus>
<clus scale="  158.126">  1  5  2 -1</clus>
<clus scale="   32.959">  1  5  2 -1</clus>
</clustering>
</event>
<event>
 9    1  0.1636528E-005  0.1190292E+03  0.7546771E-02  0.1244751E+00
         21   -1    0    0  501  502  0.00000000000E+00  0.00000000000E+00  0.26549593607E+03  0.26549593607E+03  0.00000000000E+00 0.  1.
         -1   -1    0    0    0  501 -0.00000000000E+00 -0.00000000000E+00 -0.14746381359E+03  0.14746381359E+03  0.00000000000E+00 0.  1.
         23    2    1    2    0    0  0.46318570273E+02  0.67558260412E+02 -0.64184206555E+02  0.13809976270E+03  0.90787684100E+02 0.  0.
         23    2    1    2    0    0 -0.52151862612E+02 -0.44580990907E+02  0.25976254359E+02  0.11683168839E+03  0.90926322360E+02 0.  0.
        -13    1    3    3    0    0  0.39233581547E+02  0.25509616093E+02 -0.79948355825E+02  0.92637757061E+02  0.00000000000E+00 0.  1.
         13    1    3    3    0    0  0.70849887265E+01  0.42048644320E+02  0.15764149270E+02  0.45462005638E+02  0.00000000000E+00 0. -1.
        -13    1    4    4    0    0 -0.15691784956E+02 -0.68297938510E+02  0.11658610382E+02  0.71040577953E+02  0.00000000000E+00 0. -1.
         13    1    4    4    0    0 -0.36460077655E+02  0.23716947603E+02  0.14317643977E+02  0.45791110440E+02  0.00000000000E+00 0.  1.
         -1    1    1    2    0  502  0.58332923385E+01 -0.22977269506E+02  0.15624007467E+03  0.15802829857E+03  0.00000000000E+00 0.  1.
<scales pt_clust_5="13000.00000" pt_clust_6="13000.00000" pt_clust_7="13000.00000" pt_clust_8="13000.00000" pt_clust_9="23.70616"></scales>
<clustering>
<clus scale="   23.706">  1  9  2 -1</clus>
<clus scale="   90.788">  5  6 -1 -1</clus>
<clus scale="   90.926">  7  8 -1 -1</clus>
<clus scale="  118.923">  2  5  1 -1</clus>
<clus scale="   23.706">  1  5  2 -1</clus>
</clustering>
</event>
<event>
 9    1  0.1636528E-005  0.2382520E+03  0.7546771E-02  0.1120992E+00
         21   -1    0    0  501  502  0.00000000000E+00  0.00000000000E+00  0.11678464245E+03  0.11678464245E+03  0.00000000000E+00 0. -1.
          2   -1    0    0  502    0 -0.00000000000E+00 -0.00000000000E+00 -0.10113141283E+04  0.10113141283E+04  0.00000000000E+00 0. -1.
         23    2    1    2    0    0  0.12916600457E+03  0.16646960269E+03 -0.49589913195E+03  0.54661122993E+03  0.92042937073E+02 0.  0.
         23    2    1    2    0    0 -0.13708088826E+03 -0.18548793165E+03 -0.45666805160E+03  0.51990250545E+03  0.92498449220E+02 0.  0.
        -11    1    4    4    0    0 -0.15092298682E+03 -0.16733967087E+03 -0.42195253150E+03  0.47835577998E+03  0.00000000000E+00 0.  1.
         11    1    4    4    0    0  0.13842098560E+02 -0.18148260777E+02 -0.34715520101E+02  0.41546725475E+02  0.00000000000E+00 0. -1.
        -11    1    3    3    0    0  0.13692630268E+03  0.11818735810E+03 -0.39825034173E+03  0.43740187319E+03  0.00000000000E+00 0. -1.
         11    1    3    3    0    0 -0.77602981091E+01  0.48282244593E+02 -0.97648790217E+02  0.10920935674E+03  0.00000000000E+00 0.  1.
          2    1    1    2  501    0  0.79148836888E+01  0.19018328958E+02  0.58037697730E+02  0.61585035341E+02  0.00000000000E+00 0. -1.
<scales pt_clust_5="13000.00000" pt_clust_6="13000.00000" pt_clust_7="13000.00000" pt_clust_8="13000.00000" pt_clust_9="20.59957"></scales>
<clustering>
<clus scale="   20.600">  1  9  2 -1</clus>
<clus scale="   92.043">  7  8 -1 -1</clus>
<clus scale="   92.498">  5  6 -1 -1</clus>
<clus scale="  238.076">  2  7  1 -1</clus>
<clus scale="   20.600">  1  5  2 -1</clus>
</clustering>
</event>
<event>
 9    1  0.1636528E-005  0.1126950E+03  0.7546771E-02  0.1256206E+00
         21   -1    0    0  501  502  0.00000000000E+00  0.00000000000E+00  0.15872601577E+03  0.15872601577E+03  0.00000000000E+00 0. -1.
         -3   -1    0    0    0  501 -0.00000000000E+00 -0.00000000000E+00 -0.17580996318E+03  0.17580996318E+03  0.00000000000E+00 0.  1.
         23    2    1    2    0    0  0.13257032617E+02 -0.69854382031E+02 -0.66276836259E+02  0.13433898029E+03  0.92730572085E+02 0.  0.
         23    2    1    2    0    0  0.28858201542E+02  0.56014709963E+02 -0.25085883565E+02  0.11369517496E+03  0.91251562876E+02 0.  0.
        -11    1    3    3    0    0  0.14222341224E+01 -0.91820237158E+02 -0.50196307273E+02  0.10465489939E+03  0.00000000000E+00 0.  1.
         11    1    3    3    0    0  0.11834798494E+02  0.21965855127E+02 -0.16080528987E+02  0.29684080908E+02  0.00000000000E+00 0. -1.
        -11    1    4    4    0    0  0.51571059067E+02  0.72213238542E+01  0.45182293030E+01  0.52269838794E+02  0.00000000000E+00 0.  1.
         11    1    4    4    0    0 -0.22712857525E+02  0.48793386108E+02 -0.29604112868E+02  0.61425336170E+02  0.00000000000E+00 0. -1.
         -3    1    1    2    0  502 -0.42115234159E+02  0.13839672068E+02  0.74278772409E+02  0.86501823691E+02  0.00000000000E+00 0.  1.
<scales pt_clust_5="13000.00000" pt_clust_6="13000.00000" pt_clust_7="13000.00000" pt_clust_8="13000.00000" pt_clust_9="44.33091"></scales>
<clustering>
<clus scale="   44.331">  1  9  2 -1</clus>
<clus scale="   91.252">  7  8 -1 -1</clus>
<clus scale="   92.731">  5  6 -1 -1</clus>
<clus scale="  111.481">  1  7  2 -1</clus>
<clus scale="   44.331">  1  5  2 -1</clus>
</clustering>
</event>
<event>
 9    1  0.1636528E-005  0.1366653E+03  0.7546771E-02  0.1233213E+00
         21   -1    0    0  501  502  0.00000000000E+00  0.00000000000E+00  0.58101836784E+02  0.58101836784E+02  0.00000000000E+00 0.  1.
          1   -1    0    0  502    0 -0.00000000000E+00 -0.00000000000E+00 -0.87365212466E+03  0.87365212466E+03  0.00000000000E+00 0. -1.
         23    2    1    2    0    0  0.15578859985E+02 -0.31996894044E+02 -0.49768702139E+03  0.50750779418E+03  0.92764690405E+02 0.  0.
         23    2    1    2    0    0  0.82039669037E+02  0.65493226264E+02 -0.67928605740E+02  0.15384144075E+03  0.89627135574E+02 0.  0.
        -13    1    3    3    0    0 -0.19994430042E+02  0.25062443569E+02 -0.15282728481E+03  0.15615403386E+03  0.00000000000E+00 0.  1.
         13    1    3    3    0    0  0.35573290027E+02 -0.57059337613E+02 -0.34485973658E+03  0.35135376032E+03  0.00000000000E+00 0. -1.
        -13    1    4    4    0    0  0.96771702076E+02  0.36085398172E+02 -0.40225446105E+02  0.11083774086E+03  0.00000000000E+00 0.  1.
         13    1    4    4    0    0 -0.14732033038E+02  0.29407828093E+02 -0.27703159635E+02  0.43003699891E+02  0.00000000000E+00 0. -1.
          1    1    1    2  501    0 -0.97618529022E+02 -0.33496332220E+02 -0.24993466075E+03  0.27040472652E+03  0.00000000000E+00 0. -1.
<scales pt_clust_5="13000.00000" pt_clust_6="13000.00000" pt_clust_7="13000.00000" pt_clust_8="13000.00000" pt_clust_9="103.17164"></scales>
<clustering>
<clus scale="   89.627">  7  8 -1 -1</clus>
<clus scale="   92.765">  5  6 -1 -1</clus>
<clus scale="   99.357">  2  5  1 -1</clus>
<clus scale="  103.172">  1  9  2 -1</clus>
<clus scale="  103.172">  1  5  2 -1</clus>
</clustering>
</event>
<event>
 9    1  0.1753639E-005  0.2365819E+03  0.7546771E-02  0.1122846E+00
         -3   -1    0    0    0  501 -0.00000000000E+00  0.00000000000E+00  0.45439316435E+03  0.45439316435E+03  0.00000000000E+00 0.  1.
         21   -1    0    0  501  502  0.00000000000E+00 -0.00000000000E+00 -0.54635298014E+03  0.54635298014E+03  0.00000000000E+00 0.  1.
         23    2    1    2    0    0 -0.89805610348E+01  0.22352036708E+03  0.37457013044E+03  0.44528646554E+03  0.89080013477E+02 0.  0.
         23    2    1    2    0    0 -0.70953691176E+02 -0.17129112260E+03 -0.36209293993E+03  0.41395184546E+03  0.76614347458E+02 0.  0.
        -11    1    4    4    0    0 -0.71780481915E+02 -0.73737615022E+02 -0.19381642796E+03  0.21944129329E+03  0.00000000000E+00 0.  1.
         11    1    4    4    0    0  0.82679073936E+00 -0.97553507578E+02 -0.16827651197E+03  0.19451055217E+03  0.00000000000E+00 0. -1.
        -13    1    3    3    0    0  0.22037467707E+02  0.37472820157E+02  0.31156215370E+02  0.53484315361E+02  0.00000000000E+00 0.  1.
         13    1    3    3    0    0 -0.31018028741E+02  0.18604754693E+03  0.34341391507E+03  0.39180215018E+03  0.00000000000E+00 0. -1.
         -3    1    1    2    0  502  0.79934252210E+02 -0.52229244485E+02 -0.10443700629E+03  0.14150783349E+03  0.00000000000E+00 0.  1.
<scales pt_clust_5="13000.00000" pt_clust_6="13000.00000" pt_clust_7="13000.00000" pt_clust_8="13000.00000" pt_clust_9="95.48497"></scales>
<clustering>
<clus scale="   76.614">  5  6 -1 -1</clus>
<clus scale="   89.080">  7  8 -1 -1</clus>
<clus scale="   95.485">  2  9  1 -1</clus>
<clus scale="  232.176">  2  5  1 -1</clus>
<clus scale="   95.485">  2  5  1 -1</clus>
</clustering>
</event>
<event>
 9    1  0.1636528E-005  0.1193730E+03  0.7546771E-02  0.1245469E+00
         -1   -1    0    0    0  501 -0.00000000000E+00  0.00000000000E+00  0.12950567023E+03  0.12950567023E+03  0.00000000000E+00 0.  1.
         21   -1    0    0  501  502  0.00000000000E+00 -0.00000000000E+00 -0.26886490816E+03  0.26886490816E+03  0.00000000000E+00 0. -1.
         23    2    1    2    0    0  0.39431406595E+01 -0.69114818555E+02  0.45845146712E+02  0.12466744776E+03  0.92993486611E+02 0.  0.
         23    2    1    2    0    0 -0.43842832450E+01  0.10536474798E+03 -0.19241447956E+03  0.23674048112E+03  0.88891908530E+02 0.  0.
        -11    1    4    4    0    0  0.36642613471E+02  0.18048251190E+02 -0.47465594999E+02  0.62621108275E+02  0.00000000000E+00 0.  1.
         11    1    4    4    0    0 -0.41026896716E+02  0.87316496786E+02 -0.14494888456E+03  0.17411937285E+03  0.00000000000E+00 0. -1.
        -13    1    3    3    0    0 -0.83084900170E-01 -0.90164955715E+02  0.49603225501E+02  0.10290872714E+03  0.00000000000E+00 0.  1.
         13    1    3    3    0    0  0.40262255596E+01  0.21050137160E+02 -0.37580787889E+01  0.21758720617E+02  0.00000000000E+00 0. -1.
         -1    1    1    2    0  502  0.44114258554E+00 -0.36249929421E+02  0.72100949122E+01  0.36962649505E+02  0.00000000000E+00 0.  1.
<scales pt_clust_5="13000.00000" pt_clust_6="13000.00000" pt_clust_7="13000.00000" pt_clust_8="13000.00000" pt_clust_9="36.25263"></scales>
<clustering>
<clus scale="   36.253">  2  9  1 -1</clus>
<clus scale="   88.892">  5  6 -1 -1</clus>
<clus scale="   92.993">  7  8 -1 -1</clus>
<clus scale="  116.206">  2  5  1 -1</clus>
<clus scale="   36.253">  2  5  1 -1</clus>
</clustering>
</event>
<event>
 9    1  0.1636528E-005  0.1690341E+03  0.7546771E-02  0.1179709E+00
         21   -1    0    0  501  502  0.00000000000E+00  0.00000000000E+00  0.15260143204E+03  0.15260143204E+03  0.00000000000E+00 0.  1.
         -3   -1    0    0    0  501 -0.00000000000E+00 -0.00000000000E+00 -0.42190765894E+03  0.42190765894E+03  0.00000000000E+00 0.  1.
         23    2    1    2    0    0 -0.13719578546E+03  0.25960759589E+02 -0.32080946610E+03  0.36174320094E+03  0.91884630392E+02 0.  0.
         23    2    1    2    0    0  0.12027603369E+03 -0.60618011337E+02  0.31275877477E+02  0.16921650129E+03  0.97545764726E+02 0.  0.
        -11    1    4    4    0    0  0.48853044618E+02 -0.78186807970E+02  0.24246047355E+02  0.95329259524E+02  0.00000000000E+00 0.  1.
         11    1    4    4    0    0  0.71422989076E+02  0.17568796633E+02  0.70298301215E+01  0.73887241762E+02  0.00000000000E+00 0. -1.
        -13    1    3    3    0    0 -0.81601823417E+02 -0.30971861148E+02 -0.15705559605E+03  0.17967908620E+03  0.00000000000E+00 0.  1.
         13    1    3    3    0    0 -0.55593962044E+02  0.56932620737E+02 -0.16375387005E+03  0.18206411474E+03  0.00000000000E+00 0. -1.
         -3    1    1    2    0  502  0.16919751767E+02  0.34657251748E+02  0.20227361726E+02  0.43549388755E+02  0.00000000000E+00 0.  1.
<scales pt_clust_5="13000.00000" pt_clust_6="13000.00000" pt_clust_7="13000.00000" pt_clust_8="13000.00000" pt_clust_9="38.56687"></scales>
<clustering>
<clus scale="   38.567">  1  9  2 -1</clus>
<clus scale="   91.885">  7  8 -1 -1</clus>
<clus scale="   97.546">  5  6 -1 -1</clus>
<clus scale="  165.832">  2  7  1 -1</clus>
<clus scale="   38.567">  1  5  2 -1</clus>
</clustering>
</event>
<event>
 9    1  0.1955831E-005  0.2068885E+03  0.7546771E-02  0.1163002E+00
         -1   -1    0    0    0  501 -0.00000000000E+00  0.00000000000E+00  0.55640885838E+03  0.55640885838E+03  0.00000000000E+00 0.  1.
         21   -1    0    0  501  502  0.00000000000E+00 -0.00000000000E+00 -0.20319462422E+03  0.20319462422E+03  0.00000000000E+00 0.  1.
         23    2    1    2    0    0  0.95219078203E+02  0.25821524134E+01  0.45304577071E+02  0.13995755806E+03  0.91990613601E+02 0.  0.
         23    2    1    2    0    0 -0.26516165665E+03 -0.22945649343E+00  0.34539032375E+03  0.44560335641E+03  0.94642055613E+02 0.  0.
        -13    1    3    3    0    0  0.71016785015E+02  0.12817427744E+02  0.72393164530E+02  0.10221761335E+03  0.00000000000E+00 0. -1.
         13    1    3    3    0    0  0.24202293188E+02 -0.10235275330E+02 -0.27088587459E+02  0.37739944716E+02  0.00000000000E+00 0.  1.
        -13    1    4    4    0    0 -0.21260129628E+03  0.29541393424E+02  0.30492643884E+03  0.37289695387E+03  0.00000000000E+00 0.  1.
         13    1    4    4    0    0 -0.52560360369E+02 -0.29770849917E+02  0.40463884918E+02  0.72706402535E+02  0.00000000000E+00 0. -1.
         -1    1    1    2    0  502  0.16994257844E+03 -0.23526959200E+01 -0.37480666671E+02  0.17404256813E+03  0.00000000000E+00 0.  1.
<scales pt_clust_5="13000.00000" pt_clust_6="13000.00000" pt_clust_7="13000.00000" pt_clust_8="13000.00000" pt_clust_9="183.97204"></scales>
<clustering>
<clus scale="   91.991">  5  6 -1 -1</clus>
<clus scale="   94.642">  7  8 -1 -1</clus>
<clus scale="  132.422">  1  5  2 -1</clus>
<clus scale="  183.972">  2  9  1 -1</clus>
<clus scale="  183.972">  2  5  1 -1</clus>
</clustering>
</event>
<event>
 9    1  0.1636528E-005  0.1402500E+03  0.7546771E-02  0.1226777E+00
          1   -1    0    0  502    0 -0.00000000000E+00  0.00000000000E+00  0.26937207137E+03  0.26937207137E+03  0.00000000000E+00 0. -1.
         21   -1    0    0  501  502  0.00000000000E+00 -0.00000000000E+00 -0.31871441807E+03  0.31871441807E+03  0.00000000000E+00 0. -1.
         23    2    1    2    0    0  0.25300485882E+02  0.45645981126E+02  0.76164594759E+02  0.12971431859E+03  0.91110311010E+02 0.  0.
         23    2    1    2    0    0 -0.72494956340E+02  0.49881021421E+02  0.12932766901E+03  0.18215956261E+03  0.93342515960E+02 0.  0.
        -13    1    3    3    0    0  0.50210522263E+02  0.53356843756E+02  0.35517643479E+02  0.81422062856E+02  0.00000000000E+00 0.  1.
         13    1    3    3    0    0 -0.24910036381E+02 -0.77108626301E+01  0.40646951281E+02  0.48292255729E+02  0.00000000000E+00 0. -1.
        -13    1    4    4    0    0  0.28009336262E+01  0.48111117897E+02  0.75558096140E+02  0.89618919804E+02  0.00000000000E+00 0.  1.
         13    1    4    4    0    0 -0.75295889966E+02  0.17699035232E+01  0.53769572870E+02  0.92540642805E+02  0.00000000000E+00 0. -1.
          1    1    1    2  501    0  0.47194470457E+02 -0.95527002546E+02 -0.25483461048E+03  0.27621260825E+03  0.00000000000E+00 0. -1.
<scales pt_clust_5="13000.00000" pt_clust_6="13000.00000" pt_clust_7="13000.00000" pt_clust_8="13000.00000" pt_clust_9="104.67686"></scales>
<clustering>
<clus scale="   91.110">  5  6 -1 -1</clus>
<clus scale="   93.343">  7  8 -1 -1</clus>
<clus scale="  104.999">  1  5  2 -1</clus>
<clus scale="  104.677">  2  9  1 -1</clus>
<clus scale="  104.677">  2  5  1 -1</clus>
</clustering>
</event>
<event>
 9    1  0.1636528E-005  0.1014095E+03  0.7546771E-02  0.1280526E+00
         -3   -1    0    0    0  501 -0.00000000000E+00  0.00000000000E+00  0.31071148952E+03  0.31071148952E+03  0.00000000000E+00 0.  1.
         21   -1    0    0  501  502  0.00000000000E+00 -0.00000000000E+00 -0.43688512253E+02  0.43688512253E+02  0.00000000000E+00 0.  1.
         23    2    1    2    0    0 -0.41209318471E+02 -0.11685225401E+02  0.15946228958E+03  0.18578049297E+03  0.85155254367E+02 0.  0.
         23    2    1    2    0    0  0.32679564450E+02  0.35791804475E+02  0.80088093871E+02  0.13108782527E+03  0.91765505250E+02 0.  0.
        -13    1    3    3    0    0  0.20895150885E+02  0.16852401906E+02  0.49426655198E+02  0.56245933405E+02  0.00000000000E+00 0.  1.
         13    1    3    3    0    0 -0.62104469356E+02 -0.28537627307E+02  0.11003563439E+03  0.12953455956E+03  0.00000000000E+00 0. -1.
        -13    1    4    4    0    0 -0.15054302073E+02  0.23759641679E+02 -0.88059087496E+01  0.29473659639E+02  0.00000000000E+00 0.  1.
         13    1    4    4    0    0  0.47733866523E+02  0.12032162796E+02  0.88894002621E+02  0.10161416563E+03  0.00000000000E+00 0. -1.
         -3    1    1    2    0  502  0.85297540212E+01 -0.24106579074E+02  0.27472593813E+02  0.37531683537E+02  0.00000000000E+00 0.  1.
<scales pt_clust_5="13000.00000" pt_clust_6="13000.00000" pt_clust_7="13000.00000" pt_clust_8="13000.00000" pt_clust_9="25.57115"></scales>
<clustering>
<clus scale="   25.571">  2  9  1 -1</clus>
<clus scale="   85.155">  5  6 -1 -1</clus>
<clus scale="   91.766">  7  8 -1 -1</clus>
<clus scale="   95.469">  1  5  2 -1</clus>
<clus scale="   25.571">  2  5  1 -1</clus>
</clustering>
</event>
<event>
 9    1  0.1636528E-005  0.1206078E+03  0.7546771E-02  0.1248385E+00
         -1   -1    0    0    0  501 -0.00000000000E+00  0.00000000000E+00  0.11402832536E+03  0.11402832536E+03  0.00000000000E+00 0.  1.
         21   -1    0    0  501  502  0.00000000000E+00 -0.00000000000E+00 -0.15542725095E+03  0.15542725095E+03  0.00000000000E+00 0. -1.
         23    2    1    2    0    0 -0.89022798824E+01  0.63527103609E+02  0.34057739420E+01  0.10543272714E+03  0.83603332320E+02 0.  0.
         23    2    1    2    0    0  0.36806718136E+02 -0.60570338406E+02 -0.17359547535E+02  0.12477190647E+03  0.10120856861E+03 0.  0.
        -11    1    3    3    0    0  0.36584008826E+02  0.28663549129E+02 -0.75491578734E+01  0.47084801530E+02  0.00000000000E+00 0.  1.
         11    1    3    3    0    0 -0.45486288709E+02  0.34863554480E+02  0.10954931815E+02  0.58347925606E+02  0.00000000000E+00 0. -1.
        -11    1    4    4    0    0  0.50474470284E+02 -0.25184180154E+02  0.30162404036E+02  0.63966285633E+02  0.00000000000E+00 0.  1.
         11    1    4    4    0    0 -0.13667752148E+02 -0.35386158252E+02 -0.47521951571E+02  0.60805620840E+02  0.00000000000E+00 0. -1.
         -1    1    1    2    0  502 -0.27904438253E+02 -0.29567652035E+01 -0.27445151992E+02  0.39250942697E+02  0.00000000000E+00 0.  1.
<scales pt_clust_5="13000.00000" pt_clust_6="13000.00000" pt_clust_7="13000.00000" pt_clust_8="13000.00000" pt_clust_9="28.06065"></scales>
<clustering>
<clus scale="   28.061">  2  9  1 -1</clus>
<clus scale="   83.603">  5  6 -1 -1</clus>
<clus scale="  101.209">  7  8 -1 -1</clus>
<clus scale="  106.267">  1  5  2 -1</clus>
<clus scale="   28.061">  2  5  1 -1</clus>
</clustering>
</event>
<event>
 9    1  0.1636528E-005  0.1175382E+03  0.7546771E-02  0.1248688E+00
          1   -1    0    0  502    0 -0.00000000000E+00  0.00000000000E+00  0.21845007813E+03  0.21845007813E+03  0.00000000000E+00 0. -1.
         21   -1    0    0  501  502  0.00000000000E+00 -0.00000000000E+00 -0.29195089173E+03  0.29195089173E+03  0.00000000000E+00 0. -1.
         23    2    1    2    0    0  0.81972862647E+02  0.11241418682E+02  0.17498217002E+03  0.21379342324E+03  0.90790683938E+02 0.  0.
         23    2    1    2    0    0 -0.77523838356E+01 -0.49152268941E+01 -0.14711238743E+03  0.17081129093E+03  0.86314446421E+02 0.  0.
        -11    1    3    3    0    0  0.12037525611E+02  0.32115756783E+02  0.11284121317E+03  0.11793838750E+03  0.00000000000E+00 0.  1.
         11    1    3    3    0    0  0.69935337037E+02 -0.20874338101E+02  0.62140956846E+02  0.95855035733E+02  0.00000000000E+00 0. -1.
        -13    1    4    4    0    0 -0.35600421694E+02 -0.28693574389E+02 -0.54006036887E+02  0.70762725048E+02  0.00000000000E+00 0. -1.
         13    1    4    4    0    0  0.27848037858E+02  0.23778347495E+02 -0.93106350547E+02  0.10004856588E+03  0.00000000000E+00 0.  1.
          1    1    1    2  501    0 -0.74220478812E+02 -0.63261917884E+01 -0.10137059619E+03  0.12579625570E+03  0.00000000000E+00 0. -1.
<scales pt_clust_5="13000.00000" pt_clust_6="13000.00000" pt_clust_7="13000.00000" pt_clust_8="13000.00000" pt_clust_9="74.48960"></scales>
<clustering>
<clus scale="   74.490">  2  9  1 -1</clus>
<clus scale="   86.314">  7  8 -1 -1</clus>
<clus scale="   90.791">  5  6 -1 -1</clus>
<clus scale="  114.116">  2  7  1 -1</clus>
<clus scale="   74.490">  2  5  1 -1</clus>
</clustering>
</event>
<event>
 9    1  0.1636528E-005  0.1049755E+03  0.7546771E-02  0.1270627E+00
         21   -1    0    0  501  502  0.00000000000E+00  0.00000000000E+00  0.12256284945E+03  0.12256284945E+03  0.00000000000E+00 0.  1.
          4   -1    0    0  502    0 -0.00000000000E+00 -0.00000000000E+00 -0.28533096804E+03  0.28533096804E+03  0.00000000000E+00 0. -1.
         23    2    1    2    0    0  0.48799495617E+01  0.58519825980E+02 -0.21318551612E+03  0.23955236602E+03  0.92135160733E+02 0.  0.
         23    2    1    2    0    0  0.32756333224E+02 -0.75331933068E+01  0.34160332508E+02  0.10291654293E+03  0.91077769652E+02 0.  0.
        -13    1    4    4    0    0  0.26666248582E+01 -0.42199843013E+02 -0.49996530629E+01  0.42578564668E+02  0.00000000000E+00 0.  1.
         13    1    4    4    0    0  0.30089708365E+02  0.34666649706E+02  0.39159985571E+02  0.60337978267E+02  0.00000000000E+00 0. -1.
        -13    1    3    3    0    0  0.18434734391E+02  0.74861668527E+02 -0.20051712980E+03  0.21482836914E+03  0.00000000000E+00 0. -1.
         13    1    3    3    0    0 -0.13554784829E+02 -0.16341842548E+02 -0.12668386321E+02  0.24723996877E+02  0.00000000000E+00 0.  1.
          4    1    1    2  501    0 -0.37636282785E+02 -0.50986632673E+02  0.16257065023E+02  0.65424908532E+02  0.00000000000E+00 0. -1.
<scales pt_clust_5="13000.00000" pt_clust_6="13000.00000" pt_clust_7="13000.00000" pt_clust_8="13000.00000" pt_clust_9="63.37292"></scales>
<clustering>
<clus scale="   63.373">  1  9  2 -1</clus>
<clus scale="   91.078">  5  6 -1 -1</clus>
<clus scale="   92.135">  7  8 -1 -1</clus>
<clus scale="  104.049">  1  5  2 -1</clus>
<clus scale="   63.373">  1  5  2 -1</clus>
</clustering>
</event>
<event>
 9    1  0.1636528E-005  0.1079275E+03  0.7546771E-02  0.1267249E+00
          2   -1    0    0  502    0 -0.00000000000E+00  0.00000000000E+00  0.74524564466E+03  0.74524564466E+03  0.00000000000E+00 0. -1.
         21   -1    0    0  501  502  0.00000000000E+00 -0.00000000000E+00 -0.33577287188E+02  0.33577287188E+02  0.00000000000E+00 0. -1.
         23    2    1    2    0    0  0.41854161859E+01 -0.53351323922E+02  0.48131863919E+03  0.49182335124E+03  0.85782835849E+02 0.  0.
         23    2    1    2    0    0  0.31869825746E+02  0.60526841383E+02  0.22085969699E+03  0.24903210735E+03  0.92513784985E+02 0.  0.
        -11    1    3    3    0    0  0.43897188346E+02 -0.21709941748E+02  0.27659327342E+03  0.28089521821E+03  0.00000000000E+00 0.  1.
         11    1    3    3    0    0 -0.39711772160E+02 -0.31641382174E+02  0.20472536577E+03  0.21092813303E+03  0.00000000000E+00 0. -1.
        -13    1    4    4    0    0  0.38578879656E+02  0.77974096946E+01  0.17327821705E+03  0.17769206527E+03  0.00000000000E+00 0. -1.
         13    1    4    4    0    0 -0.67090539100E+01  0.52729431688E+02  0.47581479939E+02  0.71340042078E+02  0.00000000000E+00 0.  1.
          2    1    1    2  501    0 -0.36055241932E+02 -0.71755174611E+01  0.94900212911E+01  0.37967473259E+02  0.00000000000E+00 0. -1.
<scales pt_clust_5="13000.00000" pt_clust_6="13000.00000" pt_clust_7="13000.00000" pt_clust_8="13000.00000" pt_clust_9="36.76232"></scales>
<clustering>
<clus scale="   36.762">  2  9  1 -1</clus>
<clus scale="   85.783">  5  6 -1 -1</clus>
<clus scale="   92.514">  7  8 -1 -1</clus>
<clus scale="  102.217">  1  5  2 -1</clus>
<clus scale="   36.762">  2  5  1 -1</clus>
</clustering>
</event>
<event>
 9    1  0.1636528E-005  0.1145806E+03  0.7546771E-02  0.1252561E+00
          1   -1    0    0  502    0 -0.00000000000E+00  0.00000000000E+00  0.27165767373E+03  0.27165767373E+03  0.00000000000E+00 0. -1.
         21   -1    0    0  501  502  0.00000000000E+00 -0.00000000000E+00 -0.14146544222E+03  0.14146544222E+03  0.00000000000E+00 0. -1.
         23    2    1    2    0    0 -0.72517079166E+02 -0.20263047828E+02  0.20085397656E+03  0.23312363579E+03  0.91296176176E+02 0.  0.
         23    2    1    2    0    0  0.49244586486E+02 -0.31063232760E+02 -0.34676710425E+02  0.11313455130E+03  0.90592487124E+02 0.  0.
        -11    1    3    3    0    0 -0.85095378977E+02  0.82201576345E+01  0.12834185974E+03  0.15420903825E+03  0.00000000000E+00 0. -1.
         11    1    3    3    0    0  0.12578299810E+02 -0.28483205462E+02  0.72512116821E+02  0.78914597543E+02  0.00000000000E+00 0.  1.
        -13    1    4    4    0    0  0.74771917510E+02 -0.33586403838E+02 -0.28120675426E+02  0.86658286144E+02  0.00000000000E+00 0. -1.
         13    1    4    4    0    0 -0.25527331024E+02  0.25231710780E+01 -0.65560349996E+01  0.26476265152E+02  0.00000000000E+00 0.  1.
          1    1    1    2  501    0  0.23272492680E+02  0.51326280588E+02 -0.35985034628E+02  0.66864928862E+02  0.00000000000E+00 0. -1.
<scales pt_clust_5="13000.00000" pt_clust_6="13000.00000" pt_clust_7="13000.00000" pt_clust_8="13000.00000" pt_clust_9="56.35598"></scales>
<clustering>
<clus scale="   56.356">  2  9  1 -1</clus>
<clus scale="   90.592">  7  8 -1 -1</clus>
<clus scale="   91.296">  5  6 -1 -1</clus>
<clus scale="  114.021">  2  7  1 -1</clus>
<clus scale="   56.356">  2  5  1 -1</clus>
</clustering>
</event>
<event>
 9    1  0.1636528E-005  0.1028358E+03  0.7546771E-02  0.1275824E+00
         21   -1    0    0  501  502  0.00000000000E+00  0.00000000000E+00  0.10022626173E+03  0.10022626173E+03  0.00000000000E+00 0. -1.
          1   -1    0    0  502    0 -0.00000000000E+00 -0.00000000000E+00 -0.27996883854E+03  0.27996883854E+03  0.00000000000E+00 0. -1.
         23    2    1    2    0    0  0.17803344822E+01  0.45791705891E+02 -0.15657447139E+03  0.18795903728E+03  0.93343369779E+02 0.  0.
         23    2    1    2    0    0  0.31069882684E+02 -0.35317272235E+02 -0.77415448180E+02  0.12795834738E+03  0.90374441741E+02 0.  0.
        -11    1    4    4    0    0 -0.31124744009E+02 -0.21643769796E+02 -0.24256039652E+02  0.45006198686E+02  0.00000000000E+00 0.  1.
         11    1    4    4    0    0  0.62194626693E+02 -0.13673502439E+02 -0.53159408529E+02  0.82952148697E+02  0.00000000000E+00 0. -1.
        -13    1    3    3    0    0 -0.20588706212E+02  0.30302311061E+02 -0.87686606712E+01  0.37669806066E+02  0.00000000000E+00 0.  1.
         13    1    3    3    0    0  0.22369040694E+02  0.15489394831E+02 -0.14780581072E+03  0.15028923121E+03  0.00000000000E+00 0. -1.
          1    1    1    2  501    0 -0.32850217166E+02 -0.10474433656E+02  0.54247342761E+02  0.64277715616E+02  0.00000000000E+00 0. -1.
<scales pt_clust_5="13000.00000" pt_clust_6="13000.00000" pt_clust_7="13000.00000" pt_clust_8="13000.00000" pt_clust_9="34.47971"></scales>
<clustering>
<clus scale="   34.480">  1  9  2 -1</clus>
<clus scale="   90.374">  5  6 -1 -1</clus>
<clus scale="   93.343">  7  8 -1 -1</clus>
<clus scale="  100.149">  1  5  2 -1</clus>
<clus scale="   34.480">  1  5  2 -1</clus>
</clustering>
</event>
<event>
 9    1  0.1636528E-005  0.2471828E+03  0.7546771E-02  0.1115560E+00
          1   -1    0    0  502    0 -0.00000000000E+00  0.00000000000E+00  0.15794244610E+04  0.15794244610E+04  0.00000000000E+00 0. -1.
         21   -1    0    0  501  502  0.00000000000E+00 -0.00000000000E+00 -0.54129399794E+02  0.54129399794E+02  0.00000000000E+00 0. -1.
         23    2    1    2    0    0  0.59900361527E+02 -0.20695635203E+03  0.64489335110E+03  0.68521160612E+03  0.84903038311E+02 0.  0.
         23    2    1    2    0    0 -0.40751247290E+01  0.24766940230E+03  0.79857576621E+03  0.84124652824E+03  0.92820942809E+02 0.  0.
        -11    1    4    4    0    0 -0.38071470755E+02  0.19358854512E+03  0.54052763198E+03  0.57540949125E+03  0.00000000000E+00 0.  1.
         11    1    4    4    0    0  0.33996346026E+02  0.54080857175E+02  0.25804813424E+03  0.26583703700E+03  0.00000000000E+00 0. -1.
        -11    1    3    3    0    0 -0.17189832697E+02 -0.76247309087E+02  0.18182224346E+03  0.19791025922E+03  0.00000000000E+00 0.  1.
         11    1    3    3    0    0  0.77090194224E+02 -0.13070904294E+03  0.46307110765E+03  0.48730134690E+03  0.00000000000E+00 0. -1.
          1    1    1    2  501    0 -0.55825236798E+02 -0.40713050272E+02  0.81825943908E+02  0.10709572644E+03  0.00000000000E+00 0. -1.
<scales pt_clust_5="13000.00000" pt_clust_6="13000.00000" pt_clust_7="13000.00000" pt_clust_8="13000.00000" pt_clust_9="69.09421"></scales>
<clustering>
<clus scale="   69.094">  2  9  1 -1</clus>
<clus scale="   84.903">  7  8 -1 -1</clus>
<clus scale="   92.821">  5  6 -1 -1</clus>
<clus scale="  244.320">  1  7  2 -1</clus>
<clus scale="   69.094">  2  5  1 -1</clus>
</clustering>
</event>
<event>
 9    1  0.1636528E-005  0.9435894E+02  0.7546771E-02  0.1293965E+00
         -1   -1    0    0    0  501 -0.00000000000E+00  0.00000000000E+00  0.11440288104E+03  0.11440288104E+03  0.00000000000E+00 0.  1.
         21   -1    0    0  501  502  0.00000000000E+00 -0.00000000000E+00 -0.18384298410E+03  0.18384298410E+03  0.00000000000E+00 0.  1.
         23    2    1    2    0    0  0.21437958020E+02  0.97602181390E+01  0.52029001942E+02  0.10613770209E+03  0.89461426658E+02 0.  0.
         23    2    1    2    0    0  0.40098407761E+01 -0.32717903725E+02 -0.43312126375E+02  0.10676673642E+03  0.91851269275E+02 0.  0.
        -11    1    3    3    0    0 -0.83085287954E+00  0.48061062366E+02  0.24174622152E+02  0.53804910449E+02  0.00000000000E+00 0.  1.
         11    1    3    3    0    0  0.22268810900E+02 -0.38300844227E+02  0.27854379789E+02  0.52332791640E+02  0.00000000000E+00 0. -1.
        -13    1    4    4    0    0 -0.34991212299E+02  0.96304904498E+01 -0.31367476308E+02  0.47969259473E+02  0.00000000000E+00 0. -1.
         13    1    4    4    0    0  0.39001053075E+02 -0.42348394175E+02 -0.11944650067E+02  0.58797476947E+02  0.00000000000E+00 0.  1.
         -1    1    1    2    0  502 -0.25447798797E+02  0.22957685586E+02 -0.78156978625E+02  0.85341426628E+02  0.00000000000E+00 0.  1.
<scales pt_clust_5="13000.00000" pt_clust_6="13000.00000" pt_clust_7="13000.00000" pt_clust_8="13000.00000" pt_clust_9="34.27311"></scales>
<clustering>
<clus scale="   34.273">  2  9  1 -1</clus>
<clus scale="   89.461">  5  6 -1 -1</clus>
<clus scale="   91.851">  7  8 -1 -1</clus>
<clus scale="   92.034">  1  5  2 -1</clus>
<clus scale="   34.273">  2  5  1 -1</clus>
</clustering>
</event>
<event>
 9    1  0.1636528E-005  0.1193380E+03  0.7546771E-02  0.1244299E+00
         21   -1    0    0  501  502  0.00000000000E+00  0.00000000000E+00  0.56509061320E+02  0.56509061320E+02  0.00000000000E+00 0.  1.
          1   -1    0    0  502    0 -0.00000000000E+00 -0.00000000000E+00 -0.36549180619E+03  0.36549180619E+03  0.00000000000E+00 0. -1.
         23    2    1    2    0    0 -0.67059144712E+01 -0.74032101990E+02 -0.19095478321E+03  0.22471412491E+03  0.92233330694E+02 0.  0.
         23    2    1    2    0    0 -0.19578885728E+02  0.78083673232E+02 -0.11916637376E+03  0.17066716460E+03  0.91903556216E+02 0.  0.
        -11    1    4    4    0    0 -0.46471930162E+02  0.73317113402E+02 -0.60063691384E+02  0.10555892399E+03  0.00000000000E+00 0.  1.
         11    1    4    4    0    0  0.26893044434E+02  0.47665598303E+01 -0.59102682375E+02  0.65108240611E+02  0.00000000000E+00 0. -1.
        -11    1    3    3    0    0  0.40068823476E+02 -0.15456063606E+02 -0.80236201490E+02  0.91006859887E+02  0.00000000000E+00 0. -1.
         11    1    3    3    0    0 -0.46774737947E+02 -0.58576038384E+02 -0.11071858171E+03  0.13370726502E+03  0.00000000000E+00 0.  1.
          1    1    1    2  501    0  0.26284800199E+02 -0.40515712420E+01  0.11384120914E+01  0.26619578005E+02  0.00000000000E+00 0. -1.
<scales pt_clust_5="13000.00000" pt_clust_6="13000.00000" pt_clust_7="13000.00000" pt_clust_8="13000.00000" pt_clust_9="26.59522"></scales>
<clustering>
<clus scale="   26.595">  1  9  2 -1</clus>
<clus scale="   91.904">  5  6 -1 -1</clus>
<clus scale="   92.233">  7  8 -1 -1</clus>
<clus scale="  119.083">  1  5  2 -1</clus>
<clus scale="   26.595">  1  5  2 -1</clus>
</clustering>
</event>
<event>
 9    1  0.1636528E-005  0.9446489E+02  0.7546771E-02  0.1294074E+00
          2   -1    0    0  502    0 -0.00000000000E+00  0.00000000000E+00  0.44493026617E+02  0.44493026617E+02  0.00000000000E+00 0. -1.
         21   -1    0    0  501  502  0.00000000000E+00 -0.00000000000E+00 -0.41706345709E+03  0.41706345709E+03  0.00000000000E+00 0.  1.
         23    2    1    2    0    0  0.18888298179E+02 -0.36404692196E+01 -0.34471410509E+02  0.98801518591E+02  0.90572849736E+02 0.  0.
         23    2    1    2    0    0  0.52222819098E+01  0.45245558650E+01 -0.18139251998E+03  0.20420204393E+03  0.93527988346E+02 0.  0.
        -13    1    4    4    0    0 -0.18698216717E+02  0.33236406256E+02 -0.30734920472E+02  0.48978743815E+02  0.00000000000E+00 0. -1.
         13    1    4    4    0    0  0.23920498627E+02 -0.28711850391E+02 -0.15065759951E+03  0.15522330011E+03  0.00000000000E+00 0.  1.
        -13    1    3    3    0    0  0.10269654860E+02 -0.32522767062E+02 -0.53289201370E+02  0.63268753512E+02  0.00000000000E+00 0.  1.
         13    1    3    3    0    0  0.86186433191E+01  0.28882297843E+02  0.18817790860E+02  0.35532765080E+02  0.00000000000E+00 0. -1.
          2    1    1    2  501    0 -0.24110580088E+02 -0.88408664531E+00 -0.15670649998E+03  0.15855292119E+03  0.00000000000E+00 0. -1.
<scales pt_clust_5="13000.00000" pt_clust_6="13000.00000" pt_clust_7="13000.00000" pt_clust_8="13000.00000" pt_clust_9="24.12678"></scales>
<clustering>
<clus scale="   24.127">  2  9  1 -1</clus>
<clus scale="   90.573">  7  8 -1 -1</clus>
<clus scale="   91.540">  1  7  2 -1</clus>
<clus scale="   93.528">  5  6 -1 -1</clus>
<clus scale="   24.127">  2  5  1 -1</clus>
</clustering>
</event>
<event>
 9    1  0.1636528E-005  0.3013289E+03  0.7546771E-02  0.1084678E+00
         -3   -1    0    0    0  501 -0.00000000000E+00  0.00000000000E+00  0.31487696961E+03  0.31487696961E+03  0.00000000000E+00 0.  1.
         21   -1    0    0  501  502  0.00000000000E+00 -0.00000000000E+00 -0.84772293720E+03  0.84772293720E+03  0.00000000000E+00 0. -1.
         23    2    1    2    0    0 -0.14352931917E+03  0.25104137828E+03  0.20089232557E+03  0.36424510151E+03  0.93243382792E+02 0.  0.
         23    2    1    2    0    0  0.14874833897E+03 -0.22059462088E+03 -0.62452340496E+03  0.68485531187E+03  0.90604965341E+02 0.  0.
        -11    1    3    3    0    0 -0.53258784115E+02  0.15537053930E+03  0.15239004033E+03  0.22405183990E+03  0.00000000000E+00 0. -1.
         11    1    3    3    0    0 -0.90270535054E+02  0.95670838977E+02  0.48502285234E+02  0.14019326162E+03  0.00000000000E+00 0.  1.
        -13    1    4    4    0    0 -0.77201317754E+01 -0.44644132143E+02 -0.89602366957E+02  0.10040559314E+03  0.00000000000E+00 0.  1.
         13    1    4    4    0    0  0.15646847075E+03 -0.17595048874E+03 -0.53492103800E+03  0.58444971873E+03  0.00000000000E+00 0. -1.
         -3    1    1    2    0  502 -0.52190198045E+01 -0.30446757396E+02 -0.10921488821E+03  0.11349949343E+03  0.00000000000E+00 0.  1.
<scales pt_clust_5="13000.00000" pt_clust_6="13000.00000" pt_clust_7="13000.00000" pt_clust_8="13000.00000" pt_clust_9="30.89083"></scales>
<clustering>
<clus scale="   30.891">  2  9  1 -1</clus>
<clus scale="   90.605">  7  8 -1 -1</clus>
<clus scale="   93.243">  5  6 -1 -1</clus>
<clus scale="  300.523">  2  7  1 -1</clus>
<clus scale="   30.891">  2  5  1 -1</clus>
</clustering>
</event>
<event>
 9    1  0.1636528E-005  0.1303904E+03  0.7546771E-02  0.1227073E+00
          2   -1    0    0  502    0 -0.00000000000E+00  0.00000000000E+00  0.47377936760E+03  0.47377936760E+03  0.00000000000E+00 0. -1.
         21   -1    0    0  501  502  0.00000000000E+00 -0.00000000000E+00 -0.11466077693E+03  0.11466077693E+03  0.00000000000E+00 0. -1.
         23    2    1    2    0    0 -0.70419333634E+02 -0.50735604197E+02  0.24285212092E+03  0.27395351856E+03  0.92414250055E+02 0.  0.
         23    2    1    2    0    0  0.10639778731E+03  0.93272285296E+01  0.18084095734E+03  0.22975784011E+03  0.93154317672E+02 0.  0.
        -11    1    3    3    0    0 -0.48032486654E+02  0.19880949661E+02  0.11470099668E+03  0.12593129307E+03  0.00000000000E+00 0. -1.
         11    1    3    3    0    0 -0.22386846979E+02 -0.70616553858E+02  0.12815112424E+03  0.14802222549E+03  0.00000000000E+00 0.  1.
        -11    1    4    4    0    0  0.20649255155E+02 -0.29617755179E+02  0.15115390495E+02  0.39141770401E+02  0.00000000000E+00 0.  1.
         11    1    4    4    0    0  0.85748532151E+02  0.38944983708E+02  0.16572556685E+03  0.19061606971E+03  0.00000000000E+00 0. -1.
          2    1    1    2  501    0 -0.35978453673E+02  0.41408375668E+02 -0.64574487595E+02  0.84728785854E+02  0.00000000000E+00 0. -1.
<scales pt_clust_5="13000.00000" pt_clust_6="13000.00000" pt_clust_7="13000.00000" pt_clust_8="13000.00000" pt_clust_9="54.85529"></scales>
<clustering>
<clus scale="   54.855">  2  9  1 -1</clus>
<clus scale="   92.414">  5  6 -1 -1</clus>
<clus scale="   93.154">  7  8 -1 -1</clus>
<clus scale="  129.863">  1  5  2 -1</clus>
<clus scale="   54.855">  2  5  1 -1</clus>
</clustering>
</event>
<event>
 9    1  0.1636528E-005  0.1127757E+03  0.7546771E-02  0.1256934E+00
          2   -1    0    0  502    0 -0.00000000000E+00  0.00000000000E+00  0.13390792269E+03  0.13390792269E+03  0.00000000000E+00 0. -1.
         21   -1    0    0  501  502  0.00000000000E+00 -0.00000000000E+00 -0.23323512180E+03  0.23323512180E+03  0.00000000000E+00 0. -1.
         23    2    1    2    0    0 -0.32114923200E+02  0.44476182947E+02  0.46817835436E+02  0.11504610266E+03  0.89633681613E+02 0.  0.
         23    2    1    2    0    0  0.93686610439E+02 -0.51268827839E+02 -0.11563757500E+03  0.18304683118E+03  0.93426013333E+02 0.  0.
        -11    1    3    3    0    0 -0.49355469774E+02 -0.73536017903E+01  0.16402981178E+02  0.52527094413E+02  0.00000000000E+00 0.  1.
         11    1    3    3    0    0  0.17240546574E+02  0.51829784737E+02  0.30414854259E+02  0.62519008243E+02  0.00000000000E+00 0. -1.
        -11    1    4    4    0    0  0.39827221913E+02 -0.22509344545E+02  0.67800257964E+01  0.46247669639E+02  0.00000000000E+00 0.  1.
         11    1    4    4    0    0  0.53859388525E+02 -0.28759483293E+02 -0.12241760080E+03  0.13679916154E+03  0.00000000000E+00 0. -1.
          2    1    1    2  501    0 -0.61571687239E+02  0.67926448922E+01 -0.30507459545E+02  0.69050110658E+02  0.00000000000E+00 0. -1.
<scales pt_clust_5="13000.00000" pt_clust_6="13000.00000" pt_clust_7="13000.00000" pt_clust_8="13000.00000" pt_clust_9="61.94524"></scales>
<clustering>
<clus scale="   61.945">  2  9  1 -1</clus>
<clus scale="   89.634">  5  6 -1 -1</clus>
<clus scale="   93.426">  7  8 -1 -1</clus>
<clus scale="  109.655">  1  5  2 -1</clus>
<clus scale="   61.945">  2  5  1 -1</clus>
</clustering>
</event>
<event>
 9    1  0.1636528E-005  0.1013231E+03  0.7546771E-02  0.1279098E+00
          4   -1    0    0  502    0 -0.00000000000E+00  0.00000000000E+00  0.34279440339E+03  0.34279440339E+03  0.00000000000E+00 0. -1.
         21   -1    0    0  501  502  0.00000000000E+00 -0.00000000000E+00 -0.70689913961E+02  0.70689913961E+02  0.00000000000E+00 0.  1.
         23    2    1    2    0    0 -0.39525129479E+02 -0.10297137606E+02  0.24194090697E+03  0.26136053442E+03  0.90031436641E+02 0.  0.
         23    2    1    2    0    0  0.64263295052E+02  0.20078738308E+02  0.48320013199E+02  0.11991644642E+03  0.86672969399E+02 0.  0.
        -11    1    4    4    0    0  0.40933744910E+02 -0.32464927511E+02  0.24003606545E+02  0.57495357359E+02  0.00000000000E+00 0. -1.
         11    1    4    4    0    0  0.23329550142E+02  0.52543665819E+02  0.24316406654E+02  0.62421089065E+02  0.00000000000E+00 0.  1.
        -13    1    3    3    0    0 -0.59201125529E+02  0.13231537859E+02  0.10720593255E+03  0.12317856482E+03  0.00000000000E+00 0.  1.
         13    1    3    3    0    0  0.19675996050E+02 -0.23528675465E+02  0.13473497442E+03  0.13818196960E+03  0.00000000000E+00 0. -1.
          4    1    1    2  501    0 -0.24738165573E+02 -0.97816007016E+01 -0.18156430735E+02  0.32207336512E+02  0.00000000000E+00 0. -1.
<scales pt_clust_5="13000.00000" pt_clust_6="13000.00000" pt_clust_7="13000.00000" pt_clust_8="13000.00000" pt_clust_9="26.60181"></scales>
<clustering>
<clus scale="   26.602">  2  9  1 -1</clus>
<clus scale="   86.673">  5  6 -1 -1</clus>
<clus scale="   90.031">  7  8 -1 -1</clus>
<clus scale="   98.351">  2  5  1 -1</clus>
<clus scale="   26.602">  2  5  1 -1</clus>
</clustering>
</event>
<event>
 9    1  0.1636528E-005  0.1096619E+03  0.7546771E-02  0.1262883E+00
          1   -1    0    0  502    0 -0.00000000000E+00  0.00000000000E+00  0.35040316031E+03  0.35040316031E+03  0.00000000000E+00 0. -1.
         21   -1    0    0  501  502  0.00000000000E+00 -0.00000000000E+00 -0.16580237168E+03  0.16580237168E+03  0.00000000000E+00 0.  1.
         23    2    1    2    0    0 -0.59404606768E+02  0.15640163498E+02  0.31571148673E+03  0.33465908450E+03  0.92463170886E+02 0.  0.
         23    2    1    2    0    0  0.27993024628E+02 -0.12791214153E+02 -0.89928687207E+02  0.12967389188E+03  0.88209550873E+02 0.  0.
        -13    1    4    4    0    0  0.17895635363E+02  0.34344909688E+02 -0.17095670774E+02  0.42333066812E+02  0.00000000000E+00 0. -1.
         13    1    4    4    0    0  0.10097389265E+02 -0.47136123842E+02 -0.72833016432E+02  0.87340825067E+02  0.00000000000E+00 0.  1.
        -13    1    3    3    0    0 -0.30679738823E+02  0.45698680963E+02  0.92736839593E+02  0.10784125942E+03  0.00000000000E+00 0. -1.
         13    1    3    3    0    0 -0.28724867945E+02 -0.30058517465E+02  0.22297464713E+03  0.22681782508E+03  0.00000000000E+00 0.  1.
          1    1    1    2  501    0  0.31411582140E+02 -0.28489493444E+01 -0.41182010887E+02  0.51872555611E+02  0.00000000000E+00 0. -1.
<scales pt_clust_5="13000.00000" pt_clust_6="13000.00000" pt_clust_7="13000.00000" pt_clust_8="13000.00000" pt_clust_9="31.54051"></scales>
<clustering>
<clus scale="   31.541">  2  9  1 -1</clus>
<clus scale="   88.210">  5  6 -1 -1</clus>
<clus scale="   92.463">  7  8 -1 -1</clus>
<clus scale="  106.100">  2  5  1 -1</clus>
<clus scale="   31.541">  2  5  1 -1</clus>
</clustering>
</event>
<event>
 9    1  0.1636528E-005  0.1109517E+03  0.7546771E-02  0.1261747E+00
          2   -1    0    0  502    0 -0.00000000000E+00  0.00000000000E+00  0.68557014339E+03  0.68557014339E+03  0.00000000000E+00 0. -1.
         21   -1    0    0  501  502  0.00000000000E+00 -0.00000000000E+00 -0.24071326118E+02  0.24071326118E+02  0.00000000000E+00 0.  1.
         23    2    1    2    0    0  0.28698109667E+02  0.49216884423E+02  0.41391282115E+03  0.42803394089E+03  0.92969607008E+02 0.  0.
         23    2    1    2    0    0 -0.17083845330E+02 -0.67841169715E+02  0.18717677832E+03  0.21733444923E+03  0.85468323965E+02 0.  0.
        -11    1    4    4    0    0  0.27553154694E+02 -0.32754193604E+02  0.36278306451E+02  0.56108190589E+02  0.00000000000E+00 0.  1.
         11    1    4    4    0    0 -0.44637000025E+02 -0.35086976111E+02  0.15089847187E+03  0.16122625864E+03  0.00000000000E+00 0. -1.
        -13    1    3    3    0    0  0.37422007374E+02 -0.11960971582E+02  0.88836030628E+02  0.97135533224E+02  0.00000000000E+00 0.  1.
         13    1    3    3    0    0 -0.87238977070E+01  0.61177856006E+02  0.32507679052E+03  0.33089840766E+03  0.00000000000E+00 0. -1.
          2    1    1    2  501    0 -0.11614264337E+02  0.18624285291E+02  0.60409217800E+02  0.64273079388E+02  0.00000000000E+00 0. -1.
<scales pt_clust_5="13000.00000" pt_clust_6="13000.00000" pt_clust_7="13000.00000" pt_clust_8="13000.00000" pt_clust_9="21.94893"></scales>
<clustering>
<clus scale="   21.949">  2  9  1 -1</clus>
<clus scale="   85.468">  5  6 -1 -1</clus>
<clus scale="   92.970">  7  8 -1 -1</clus>
<clus scale="  104.746">  2  5  1 -1</clus>
<clus scale="   21.949">  2  5  1 -1</clus>
</clustering>
</event>
<event>
 9    1  0.1636528E-005  0.1431444E+03  0.7546771E-02  0.1209917E+00
         21   -1    0    0  501  502  0.00000000000E+00  0.00000000000E+00  0.13024374962E+03  0.13024374962E+03  0.00000000000E+00 0. -1.
         -1   -1    0    0    0  501 -0.00000000000E+00 -0.00000000000E+00 -0.25258215268E+03  0.25258215268E+03  0.00000000000E+00 0.  1.
         23    2    1    2    0    0 -0.66166095217E+02 -0.87370016501E+02 -0.58835912797E+02  0.15289219916E+03  0.88898188893E+02 0.  0.
         23    2    1    2    0    0  0.51524116952E+01  0.12011830367E+03 -0.45883557213E+02  0.15848059481E+03  0.92497804748E+02 0.  0.
        -11    1    3    3    0    0 -0.24748127703E+02  0.16840594732E+01  0.15910734843E+02  0.29469600682E+02  0.00000000000E+00 0. -1.
         11    1    3    3    0    0 -0.41417967514E+02 -0.89054075975E+02 -0.74746647640E+02  0.12342259847E+03  0.00000000000E+00 0.  1.
        -11    1    4    4    0    0 -0.21238197999E+02  0.76246024355E+02 -0.66412063604E+02  0.10332027621E+03  0.00000000000E+00 0. -1.
         11    1    4    4    0    0  0.26390609694E+02  0.43872279320E+02  0.20528506391E+02  0.55160318594E+02  0.00000000000E+00 0.  1.
         -1    1    1    2    0  502  0.61013683522E+02 -0.32748287174E+02 -0.17618933055E+02  0.71453108342E+02  0.00000000000E+00 0.  1.
<scales pt_clust_5="13000.00000" pt_clust_6="13000.00000" pt_clust_7="13000.00000" pt_clust_8="13000.00000" pt_clust_9="69.24680"></scales>
<clustering>
<clus scale="   69.247">  1  9  2 -1</clus>
<clus scale="   88.898">  5  6 -1 -1</clus>
<clus scale="   92.498">  7  8 -1 -1</clus>
<clus scale="  140.845">  2  5  1 -1</clus>
<clus scale="   69.247">  1  5  2 -1</clus>
</clustering>
</event>
<event>
 9    1  0.1636528E-005  0.1099286E+03  0.7546771E-02  0.1261051E+00
         21   -1    0    0  501  502  0.00000000000E+00  0.00000000000E+00  0.44592084811E+03  0.44592084811E+03  0.00000000000E+00 0. -1.
          1   -1    0    0  502    0 -0.00000000000E+00 -0.00000000000E+00 -0.16815359623E+03  0.16815359623E+03  0.00000000000E+00 0. -1.
         23    2    1    2    0    0 -0.33700702934E+01 -0.52979933057E+02 -0.11365534801E+03  0.15585836981E+03  0.92498987172E+02 0.  0.
         23    2    1    2    0    0  0.16884815795E+02  0.11164908859E+03  0.14806643997E+03  0.20752315735E+03  0.91605535874E+02 0.  0.
        -11    1    3    3    0    0 -0.16760644170E+02 -0.75630606249E+02 -0.67587668226E+02  0.10280564523E+03  0.00000000000E+00 0. -1.
         11    1    3    3    0    0  0.13390573876E+02  0.22650673191E+02 -0.46067679787E+02  0.53052724583E+02  0.00000000000E+00 0.  1.
        -11    1    4    4    0    0  0.43126880853E+02  0.38641567080E+02  0.10201608932E+03  0.11730465054E+03  0.00000000000E+00 0.  1.
         11    1    4    4    0    0 -0.26242065058E+02  0.73007521509E+02  0.46050350654E+02  0.90218506809E+02  0.00000000000E+00 0. -1.
          1    1    1    2  501    0 -0.13514745502E+02 -0.58669155532E+02  0.24335615992E+03  0.25069291719E+03  0.00000000000E+00 0. -1.
<scales pt_clust_5="13000.00000" pt_clust_6="13000.00000" pt_clust_7="13000.00000" pt_clust_8="13000.00000" pt_clust_9="60.20563"></scales>
<clustering>
<clus scale="   60.206">  1  9  2 -1</clus>
<clus scale="   91.606">  7  8 -1 -1</clus>
<clus scale="   92.499">  5  6 -1 -1</clus>
<clus scale="  109.178">  1  7  2 -1</clus>
<clus scale="   60.206">  1  5  2 -1</clus>
</clustering>
</event>
<event>
 9    1  0.1636528E-005  0.1191203E+03  0.7546771E-02  0.1246432E+00
         21   -1    0    0  501  502  0.00000000000E+00  0.00000000000E+00  0.62143524315E+03  0.62143524315E+03  0.00000000000E+00 0.  1.
         -2   -1    0    0    0  501 -0.00000000000E+00 -0.00000000000E+00 -0.13185330488E+03  0.13185330488E+03  0.00000000000E+00 0.  1.
         23    2    1    2    0    0 -0.49775634493E+02  0.66611014948E+02 -0.61774179471E+02  0.14013409826E+03  0.94376242480E+02 0.  0.
         23    2    1    2    0    0  0.65381135554E+02  0.53773559998E+02  0.15295777518E+03  0.19667249710E+03  0.90098287916E+02 0.  0.
        -11    1    4    4    0    0  0.37695839272E+02  0.36263895684E+02  0.14340788219E+02  0.54237483675E+02  0.00000000000E+00 0.  1.
         11    1    4    4    0    0  0.27685296281E+02  0.17509664314E+02  0.13861698696E+03  0.14243501342E+03  0.00000000000E+00 0. -1.
        -13    1    3    3    0    0 -0.43220912524E+02  0.87759884190E+02 -0.65434175306E+02  0.11769229308E+03  0.00000000000E+00 0.  1.
         13    1    3    3    0    0 -0.65547219686E+01 -0.21148869242E+02  0.36599958346E+01  0.22441805181E+02  0.00000000000E+00 0. -1.
         -2    1    1    2    0  502 -0.15605501061E+02 -0.12038457495E+03  0.39839834256E+03  0.41648195267E+03  0.00000000000E+00 0.  1.
<scales pt_clust_5="13000.00000" pt_clust_6="13000.00000" pt_clust_7="13000.00000" pt_clust_8="13000.00000" pt_clust_9="121.39183"></scales>
<clustering>
<clus scale="   90.098">  5  6 -1 -1</clus>
<clus scale="   94.376">  7  8 -1 -1</clus>
<clus scale="  121.392">  1  9  2 -1</clus>
<clus scale="  121.392">  1  5  2 -1</clus>
<clus scale="  119.120">  1  5  2 -1</clus>
</clustering>
</event>
<event>
 9    1  0.1636528E-005  0.9720036E+02  0.7546771E-02  0.1287875E+00
          1   -1    0    0  502    0 -0.00000000000E+00  0.00000000000E+00  0.65163548326E+02  0.65163548326E+02  0.00000000000E+00 0. -1.
         21   -1    0    0  501  502  0.00000000000E+00 -0.00000000000E+00 -0.39447572909E+03  0.39447572909E+03  0.00000000000E+00 0. -1.
         23    2    1    2    0    0 -0.76395562577E+01 -0.31984718002E+02  0.81828590838E+01  0.96036979898E+02  0.89859653458E+02 0.  0.
         23    2    1    2    0    0  0.24530156768E+02 -0.29647334575E+01 -0.25260401035E+03  0.27025754174E+03  0.92843064279E+02 0.  0.
        -13    1    4    4    0    0 -0.76841337003E+01 -0.33508279560E+02 -0.19245187860E+03  0.19549827694E+03  0.00000000000E+00 0. -1.
         13    1    4    4    0    0  0.32214290468E+02  0.30543546103E+02 -0.60152131755E+02  0.74759264801E+02  0.00000000000E+00 0.  1.
        -13    1    3    3    0    0 -0.47522970557E+02 -0.28716638359E+02  0.21443865530E+01  0.55566864613E+02  0.00000000000E+00 0. -1.
         13    1    3    3    0    0  0.39883414299E+02 -0.32680796424E+01  0.60384725308E+01  0.40470115285E+02  0.00000000000E+00 0.  1.
          1    1    1    2  501    0 -0.16890600510E+02  0.34949451459E+02 -0.84891029499E+02  0.93344755783E+02  0.00000000000E+00 0. -1.
<scales pt_clust_5="13000.00000" pt_clust_6="13000.00000" pt_clust_7="13000.00000" pt_clust_8="13000.00000" pt_clust_9="38.81696"></scales>
<clustering>
<clus scale="   38.817">  2  9  1 -1</clus>
<clus scale="   89.860">  7  8 -1 -1</clus>
<clus scale="   92.843">  5  6 -1 -1</clus>
<clus scale="   94.355">  1  7  2 -1</clus>
<clus scale="   38.817">  2  5  1 -1</clus>
</clustering>
</event>
<event>
 9    1  0.1636528E-005  0.8761158E+02  0.7546771E-02  0.1310029E+00
         21   -1    0    0  501  502  0.00000000000E+00  0.00000000000E+00  0.53223342836E+02  0.53223342836E+02  0.00000000000E+00 0. -1.
         -2   -1    0    0    0  501 -0.00000000000E+00 -0.00000000000E+00 -0.40996485015E+03  0.40996485015E+03  0.00000000000E+00 0.  1.
         23    2    1    2    0    0 -0.17216398246E+02  0.80653316998E+01 -0.32495560959E+03  0.33628718732E+03  0.84448032587E+02 0.  0.
         23    2    1    2    0    0 -0.13479396409E+02  0.11117836285E+01 -0.35848149718E+02  0.94606220538E+02  0.86500386912E+02 0.  0.
        -13    1    3    3    0    0  0.32886509254E+02 -0.52277442303E+01 -0.98568362954E+02  0.10404121287E+03  0.00000000000E+00 0.  1.
         13    1    3    3    0    0 -0.50102907499E+02  0.13293075930E+02 -0.22638724663E+03  0.23224597444E+03  0.00000000000E+00 0. -1.
        -13    1    4    4    0    0  0.21343345056E+02  0.10013140763E+02  0.18141020610E+02  0.29747235080E+02  0.00000000000E+00 0.  1.
         13    1    4    4    0    0 -0.34822741465E+02 -0.89013571347E+01 -0.53989170328E+02  0.64858985458E+02  0.00000000000E+00 0. -1.
         -2    1    1    2    0  502  0.30695794655E+02 -0.91771153284E+01  0.40622519932E+01  0.32294785129E+02  0.00000000000E+00 0.  1.
<scales pt_clust_5="13000.00000" pt_clust_6="13000.00000" pt_clust_7="13000.00000" pt_clust_8="13000.00000" pt_clust_9="32.03828"></scales>
<clustering>
<clus scale="   32.038">  1  9  2 -1</clus>
<clus scale="   84.448">  5  6 -1 -1</clus>
<clus scale="   85.586">  2  5  1 -1</clus>
<clus scale="   86.500">  7  8 -1 -1</clus>
<clus scale="   32.038">  1  5  2 -1</clus>
</clustering>
</event>
<event>
 9    1  0.1636528E-005  0.1014115E+03  0.7546771E-02  0.1277815E+00
         21   -1    0    0  501  502  0.00000000000E+00  0.00000000000E+00  0.15263932196E+03  0.15263932196E+03  0.00000000000E+00 0. -1.
         -3   -1    0    0    0  501 -0.00000000000E+00 -0.00000000000E+00 -0.21659536414E+03  0.21659536414E+03  0.00000000000E+00 0.  1.
         23    2    1    2    0    0 -0.65063170325E+01 -0.34822963193E+02 -0.11704254852E+03  0.15381587131E+03  0.93302696506E+02 0.  0.
         23    2    1    2    0    0  0.43227992222E+02  0.35750020614E+02 -0.40107396345E+02  0.11524674103E+03  0.92338966805E+02 0.  0.
        -11    1    3    3    0    0 -0.49436679337E+01  0.21412266305E+02 -0.87611421053E+02  0.90325445473E+02  0.00000000000E+00 0.  1.
         11    1    3    3    0    0 -0.15626490988E+01 -0.56235229497E+02 -0.29431127470E+02  0.63490425837E+02  0.00000000000E+00 0. -1.
        -13    1    4    4    0    0 -0.12467060548E+02 -0.21432448360E+02  0.22225326949E+01  0.24894117638E+02  0.00000000000E+00 0.  1.
         13    1    4    4    0    0  0.55695052770E+02  0.57182468974E+02 -0.42329929040E+02  0.90352623390E+02  0.00000000000E+00 0. -1.
         -3    1    1    2    0  502 -0.36721675189E+02 -0.92705742115E+00  0.93193902682E+02  0.10017207376E+03  0.00000000000E+00 0.  1.
<scales pt_clust_5="13000.00000" pt_clust_6="13000.00000" pt_clust_7="13000.00000" pt_clust_8="13000.00000" pt_clust_9="36.73338"></scales>
<clustering>
<clus scale="   36.733">  1  9  2 -1</clus>
<clus scale="   92.339">  7  8 -1 -1</clus>
<clus scale="   93.303">  5  6 -1 -1</clus>
<clus scale="  100.525">  1  7  2 -1</clus>
<clus scale="   36.733">  1  5  2 -1</clus>
</clustering>
</event>
<event>
 9    1  0.1636528E-005  0.1524242E+03  0.7546771E-02  0.1208998E+00
         21   -1    0    0  501  502  0.00000000000E+00  0.00000000000E+00  0.72426523960E+03  0.72426523960E+03  0.00000000000E+00 0. -1.
          4   -1    0    0  502    0 -0.00000000000E+00 -0.00000000000E+00 -0.21537823273E+03  0.21537823273E+03  0.00000000000E+00 0. -1.
         23    2    1    2    0    0  0.68815351740E+02  0.68595949152E+01  0.91687308401E+02  0.15020013479E+03  0.96803467356E+02 0.  0.
         23    2    1    2    0    0 -0.14062927390E+03 -0.10386619719E+03 -0.12541491526E+03  0.23356732678E+03  0.90884627807E+02 0.  0.
        -11    1    4    4    0    0 -0.48754803296E+02  0.48599473101E+00 -0.66756880447E+02  0.82666487299E+02  0.00000000000E+00 0. -1.
         11    1    4    4    0    0 -0.91874470608E+02 -0.10435219192E+03 -0.58658034817E+02  0.15090083948E+03  0.00000000000E+00 0.  1.
        -13    1    3    3    0    0  0.88469513682E+02  0.22684872085E+01  0.94901589217E+02  0.12976252356E+03  0.00000000000E+00 0.  1.
         13    1    3    3    0    0 -0.19654161942E+02  0.45911077068E+01 -0.32142808158E+01  0.20437611230E+02  0.00000000000E+00 0. -1.
          4    1    1    2  501    0  0.71813922163E+02  0.97006602271E+02  0.54261461373E+03  0.55587601076E+03  0.00000000000E+00 0. -1.
<scales pt_clust_5="13000.00000" pt_clust_6="13000.00000" pt_clust_7="13000.00000" pt_clust_8="13000.00000" pt_clust_9="122.36470"></scales>
<clustering>
<clus scale="   90.885">  5  6 -1 -1</clus>
<clus scale="   96.803">  7  8 -1 -1</clus>
<clus scale="  118.969">  2  7  1 -1</clus>
<clus scale="  122.365">  1  9  2 -1</clus>
<clus scale="  122.365">  1  5  2 -1</clus>
</clustering>
</event>
<event>
 9    1  0.1636528E-005  0.2289350E+03  0.7546771E-02  0.1127845E+00
         -1   -1    0    0    0  501 -0.00000000000E+00  0.00000000000E+00  0.35945209247E+03  0.35945209247E+03  0.00000000000E+00 0.  1.
         21   -1    0    0  501  502  0.00000000000E+00 -0.00000000000E+00 -0.21828975954E+03  0.21828975954E+03  0.00000000000E+00 0.  1.
         23    2    1    2    0    0  0.72612402591E+02  0.17920561446E+03  0.11693386391E+03  0.24717798810E+03  0.10018091639E+03 0.  0.
         23    2    1    2    0    0 -0.11054655914E+03 -0.19408794665E+03  0.85432502748E+02  0.25703551707E+03  0.94222458774E+02 0.  0.
        -13    1    3    3    0    0 -0.82865022866E+01  0.74029950705E+02  0.80283756489E+02  0.10951977574E+03  0.00000000000E+00 0. -1.
         13    1    3    3    0    0  0.80898904878E+02  0.10517566376E+03  0.36650107417E+02  0.13765821236E+03  0.00000000000E+00 0.  1.
        -13    1    4    4    0    0 -0.97045691348E+02 -0.13135212654E+03  0.18578520383E+02  0.16436668998E+03  0.00000000000E+00 0.  1.
         13    1    4    4    0    0 -0.13500867790E+02 -0.62735820113E+02  0.66853982365E+02  0.92668827091E+02  0.00000000000E+00 0. -1.
         -1    1    1    2    0  502  0.37934156546E+02  0.14882332193E+02 -0.61204033729E+02  0.73528346840E+02  0.00000000000E+00 0.  1.
<scales pt_clust_5="13000.00000" pt_clust_6="13000.00000" pt_clust_7="13000.00000" pt_clust_8="13000.00000" pt_clust_9="40.74904"></scales>
<clustering>
<clus scale="   40.749">  2  9  1 -1</clus>
<clus scale="   94.222">  7  8 -1 -1</clus>
<clus scale="  100.181">  5  6 -1 -1</clus>
<clus scale="  226.391">  2  7  1 -1</clus>
<clus scale="   40.749">  2  5  1 -1</clus>
</clustering>
</event>
<event>
 9    1  0.1636528E-005  0.1095924E+03  0.7546771E-02  0.1261980E+00
         -3   -1    0    0    0  501 -0.00000000000E+00  0.00000000000E+00  0.55105268454E+03  0.55105268454E+03  0.00000000000E+00 0.  1.
         21   -1    0    0  501  502  0.00000000000E+00 -0.00000000000E+00 -0.34567683318E+02  0.34567683318E+02  0.00000000000E+00 0. -1.
         23    2    1    2    0    0 -0.61324948582E+02  0.26393247994E+02  0.38227030173E+03  0.39888355052E+03  0.92304660952E+02 0.  0.
         23    2    1    2    0    0  0.36110163514E+02 -0.23510297121E+02  0.12362553123E+03  0.15923723050E+03  0.90645163278E+02 0.  0.
        -11    1    4    4    0    0  0.39468826264E+02  0.11642517386E+02  0.13065374117E+02  0.43174534839E+02  0.00000000000E+00 0. -1.
         11    1    4    4    0    0 -0.33586627501E+01 -0.35152814508E+02  0.11056015711E+03  0.11606269566E+03  0.00000000000E+00 0.  1.
        -11    1    3    3    0    0 -0.73701707006E+02 -0.19368721759E+01  0.33016718789E+03  0.33829878073E+03  0.00000000000E+00 0.  1.
         11    1    3    3    0    0  0.12376758424E+02  0.28330120170E+02  0.52103113843E+02  0.60584769786E+02  0.00000000000E+00 0. -1.
         -3    1    1    2    0  502  0.25214785069E+02 -0.28829508729E+01  0.10589168265E+02  0.27499586839E+02  0.00000000000E+00 0.  1.
<scales pt_clust_5="13000.00000" pt_clust_6="13000.00000" pt_clust_7="13000.00000" pt_clust_8="13000.00000" pt_clust_9="25.37906"></scales>
<clustering>
<clus scale="   25.379">  2  9  1 -1</clus>
<clus scale="   90.645">  5  6 -1 -1</clus>
<clus scale="   92.305">  7  8 -1 -1</clus>
<clus scale="  108.198">  2  5  1 -1</clus>
<clus scale="   25.379">  2  5  1 -1</clus>
</clustering>
</event>
<event>
 9    1  0.1636528E-005  0.9333781E+02  0.7546771E-02  0.1295302E+00
         -1   -1    0    0    0  501 -0.00000000000E+00  0.00000000000E+00  0.67350123141E+03  0.67350123141E+03  0.00000000000E+00 0.  1.
         21   -1    0    0  501  502  0.00000000000E+00 -0.00000000000E+00 -0.20101992931E+02  0.20101992931E+02  0.00000000000E+00 0. -1.
         23    2    1    2    0    0 -0.11288610518E+02 -0.17153046161E+02  0.27079939820E+03  0.28655130178E+03  0.91420319229E+02 0.  0.
         23    2    1    2    0    0  0.26280665719E+02 -0.21417706219E+02  0.28516028502E+03  0.30118912651E+03  0.90824612546E+02 0.  0.
        -13    1    3    3    0    0 -0.41719218551E+01  0.33889957251E+02  0.16939355651E+03  0.17280078449E+03  0.00000000000E+00 0.  1.
         13    1    3    3    0    0 -0.71166886628E+01 -0.51043003412E+02  0.10140584169E+03  0.11375051729E+03  0.00000000000E+00 0. -1.
        -13    1    4    4    0    0  0.95276472960E+01  0.35764431017E+02  0.12190406770E+03  0.12739887092E+03  0.00000000000E+00 0.  1.
         13    1    4    4    0    0  0.16753018423E+02 -0.57182137236E+02  0.16325621731E+03  0.17379025559E+03  0.00000000000E+00 0. -1.
         -1    1    1    2    0  502 -0.14992055201E+02  0.38570752380E+02  0.97439555262E+02  0.10586279605E+03  0.00000000000E+00 0.  1.
<scales pt_clust_5="13000.00000" pt_clust_6="13000.00000" pt_clust_7="13000.00000" pt_clust_8="13000.00000" pt_clust_9="41.38194"></scales>
<clustering>
<clus scale="   41.382">  2  9  1 -1</clus>
<clus scale="   90.825">  7  8 -1 -1</clus>
<clus scale="   91.420">  5  6 -1 -1</clus>
<clus scale="   92.754">  2  7  1 -1</clus>
<clus scale="   41.382">  2  5  1 -1</clus>
</clustering>
</event>
<event>
 9    1  0.1636528E-005  0.1192361E+03  0.7546771E-02  0.1247966E+00
          1   -1    0    0  502    0 -0.00000000000E+00  0.00000000000E+00  0.42689722870E+03  0.42689722870E+03  0.00000000000E+00 0. -1.
         21   -1    0    0  501  502  0.00000000000E+00 -0.00000000000E+00 -0.46761323395E+02  0.46761323395E+02  0.00000000000E+00 0.  1.
         23    2    1    2    0    0  0.64464326334E+02 -0.24872199661E+02  0.20520979064E+03  0.23833451409E+03  0.99589189921E+02 0.  0.
         23    2    1    2    0    0 -0.65105319115E+02 -0.43258192937E+01  0.17383551421E+03  0.20609862797E+03  0.89445196408E+02 0.  0.
        -11    1    4    4    0    0 -0.18165677037E+02 -0.35243474456E+02  0.24677867338E+02  0.46702156806E+02  0.00000000000E+00 0.  1.
         11    1    4    4    0    0 -0.46939642078E+02  0.30917655162E+02  0.14915764687E+03  0.15939647116E+03  0.00000000000E+00 0. -1.
        -11    1    3    3    0    0  0.71861531994E+01 -0.55693922890E+02  0.93426474837E+02  0.10900440379E+03  0.00000000000E+00 0.  1.
         11    1    3    3    0    0  0.57278173134E+02  0.30821723229E+02  0.11178331580E+03  0.12933011030E+03  0.00000000000E+00 0. -1.
          1    1    1    2  501    0  0.64099278135E+00  0.29198018955E+02  0.10906004668E+01  0.29225410040E+02  0.00000000000E+00 0. -1.
<scales pt_clust_5="13000.00000" pt_clust_6="13000.00000" pt_clust_7="13000.00000" pt_clust_8="13000.00000" pt_clust_9="29.20505"></scales>
<clustering>
<clus scale="   29.205">  2  9  1 -1</clus>
<clus scale="   89.445">  5  6 -1 -1</clus>
<clus scale="   99.589">  7  8 -1 -1</clus>
<clus scale="  110.904">  2  5  1 -1</clus>
<clus scale="   29.205">  2  5  1 -1</clus>
</clustering>
</event>
<event>
 9    1  0.1636528E-005  0.1188530E+03  0.7546771E-02  0.1245190E+00
         21   -1    0    0  501  502  0.00000000000E+00  0.00000000000E+00  0.28945444268E+02  0.28945444268E+02  0.00000000000E+00 0.  1.
          1   -1    0    0  502    0 -0.00000000000E+00 -0.00000000000E+00 -0.62085993176E+03  0.62085993176E+03  0.00000000000E+00 0. -1.
         23    2    1    2    0    0 -0.46791241844E+02  0.69608721034E+02 -0.35580746045E+03  0.37694575698E+03  0.91947596119E+02 0.  0.
         23    2    1    2    0    0  0.27020817466E+02 -0.56553948546E+02 -0.20780615480E+03  0.23595113582E+03  0.92526033357E+02 0.  0.
        -13    1    4    4    0    0  0.26087484227E+02  0.93561854720E+01 -0.13616506639E+02  0.30878864826E+02  0.00000000000E+00 0.  1.
         13    1    4    4    0    0  0.93333323841E+00 -0.65910134018E+02 -0.19418964816E+03  0.20507227100E+03  0.00000000000E+00 0. -1.
        -13    1    3    3    0    0 -0.33678765382E+02  0.92297268558E+02 -0.28128887365E+03  0.29795381431E+03  0.00000000000E+00 0.  1.
         13    1    3    3    0    0 -0.13112476462E+02 -0.22688547524E+02 -0.74518586806E+02  0.78991942673E+02  0.00000000000E+00 0. -1.
          1    1    1    2  501    0  0.19770424378E+02 -0.13054772488E+02 -0.28300872229E+02  0.36908483222E+02  0.00000000000E+00 0. -1.
<scales pt_clust_5="13000.00000" pt_clust_6="13000.00000" pt_clust_7="13000.00000" pt_clust_8="13000.00000" pt_clust_9="23.69170"></scales>
<clustering>
<clus scale="   23.692">  1  9  2 -1</clus>
<clus scale="   91.948">  7  8 -1 -1</clus>
<clus scale="   92.526">  5  6 -1 -1</clus>
<clus scale="  118.403">  2  7  1 -1</clus>
<clus scale="   23.692">  1  5  2 -1</clus>
</clustering>
</event>
<event>
 9    1  0.1636528E-005  0.9192028E+02  0.7546771E-02  0.1299178E+00
         21   -1    0    0  501  502  0.00000000000E+00  0.00000000000E+00  0.28687642988E+03  0.28687642988E+03  0.00000000000E+00 0. -1.
          1   -1    0    0  502    0 -0.00000000000E+00 -0.00000000000E+00 -0.42226437360E+03  0.42226437360E+03  0.00000000000E+00 0. -1.
         23    2    1    2    0    0  0.74196165426E+01  0.51845618923E+01 -0.38864607826E+03  0.39901227208E+03  0.89905999440E+02 0.  0.
         23    2    1    2    0    0 -0.46066687416E+02  0.36008953092E+02  0.21804341151E+03  0.24356594068E+03  0.91447546523E+02 0.  0.
        -11    1    4    4    0    0 -0.30450622141E+02 -0.20654030987E+02  0.33044343901E+02  0.49454605939E+02  0.00000000000E+00 0.  1.
         11    1    4    4    0    0 -0.15616065275E+02  0.56662984078E+02  0.18499906761E+03  0.19411133475E+03  0.00000000000E+00 0. -1.
        -11    1    3    3    0    0 -0.22014185432E+02 -0.34510524329E+02 -0.17893259210E+03  0.18355509573E+03  0.00000000000E+00 0.  1.
         11    1    3    3    0    0  0.29433801975E+02  0.39695086222E+02 -0.20971348616E+03  0.21545717636E+03  0.00000000000E+00 0. -1.
          1    1    1    2  501    0  0.38647070873E+02 -0.41193514984E+02  0.35214723027E+02  0.66562590708E+02  0.00000000000E+00 0. -1.
<scales pt_clust_5="13000.00000" pt_clust_6="13000.00000" pt_clust_7="13000.00000" pt_clust_8="13000.00000" pt_clust_9="56.48453"></scales>
<clustering>
<clus scale="   56.485">  1  9  2 -1</clus>
<clus scale="   89.906">  7  8 -1 -1</clus>
<clus scale="   90.387">  2  7  1 -1</clus>
<clus scale="   91.448">  5  6 -1 -1</clus>
<clus scale="   56.485">  1  5  2 -1</clus>
</clustering>
</event>
<event>
 9    1  0.1636528E-005  0.1148512E+03  0.7546771E-02  0.1251959E+00
          2   -1    0    0  502    0 -0.00000000000E+00  0.00000000000E+00  0.59578285891E+03  0.59578285891E+03  0.00000000000E+00 0. -1.
         21   -1    0    0  501  502  0.00000000000E+00 -0.00000000000E+00 -0.10498918397E+03  0.10498918397E+03  0.00000000000E+00 0. -1.
         23    2    1    2    0    0 -0.17504241504E+01  0.74125493402E+02  0.43065776849E+03  0.44642293350E+03  0.91267021634E+02 0.  0.
         23    2    1    2    0    0  0.18508005377E+02 -0.57893417897E+02  0.13626287860E+03  0.17472742457E+03  0.90928030396E+02 0.  0.
        -13    1    4    4    0    0  0.43909484671E+01 -0.80182986907E+02  0.84158925101E+02  0.11632418705E+03  0.00000000000E+00 0.  1.
         13    1    4    4    0    0  0.14117056910E+02  0.22289569009E+02  0.52103953502E+02  0.58403237521E+02  0.00000000000E+00 0. -1.
        -13    1    3    3    0    0 -0.34651028763E+02  0.17002623059E+02  0.71376214240E+02  0.81143988961E+02  0.00000000000E+00 0.  1.
         13    1    3    3    0    0  0.32900604612E+02  0.57122870343E+02  0.35928155425E+03  0.36527894454E+03  0.00000000000E+00 0. -1.
          2    1    1    2  501    0 -0.16757581227E+02 -0.16232075505E+02 -0.76126972153E+02  0.79621684816E+02  0.00000000000E+00 0. -1.
<scales pt_clust_5="13000.00000" pt_clust_6="13000.00000" pt_clust_7="13000.00000" pt_clust_8="13000.00000" pt_clust_9="23.33017"></scales>
<clustering>
<clus scale="   23.330">  2  9  1 -1</clus>
<clus scale="   90.928">  5  6 -1 -1</clus>
<clus scale="   91.267">  7  8 -1 -1</clus>
<clus scale="  114.582">  2  5  1 -1</clus>
<clus scale="   23.330">  2  5  1 -1</clus>
</clustering>
</event>
<event>
 9    1  0.1636528E-005  0.9780018E+02  0.7546771E-02  0.1285598E+00
          1   -1    0    0  502    0 -0.00000000000E+00  0.00000000000E+00  0.21358644408E+03  0.21358644408E+03  0.00000000000E+00 0. -1.
         21   -1    0    0  501  502  0.00000000000E+00 -0.00000000000E+00 -0.10232298285E+03  0.10232298285E+03  0.00000000000E+00 0. -1.
         23    2    1    2    0    0 -0.46167145192E+02  0.44770407605E+02  0.70218794502E+02  0.13101361884E+03  0.89989413416E+02 0.  0.
         23    2    1    2    0    0 -0.27765512863E+02 -0.22727443307E+02  0.44604889077E+02  0.10766495037E+03  0.91184894719E+02 0.  0.
        -11    1    4    4    0    0 -0.60433503020E+02 -0.10269309342E+02  0.18496699486E+02  0.64029640741E+02  0.00000000000E+00 0. -1.
         11    1    4    4    0    0  0.32667990156E+02 -0.12458133965E+02  0.26108189591E+02  0.43635309629E+02  0.00000000000E+00 0.  1.
        -13    1    3    3    0    0 -0.51409263922E+02  0.65958211159E+02  0.70202520697E+02  0.10918695869E+03  0.00000000000E+00 0. -1.
         13    1    3    3    0    0  0.52421187297E+01 -0.21187803554E+02  0.16273804990E-01  0.21826660144E+02  0.00000000000E+00 0.  1.
          1    1    1    2  501    0  0.73932658056E+02 -0.22042964298E+02 -0.35602223455E+01  0.77230857728E+02  0.00000000000E+00 0. -1.
<scales pt_clust_5="13000.00000" pt_clust_6="13000.00000" pt_clust_7="13000.00000" pt_clust_8="13000.00000" pt_clust_9="77.14875"></scales>
<clustering>
<clus scale="   77.149">  2  9  1 -1</clus>
<clus scale="   89.989">  7  8 -1 -1</clus>
<clus scale="   91.185">  5  6 -1 -1</clus>
<clus scale="   96.687">  1  7  2 -1</clus>
<clus scale="   77.149">  2  5  1 -1</clus>
</clustering>
</event>
<event>
 9    1  0.1636528E-005  0.1029879E+03  0.7546771E-02  0.1274697E+00
         -1   -1    0    0    0  501 -0.00000000000E+00  0.00000000000E+00  0.16431390139E+03  0.16431390139E+03  0.00000000000E+00 0.  1.
         21   -1    0    0  501  502  0.00000000000E+00 -0.00000000000E+00 -0.13398635169E+03  0.13398635169E+03  0.00000000000E+00 0. -1.
         23    2    1    2    0    0  0.22337268788E+02 -0.48965784264E+01  0.31021525234E+02  0.99371479130E+02  0.91593808630E+02 0.  0.
         23    2    1    2    0    0 -0.56155196392E+02  0.43681711055E+02  0.49546934916E+02  0.12701154498E+03  0.92819910778E+02 0.  0.
        -11    1    3    3    0    0  0.59301069664E+01 -0.44327584558E+02  0.34555650322E+02  0.56517199953E+02  0.00000000000E+00 0. -1.
         11    1    3    3    0    0  0.16407161821E+02  0.39431006132E+02 -0.35341250876E+01  0.42854279177E+02  0.00000000000E+00 0.  1.
        -11    1    4    4    0    0 -0.71379546456E+01  0.58835350272E+02  0.57334377510E+01  0.59543439156E+02  0.00000000000E+00 0.  1.
         11    1    4    4    0    0 -0.49017241747E+02 -0.15153639217E+02  0.43813497165E+02  0.67468105827E+02  0.00000000000E+00 0. -1.
         -1    1    1    2    0  502  0.33817927604E+02 -0.38785132628E+02 -0.50240910451E+02  0.71917228975E+02  0.00000000000E+00 0.  1.
<scales pt_clust_5="13000.00000" pt_clust_6="13000.00000" pt_clust_7="13000.00000" pt_clust_8="13000.00000" pt_clust_9="51.45813"></scales>
<clustering>
<clus scale="   51.458">  2  9  1 -1</clus>
<clus scale="   91.594">  5  6 -1 -1</clus>
<clus scale="   92.820">  7  8 -1 -1</clus>
<clus scale="  101.884">  1  5  2 -1</clus>
<clus scale="   51.458">  2  5  1 -1</clus>
</clustering>
</event>
<event>
 9    1  0.1636528E-005  0.1913548E+03  0.7546771E-02  0.1157673E+00
         21   -1    0    0  501  502  0.00000000000E+00  0.00000000000E+00  0.56424510876E+02  0.56424510876E+02  0.00000000000E+00 0. -1.
          2   -1    0    0  502    0 -0.00000000000E+00 -0.00000000000E+00 -0.10541111457E+04  0.10541111457E+04  0.00000000000E+00 0. -1.
         23    2    1    2    0    0 -0.14235179306E+03  0.36816899737E+02 -0.47365444879E+03  0.50369157892E+03  0.87961086405E+02 0.  0.
         23    2    1    2    0    0  0.21005507199E+03 -0.79002884661E+01 -0.43032151342E+03  0.48767363440E+03  0.91996852954E+02 0.  0.
        -11    1    3    3    0    0 -0.28853042987E+02 -0.27897270389E+02 -0.12926334155E+03  0.13535053474E+03  0.00000000000E+00 0.  1.
         11    1    3    3    0    0 -0.11349875007E+03  0.64714170127E+02 -0.34439110724E+03  0.36834104418E+03  0.00000000000E+00 0. -1.
        -11    1    4    4    0    0  0.52171494158E+02 -0.31575945536E+02 -0.65742050768E+02  0.89671190348E+02  0.00000000000E+00 0.  1.
         11    1    4    4    0    0  0.15788357783E+03  0.23675657070E+02 -0.36457946265E+03  0.39800244405E+03  0.00000000000E+00 0. -1.
          2    1    1    2  501    0 -0.67703278931E+02 -0.28916611271E+02 -0.93710672650E+02  0.11917044329E+03  0.00000000000E+00 0. -1.
<scales pt_clust_5="13000.00000" pt_clust_6="13000.00000" pt_clust_7="13000.00000" pt_clust_8="13000.00000" pt_clust_9="73.62000"></scales>
<clustering>
<clus scale="   73.620">  1  9  2 -1</clus>
<clus scale="   87.961">  5  6 -1 -1</clus>
<clus scale="   91.997">  7  8 -1 -1</clus>
<clus scale="  189.448">  2  5  1 -1</clus>
<clus scale="   73.620">  1  5  2 -1</clus>
</clustering>
</event>
<event>
 9    1  0.2829358E-005  0.1084089E+03  0.7546771E-02  0.1264547E+00
          1   -1    0    0  502    0 -0.00000000000E+00  0.00000000000E+00  0.31667360039E+03  0.31667360039E+03  0.00000000000E+00 0. -1.
         21   -1    0    0  501  502  0.00000000000E+00 -0.00000000000E+00 -0.39262477365E+03  0.39262477365E+03  0.00000000000E+00 0. -1.
         23    2    1    2    0    0  0.30112000862E+02 -0.30176286025E+02  0.25457838299E+03  0.27563618047E+03  0.96684073472E+02 0.  0.
         23    2    1    2    0    0 -0.74560684705E+02 -0.93440742404E+00 -0.28984507921E+02  0.12727522108E+03  0.98988440644E+02 0.  0.
        -11    1    3    3    0    0  0.14696320027E+02  0.22887230961E+02  0.17824869166E+02  0.32519734381E+02  0.00000000000E+00 0.  1.
         11    1    3    3    0    0  0.15415680835E+02 -0.53063516986E+02  0.23675351382E+03  0.24311644609E+03  0.00000000000E+00 0. -1.
        -13    1    4    4    0    0  0.19586610042E+02  0.70220960353E+01 -0.25249902935E+02  0.32718537924E+02  0.00000000000E+00 0.  1.
         13    1    4    4    0    0 -0.94147294747E+02 -0.79565034593E+01 -0.37346049861E+01  0.94556683158E+02  0.00000000000E+00 0. -1.
          1    1    1    2  501    0  0.44448683843E+02  0.31110693449E+02 -0.30154504833E+03  0.30638697249E+03  0.00000000000E+00 0. -1.
<scales pt_clust_5="13000.00000" pt_clust_6="13000.00000" pt_clust_7="13000.00000" pt_clust_8="13000.00000" pt_clust_9="54.25459"></scales>
<clustering>
<clus scale="   54.255">  2  9  1 -1</clus>
<clus scale="   96.684">  5  6 -1 -1</clus>
<clus scale="   98.988">  7  8 -1 -1</clus>
<clus scale="  106.309">  1  5  2 -1</clus>
<clus scale="   54.255">  2  5  1 -1</clus>
</clustering>
</event>
<event>
 9    1  0.1636528E-005  0.1494842E+03  0.7546771E-02  0.1203099E+00
         21   -1    0    0  501  502  0.00000000000E+00  0.00000000000E+00  0.29429790365E+03  0.29429790365E+03  0.00000000000E+00 0. -1.
          1   -1    0    0  502    0 -0.00000000000E+00 -0.00000000000E+00 -0.44844183740E+03  0.44844183740E+03  0.00000000000E+00 0. -1.
         23    2    1    2    0    0  0.11829931742E+03 -0.27433748105E+02 -0.33582361221E+03  0.36882053167E+03  0.92215763421E+02 0.  0.
         23    2    1    2    0    0 -0.40044678986E+02  0.91566015488E+02 -0.24085469860E+02  0.14462456832E+03  0.10172632106E+03 0.  0.
        -11    1    4    4    0    0  0.28823690984E+02  0.57885881018E+02 -0.20659380951E+02  0.67885126533E+02  0.00000000000E+00 0.  1.
         11    1    4    4    0    0 -0.68868369971E+02  0.33680134471E+02 -0.34260889091E+01  0.76739441786E+02  0.00000000000E+00 0. -1.
        -13    1    3    3    0    0  0.74694179798E+02 -0.43071868470E+02 -0.29409117909E+03  0.30647027256E+03  0.00000000000E+00 0.  1.
         13    1    3    3    0    0  0.43605137624E+02  0.15638120365E+02 -0.41732433126E+02  0.62350259104E+02  0.00000000000E+00 0. -1.
          1    1    1    2  501    0 -0.78254638435E+02 -0.64132267383E+02  0.20576514832E+03  0.22929464106E+03  0.00000000000E+00 0. -1.
<scales pt_clust_5="13000.00000" pt_clust_6="13000.00000" pt_clust_7="13000.00000" pt_clust_8="13000.00000" pt_clust_9="101.17676"></scales>
<clustering>
<clus scale="   92.216">  7  8 -1 -1</clus>
<clus scale="  101.177">  1  9  2 -1</clus>
<clus scale="  101.726">  5  6 -1 -1</clus>
<clus scale="  143.182">  2  7  1 -1</clus>
<clus scale="  101.177">  1  5  2 -1</clus>
</clustering>
</event>
<event>
 9    1  0.1636528E-005  0.9958460E+02  0.7546771E-02  0.1282134E+00
         21   -1    0    0  501  502  0.00000000000E+00  0.00000000000E+00  0.41550742812E+02  0.41550742812E+02  0.00000000000E+00 0.  1.
          2   -1    0    0  502    0 -0.00000000000E+00 -0.00000000000E+00 -0.48699344361E+03  0.48699344361E+03  0.00000000000E+00 0. -1.
         23    2    1    2    0    0  0.33549422626E+02  0.45975938615E+02 -0.27145637871E+03  0.29243050515E+03  0.92669758338E+02 0.  0.
         23    2    1    2    0    0  0.18666433538E+02 -0.18429026040E+02 -0.13716081008E+03  0.16653317853E+03  0.90731179791E+02 0.  0.
        -11    1    3    3    0    0  0.31017737745E+02  0.72525385678E+02 -0.22986720808E+03  0.24302461804E+03  0.00000000000E+00 0. -1.
         11    1    3    3    0    0  0.25316848812E+01 -0.26549447063E+02 -0.41589170637E+02  0.49405887119E+02  0.00000000000E+00 0.  1.
        -13    1    4    4    0    0  0.32907093061E+02  0.20859152219E+02 -0.10999159573E+03  0.11668818336E+03  0.00000000000E+00 0. -1.
         13    1    4    4    0    0 -0.14240659523E+02 -0.39288178259E+02 -0.27169214353E+02  0.49844995167E+02  0.00000000000E+00 0.  1.
          2    1    1    2  501    0 -0.52215856164E+02 -0.27546912575E+02 -0.36825512003E+02  0.69580502741E+02  0.00000000000E+00 0. -1.
<scales pt_clust_5="13000.00000" pt_clust_6="13000.00000" pt_clust_7="13000.00000" pt_clust_8="13000.00000" pt_clust_9="59.03667"></scales>
<clustering>
<clus scale="   59.037">  1  9  2 -1</clus>
<clus scale="   90.731">  7  8 -1 -1</clus>
<clus scale="   92.670">  5  6 -1 -1</clus>
<clus scale="   97.783">  1  7  2 -1</clus>
<clus scale="   59.037">  1  5  2 -1</clus>
</clustering>
</event>
<event>
 9    1  0.1636528E-005  0.9484123E+02  0.7546771E-02  0.1296922E+00
          2   -1    0    0  502    0 -0.00000000000E+00  0.00000000000E+00  0.27986956224E+03  0.27986956224E+03  0.00000000000E+00 0. -1.
         21   -1    0    0  501  502  0.00000000000E+00 -0.00000000000E+00 -0.45465670876E+02  0.45465670876E+02  0.00000000000E+00 0. -1.
         23    2    1    2    0    0 -0.57481001799E+01 -0.85414091598E+01  0.11766636699E+03  0.14968455915E+03  0.91946163613E+02 0.  0.
         23    2    1    2    0    0 -0.32948861661E+01  0.37991818750E+02  0.11231026136E+03  0.14452668185E+03  0.82584092855E+02 0.  0.
        -11    1    3    3    0    0  0.34199463498E+02 -0.31452252444E+02  0.58231931476E+02  0.74497015583E+02  0.00000000000E+00 0.  1.
         11    1    3    3    0    0 -0.39947563678E+02  0.22910843284E+02  0.59434435510E+02  0.75187543571E+02  0.00000000000E+00 0. -1.
        -11    1    4    4    0    0  0.24293396317E+02 -0.35959291202E+01  0.34855598566E+01  0.24804212109E+02  0.00000000000E+00 0.  1.
         11    1    4    4    0    0 -0.27588282483E+02  0.41587747871E+02  0.10882470150E+03  0.11972246974E+03  0.00000000000E+00 0. -1.
          2    1    1    2  501    0  0.90429863459E+01 -0.29450409591E+02  0.44272630152E+01  0.31123992111E+02  0.00000000000E+00 0. -1.
<scales pt_clust_5="13000.00000" pt_clust_6="13000.00000" pt_clust_7="13000.00000" pt_clust_8="13000.00000" pt_clust_9="30.80750"></scales>
<clustering>
<clus scale="   30.808">  2  9  1 -1</clus>
<clus scale="   82.584">  7  8 -1 -1</clus>
<clus scale="   85.796">  2  7  1 -1</clus>
<clus scale="   91.946">  5  6 -1 -1</clus>
<clus scale="   30.808">  2  5  1 -1</clus>
</clustering>
</event>
<event>
 9    1  0.1636528E-005  0.1224436E+03  0.7546771E-02  0.1239784E+00
         21   -1    0    0  501  502  0.00000000000E+00  0.00000000000E+00  0.21729689325E+03  0.21729689325E+03  0.00000000000E+00 0. -1.
          2   -1    0    0  502    0 -0.00000000000E+00 -0.00000000000E+00 -0.13745466976E+03  0.13745466976E+03  0.00000000000E+00 0. -1.
         23    2    1    2    0    0  0.55846304898E+02 -0.69901705895E+02 -0.33458687357E+02  0.13306121016E+03  0.92632303390E+02 0.  0.
         23    2    1    2    0    0 -0.60576990915E+02  0.36504076950E+02  0.12619849094E+02  0.11550910590E+03  0.90448734053E+02 0.  0.
        -11    1    4    4    0    0 -0.44474325364E+02  0.20429873233E+02 -0.36713431316E+02  0.61181871301E+02  0.00000000000E+00 0. -1.
         11    1    4    4    0    0 -0.16102665552E+02  0.16074203716E+02  0.49333280409E+02  0.54327234597E+02  0.00000000000E+00 0.  1.
        -11    1    3    3    0    0  0.44614697179E+02  0.99588846347E+01  0.95485990343E-01  0.45712795858E+02  0.00000000000E+00 0.  1.
         11    1    3    3    0    0  0.11231607719E+02 -0.79860590530E+02 -0.33554173347E+02  0.87348414300E+02  0.00000000000E+00 0. -1.
          2    1    1    2  501    0  0.47306860173E+01  0.33397628945E+02  0.10068106176E+03  0.10618124696E+03  0.00000000000E+00 0. -1.
<scales pt_clust_5="13000.00000" pt_clust_6="13000.00000" pt_clust_7="13000.00000" pt_clust_8="13000.00000" pt_clust_9="33.73101"></scales>
<clustering>
<clus scale="   33.731">  1  9  2 -1</clus>
<clus scale="   90.449">  5  6 -1 -1</clus>
<clus scale="   92.632">  7  8 -1 -1</clus>
<clus scale="  120.800">  1  5  2 -1</clus>
<clus scale="   33.731">  1  5  2 -1</clus>
</clustering>
</event>
<event>
 9    1  0.1636528E-005  0.2084771E+03  0.7546771E-02  0.1142871E+00
         21   -1    0    0  501  502  0.00000000000E+00  0.00000000000E+00  0.66551446350E+02  0.66551446350E+02  0.00000000000E+00 0. -1.
          2   -1    0    0  502    0 -0.00000000000E+00 -0.00000000000E+00 -0.11170376366E+04  0.11170376366E+04  0.00000000000E+00 0. -1.
         23    2    1    2    0    0 -0.11097935485E+03  0.16065455076E+03 -0.77257567519E+03  0.80191899255E+03  0.89858749376E+02 0.  0.
         23    2    1    2    0    0  0.67529473895E+02 -0.16016986653E+03 -0.27542768692E+03  0.33814663112E+03  0.90929189091E+02 0.  0.
        -11    1    3    3    0    0 -0.67245486652E+02  0.15699021070E+03 -0.63029630965E+03  0.65302474662E+03  0.00000000000E+00 0. -1.
         11    1    3    3    0    0 -0.43733868200E+02  0.36643400618E+01 -0.14227936553E+03  0.14889424593E+03  0.00000000000E+00 0.  1.
        -13    1    4    4    0    0  0.59950991803E+02 -0.13185046790E+03 -0.27260612543E+03  0.30869526547E+03  0.00000000000E+00 0. -1.
         13    1    4    4    0    0  0.75784820917E+01 -0.28319398631E+02 -0.28215614955E+01  0.29451365654E+02  0.00000000000E+00 0.  1.
          2    1    1    2  501    0  0.43449880958E+02 -0.48468423330E+00 -0.24828281676E+01  0.43523459304E+02  0.00000000000E+00 0. -1.
<scales pt_clust_5="13000.00000" pt_clust_6="13000.00000" pt_clust_7="13000.00000" pt_clust_8="13000.00000" pt_clust_9="43.45258"></scales>
<clustering>
<clus scale="   43.453">  1  9  2 -1</clus>
<clus scale="   89.859">  5  6 -1 -1</clus>
<clus scale="   90.929">  7  8 -1 -1</clus>
<clus scale="  208.012">  2  5  1 -1</clus>
<clus scale="   43.453">  1  5  2 -1</clus>
</clustering>
</event>
<event>
 9    1  0.1636528E-005  0.9113453E+02  0.7546771E-02  0.1300299E+00
          4   -1    0    0  502    0 -0.00000000000E+00  0.00000000000E+00  0.40593669367E+03  0.40593669367E+03  0.00000000000E+00 0. -1.
         21   -1    0    0  501  502  0.00000000000E+00 -0.00000000000E+00 -0.57241030153E+02  0.57241030153E+02  0.00000000000E+00 0.  1.
         23    2    1    2    0    0 -0.21826032373E+02 -0.10800395093E+02  0.20047015745E+03  0.22107630396E+03  0.89963458801E+02 0.  0.
         23    2    1    2    0    0 -0.17529897110E+02  0.13728540115E+02  0.17236849892E+03  0.19583753197E+03  0.90253362294E+02 0.  0.
        -11    1    4    4    0    0  0.26752732914E+02 -0.94862170686E+01  0.18089526671E+02  0.33658995942E+02  0.00000000000E+00 0. -1.
         11    1    4    4    0    0 -0.44282630024E+02  0.23214757184E+02  0.15427897224E+03  0.16217853603E+03  0.00000000000E+00 0.  1.
        -11    1    3    3    0    0 -0.45550645976E+01  0.35353869371E+02  0.41829174912E+02  0.54957479626E+02  0.00000000000E+00 0.  1.
         11    1    3    3    0    0 -0.17270967776E+02 -0.46154264465E+02  0.15864098254E+03  0.16611882433E+03  0.00000000000E+00 0. -1.
          4    1    1    2  501    0  0.39355929484E+02 -0.29281450220E+01 -0.24142992851E+02  0.46263887889E+02  0.00000000000E+00 0. -1.
<scales pt_clust_5="13000.00000" pt_clust_6="13000.00000" pt_clust_7="13000.00000" pt_clust_8="13000.00000" pt_clust_9="39.46471"></scales>
<clustering>
<clus scale="   39.465">  2  9  1 -1</clus>
<clus scale="   89.963">  7  8 -1 -1</clus>
<clus scale="   90.253">  5  6 -1 -1</clus>
<clus scale="   90.847">  1  7  2 -1</clus>
<clus scale="   39.465">  2  5  1 -1</clus>
</clustering>
</event>
<event>
 9    1  0.1636528E-005  0.9629103E+02  0.7546771E-02  0.1289983E+00
         -1   -1    0    0    0  501 -0.00000000000E+00  0.00000000000E+00  0.41513595763E+03  0.41513595763E+03  0.00000000000E+00 0.  1.
         21   -1    0    0  501  502  0.00000000000E+00 -0.00000000000E+00 -0.57467857090E+02  0.57467857090E+02  0.00000000000E+00 0.  1.
         23    2    1    2    0    0  0.16702970857E+02  0.28391619479E+02  0.29210426164E+03  0.30680056013E+03  0.87844241348E+02 0.  0.
         23    2    1    2    0    0 -0.32343108611E+02 -0.97367228624E+01  0.89220212238E+02  0.13185854842E+03  0.91024996973E+02 0.  0.
        -13    1    3    3    0    0 -0.34487272758E+00  0.58625777062E+02  0.16809059616E+03  0.17802120433E+03  0.00000000000E+00 0.  1.
         13    1    3    3    0    0  0.17047843585E+02 -0.30234157584E+02  0.12401366548E+03  0.12877935581E+03  0.00000000000E+00 0. -1.
        -13    1    4    4    0    0 -0.62548669951E+02  0.31284208327E+01  0.46614610026E+02  0.78070769161E+02  0.00000000000E+00 0.  1.
         13    1    4    4    0    0  0.30205561340E+02 -0.12865143695E+02  0.42605602212E+02  0.53787779263E+02  0.00000000000E+00 0. -1.
         -1    1    1    2    0  502  0.15640137753E+02 -0.18654896616E+02 -0.23656373340E+02  0.33944706160E+02  0.00000000000E+00 0.  1.
<scales pt_clust_5="13000.00000" pt_clust_6="13000.00000" pt_clust_7="13000.00000" pt_clust_8="13000.00000" pt_clust_9="24.34377"></scales>
<clustering>
<clus scale="   24.344">  2  9  1 -1</clus>
<clus scale="   87.844">  5  6 -1 -1</clus>
<clus scale="   91.025">  7  8 -1 -1</clus>
<clus scale="   93.290">  1  5  2 -1</clus>
<clus scale="   24.344">  2  5  1 -1</clus>
</clustering>
</event>
<event>
 9    1  0.1636528E-005  0.1029250E+03  0.7546771E-02  0.1276217E+00
         21   -1    0    0  501  502  0.00000000000E+00  0.00000000000E+00  0.60247433682E+02  0.60247433682E+02  0.00000000000E+00 0. -1.
         -1   -1    0    0    0  501 -0.00000000000E+00 -0.00000000000E+00 -0.30443341262E+03  0.30443341262E+03  0.00000000000E+00 0.  1.
         23    2    1    2    0    0  0.40371429084E+02 -0.30883891018E+02 -0.20452616466E+03  0.22864326646E+03  0.88674259273E+02 0.  0.
         23    2    1    2    0    0 -0.30171151158E+02  0.44370338746E+01 -0.44265457446E+02  0.10732009611E+03  0.92888032995E+02 0.  0.
        -11    1    4    4    0    0 -0.20603415350E+02 -0.21681340283E+02 -0.65710588649E+02  0.72197387080E+02  0.00000000000E+00 0.  1.
         11    1    4    4    0    0 -0.95677358078E+01  0.26118374157E+02  0.21445131203E+02  0.35122709027E+02  0.00000000000E+00 0. -1.
        -13    1    3    3    0    0 -0.15581866597E+01 -0.53244798469E+02 -0.88957809619E+02  0.10368668382E+03  0.00000000000E+00 0. -1.
         13    1    3    3    0    0  0.41929615744E+02  0.22360907451E+02 -0.11556835504E+03  0.12495658264E+03  0.00000000000E+00 0.  1.
         -1    1    1    2    0  502 -0.10200277926E+02  0.26446857144E+02  0.46056431746E+01  0.28717483727E+02  0.00000000000E+00 0.  1.
<scales pt_clust_5="13000.00000" pt_clust_6="13000.00000" pt_clust_7="13000.00000" pt_clust_8="13000.00000" pt_clust_9="28.34576"></scales>
<clustering>
<clus scale="   28.346">  1  9  2 -1</clus>
<clus scale="   88.674">  7  8 -1 -1</clus>
<clus scale="   92.888">  5  6 -1 -1</clus>
<clus scale="   99.139">  2  7  1 -1</clus>
<clus scale="   28.346">  1  5  2 -1</clus>
</clustering>
</event>
<event>
 9    1  0.1636528E-005  0.1463046E+03  0.7546771E-02  0.1205139E+00
         -1   -1    0    0    0  501 -0.00000000000E+00  0.00000000000E+00  0.59905587527E+03  0.59905587527E+03  0.00000000000E+00 0.  1.
         21   -1    0    0  501  502  0.00000000000E+00 -0.00000000000E+00 -0.54406068505E+02  0.54406068505E+02  0.00000000000E+00 0.  1.
         23    2    1    2    0    0  0.80189173220E+02 -0.72091289958E+02  0.35354226476E+03  0.38118175401E+03  0.93166190360E+02 0.  0.
         23    2    1    2    0    0 -0.71966896325E+02  0.10498293030E+03  0.14038830390E+03  0.21127275616E+03  0.93416549934E+02 0.  0.
        -13    1    3    3    0    0 -0.22526918331E+01 -0.30362937792E+02  0.23533833809E+02  0.38481475357E+02  0.00000000000E+00 0. -1.
         13    1    3    3    0    0  0.82441865053E+02 -0.41728352165E+02  0.33000843095E+03  0.34270027865E+03  0.00000000000E+00 0.  1.
        -13    1    4    4    0    0  0.32300087735E+01  0.54337504967E+02  0.14855050353E+02  0.56424019031E+02  0.00000000000E+00 0. -1.
         13    1    4    4    0    0 -0.75196905098E+02  0.50645425335E+02  0.12553325355E+03  0.15484873713E+03  0.00000000000E+00 0.  1.
         -1    1    1    2    0  502 -0.82222768956E+01 -0.32891640344E+02  0.50719238104E+02  0.61007433610E+02  0.00000000000E+00 0.  1.
<scales pt_clust_5="13000.00000" pt_clust_6="13000.00000" pt_clust_7="13000.00000" pt_clust_8="13000.00000" pt_clust_9="33.90377"></scales>
<clustering>
<clus scale="   33.904">  2  9  1 -1</clus>
<clus scale="   93.166">  5  6 -1 -1</clus>
<clus scale="   93.417">  7  8 -1 -1</clus>
<clus scale="  146.145">  1  5  2 -1</clus>
<clus scale="   33.904">  2  5  1 -1</clus>
</clustering>
</event>
<event>
 9    1  0.1636528E-005  0.1646013E+03  0.7546771E-02  0.1183768E+00
          1   -1    0    0  502    0 -0.00000000000E+00  0.00000000000E+00  0.42635929590E+03  0.42635929590E+03  0.00000000000E+00 0. -1.
         21   -1    0    0  501  502  0.00000000000E+00 -0.00000000000E+00 -0.60745507207E+03  0.60745507207E+03  0.00000000000E+00 0.  1.
         23    2    1    2    0    0 -0.10844413966E+03  0.81334951294E+02  0.38272550249E+03  0.41626468038E+03  0.91771281696E+02 0.  0.
         23    2    1    2    0    0  0.16130486586E+03 -0.63568220185E+02 -0.45469638358E+03  0.49500110199E+03  0.90648283851E+02 0.  0.
        -11    1    4    4    0    0  0.67293259270E+02  0.16699964994E+02 -0.20446506508E+03  0.21590098289E+03  0.00000000000E+00 0. -1.
         11    1    4    4    0    0  0.94011606587E+02 -0.80268185179E+02 -0.25023131850E+03  0.27910011910E+03  0.00000000000E+00 0.  1.
        -11    1    3    3    0    0 -0.60354857796E+02  0.95597099922E+02  0.27944057982E+03  0.30144411095E+03  0.00000000000E+00 0. -1.
         11    1    3    3    0    0 -0.48089281863E+02 -0.14262148628E+02  0.10328492266E+03  0.11482056943E+03  0.00000000000E+00 0.  1.
          1    1    1    2  501    0 -0.52860726198E+02 -0.17766731109E+02 -0.10912489508E+03  0.12254858561E+03  0.00000000000E+00 0. -1.
<scales pt_clust_5="13000.00000" pt_clust_6="13000.00000" pt_clust_7="13000.00000" pt_clust_8="13000.00000" pt_clust_9="55.76659"></scales>
<clustering>
<clus scale="   55.767">  2  9  1 -1</clus>
<clus scale="   90.648">  5  6 -1 -1</clus>
<clus scale="   91.771">  7  8 -1 -1</clus>
<clus scale="  163.978">  2  5  1 -1</clus>
<clus scale="   55.767">  2  5  1 -1</clus>
</clustering>
</event>
<event>
 9    1  0.1636528E-005  0.2408861E+03  0.7546771E-02  0.1120330E+00
          1   -1    0    0  502    0 -0.00000000000E+00  0.00000000000E+00  0.65393816739E+03  0.65393816739E+03  0.00000000000E+00 0. -1.
         21   -1    0    0  501  502  0.00000000000E+00 -0.00000000000E+00 -0.19928366815E+03  0.19928366815E+03  0.00000000000E+00 0.  1.
         23    2    1    2    0    0  0.19495294804E+02  0.20803604283E+03  0.46947512193E+03  0.52171688576E+03  0.90125230288E+02 0.  0.
         23    2    1    2    0    0 -0.35080601515E+02 -0.25592111753E+03 -0.23814065917E+02  0.28035063241E+03  0.10631603999E+03 0.  0.
        -11    1    3    3    0    0  0.10022860924E+02  0.22064062788E+02  0.10510216738E+02  0.26414868232E+02  0.00000000000E+00 0.  1.
         11    1    3    3    0    0  0.94724338798E+01  0.18597198005E+03  0.45896490519E+03  0.49530201753E+03  0.00000000000E+00 0. -1.
        -11    1    4    4    0    0  0.19668540539E+02 -0.16603572635E+03 -0.44662120621E+02  0.17305900418E+03  0.00000000000E+00 0.  1.
         11    1    4    4    0    0 -0.54749142054E+02 -0.89885391183E+02  0.20848054704E+02  0.10729162823E+03  0.00000000000E+00 0. -1.
          1    1    1    2  501    0  0.15585306711E+02  0.47885074695E+02  0.89934432248E+01  0.51154317362E+02  0.00000000000E+00 0. -1.
<scales pt_clust_5="13000.00000" pt_clust_6="13000.00000" pt_clust_7="13000.00000" pt_clust_8="13000.00000" pt_clust_9="50.35754"></scales>
<clustering>
<clus scale="   50.358">  2  9  1 -1</clus>
<clus scale="   90.125">  5  6 -1 -1</clus>
<clus scale="  106.316">  7  8 -1 -1</clus>
<clus scale="  234.191">  1  5  2 -1</clus>
<clus scale="   50.358">  2  5  1 -1</clus>
</clustering>
</event>
<event>
 9    1  0.1636528E-005  0.9764526E+02  0.7546771E-02  0.1286072E+00
         -3   -1    0    0    0  501 -0.00000000000E+00  0.00000000000E+00  0.33356765984E+03  0.33356765984E+03  0.00000000000E+00 0.  1.
         21   -1    0    0  501  502  0.00000000000E+00 -0.00000000000E+00 -0.11035611437E+03  0.11035611437E+03  0.00000000000E+00 0.  1.
         23    2    1    2    0    0  0.19816405913E+02  0.26554127021E+02  0.23081423268E+03  0.24996347231E+03  0.90048408511E+02 0.  0.
         23    2    1    2    0    0 -0.40571390816E+02 -0.12817732182E+02  0.63092763195E+02  0.11901162180E+03  0.91502663043E+02 0.  0.
        -13    1    3    3    0    0  0.26192375061E+02  0.57992336973E+02  0.16159910815E+03  0.17367620279E+03  0.00000000000E+00 0.  1.
         13    1    3    3    0    0 -0.63759691484E+01 -0.31438209952E+02  0.69215124530E+02  0.76287269523E+02  0.00000000000E+00 0. -1.
        -13    1    4    4    0    0 -0.14437256296E+02  0.27384963835E+02  0.63954768519E+02  0.71053381552E+02  0.00000000000E+00 0.  1.
         13    1    4    4    0    0 -0.26134134520E+02 -0.40202696017E+02 -0.86200532397E+00  0.47958240245E+02  0.00000000000E+00 0. -1.
         -3    1    1    2    0  502  0.20754984903E+02 -0.13736394839E+02 -0.70695450409E+02  0.74948680109E+02  0.00000000000E+00 0.  1.
<scales pt_clust_5="13000.00000" pt_clust_6="13000.00000" pt_clust_7="13000.00000" pt_clust_8="13000.00000" pt_clust_9="24.88891"></scales>
<clustering>
<clus scale="   24.889">  2  9  1 -1</clus>
<clus scale="   90.048">  5  6 -1 -1</clus>
<clus scale="   91.503">  7  8 -1 -1</clus>
<clus scale="   96.284">  1  5  2 -1</clus>
<clus scale="   24.889">  2  5  1 -1</clus>
</clustering>
</event>
<event>
 9    1  0.1636528E-005  0.1269735E+03  0.7546771E-02  0.1232555E+00
         21   -1    0    0  501  502  0.00000000000E+00  0.00000000000E+00  0.11921093785E+03  0.11921093785E+03  0.00000000000E+00 0. -1.
          1   -1    0    0  502    0 -0.00000000000E+00 -0.00000000000E+00 -0.72000260084E+03  0.72000260084E+03  0.00000000000E+00 0. -1.
         23    2    1    2    0    0  0.55318742744E+02 -0.65478926103E+02 -0.61569316068E+03  0.62845444933E+03  0.92354067135E+02 0.  0.
         23    2    1    2    0    0 -0.10417113195E+03  0.42322300173E+02 -0.21075798153E+02  0.14581949379E+03  0.90423081553E+02 0.  0.
        -11    1    3    3    0    0  0.12349441756E+02 -0.76171321755E+02 -0.46613561722E+03  0.47247962137E+03  0.00000000000E+00 0. -1.
         11    1    3    3    0    0  0.42969300988E+02  0.10692395652E+02 -0.14955754346E+03  0.15597482797E+03  0.00000000000E+00 0.  1.
        -13    1    4    4    0    0 -0.79034438369E+02  0.16054261949E+02 -0.53765183408E+02  0.96927172258E+02  0.00000000000E+00 0. -1.
         13    1    4    4    0    0 -0.25136693580E+02  0.26268038223E+02  0.32689385256E+02  0.48892321530E+02  0.00000000000E+00 0.  1.
          1    1    1    2  501    0  0.48852389205E+02  0.23156625930E+02  0.35977295849E+02  0.64939595564E+02  0.00000000000E+00 0. -1.
<scales pt_clust_5="13000.00000" pt_clust_6="13000.00000" pt_clust_7="13000.00000" pt_clust_8="13000.00000" pt_clust_9="54.06279"></scales>
<clustering>
<clus scale="   54.063">  1  9  2 -1</clus>
<clus scale="   90.423">  7  8 -1 -1</clus>
<clus scale="   92.354">  5  6 -1 -1</clus>
<clus scale="  125.576">  1  7  2 -1</clus>
<clus scale="   54.063">  1  5  2 -1</clus>
</clustering>
</event>
<event>
 9    1  0.1636528E-005  0.9853475E+02  0.7546771E-02  0.1284697E+00
         -1   -1    0    0    0  501 -0.00000000000E+00  0.00000000000E+00  0.28663166491E+03  0.28663166491E+03  0.00000000000E+00 0.  1.
         21   -1    0    0  501  502  0.00000000000E+00 -0.00000000000E+00 -0.65833516751E+02  0.65833516751E+02  0.00000000000E+00 0. -1.
         23    2    1    2    0    0  0.28133894028E+02  0.12470843853E+02  0.14170914961E+03  0.17089736619E+03  0.90428915445E+02 0.  0.
         23    2    1    2    0    0 -0.39911054096E+02 -0.33189785258E+02  0.10497036707E+03  0.14638513126E+03  0.87837205130E+02 0.  0.
        -11    1    4    4    0    0 -0.61741674480E+02 -0.78673928993E+01  0.41989657004E+02  0.75080367168E+02  0.00000000000E+00 0. -1.
         11    1    4    4    0    0  0.21830620384E+02 -0.25322392358E+02  0.62980710068E+02  0.71304764089E+02  0.00000000000E+00 0.  1.
        -11    1    3    3    0    0  0.30857560036E+02 -0.98160938850E+01  0.14467054355E+03  0.14825016317E+03  0.00000000000E+00 0.  1.
         11    1    3    3    0    0 -0.27236660082E+01  0.22286937738E+02 -0.29613939428E+01  0.22647203014E+02  0.00000000000E+00 0. -1.
         -1    1    1    2    0  502  0.11777160069E+02  0.20718941404E+02 -0.25881368519E+02  0.35182684216E+02  0.00000000000E+00 0.  1.
<scales pt_clust_5="13000.00000" pt_clust_6="13000.00000" pt_clust_7="13000.00000" pt_clust_8="13000.00000" pt_clust_9="23.83225"></scales>
<clustering>
<clus scale="   23.832">  2  9  1 -1</clus>
<clus scale="   87.837">  5  6 -1 -1</clus>
<clus scale="   90.429">  7  8 -1 -1</clus>
<clus scale="   96.162">  2  5  1 -1</clus>
<clus scale="   23.832">  2  5  1 -1</clus>
</clustering>
</event>
<event>
 9    1  0.1636528E-005  0.1358963E+03  0.7546771E-02  0.1220137E+00
         21   -1    0    0  501  502  0.00000000000E+00  0.00000000000E+00  0.28186904655E+03  0.28186904655E+03  0.00000000000E+00 0. -1.
         -2   -1    0    0    0  501 -0.00000000000E+00 -0.00000000000E+00 -0.48240080410E+03  0.48240080410E+03  0.00000000000E+00 0.  1.
         23    2    1    2    0    0  0.96436625951E+02 -0.28351576411E+02 -0.44204534638E+03  0.46132567517E+03  0.85518744166E+02 0.  0.
         23    2    1    2    0    0 -0.11175976269E+03  0.50460993399E+02  0.22359685695E+03  0.27062337536E+03  0.90580905491E+02 0.  0.
        -13    1    3    3    0    0  0.43752908849E+02 -0.57038208307E+02 -0.24990194829E+03  0.26003587829E+03  0.00000000000E+00 0. -1.
         13    1    3    3    0    0  0.52683717102E+02  0.28686631896E+02 -0.19214339809E+03  0.20128979688E+03  0.00000000000E+00 0.  1.
        -13    1    4    4    0    0 -0.23333318386E+02  0.23149667171E+02  0.50057415727E+01  0.33247680907E+02  0.00000000000E+00 0.  1.
         13    1    4    4    0    0 -0.88426444304E+02  0.27311326228E+02  0.21859111538E+03  0.23737569445E+03  0.00000000000E+00 0. -1.
         -2    1    1    2    0  502  0.15323136738E+02 -0.22109416988E+02  0.17916731884E+02  0.32320800121E+02  0.00000000000E+00 0.  1.
<scales pt_clust_5="13000.00000" pt_clust_6="13000.00000" pt_clust_7="13000.00000" pt_clust_8="13000.00000" pt_clust_9="26.90028"></scales>
<clustering>
<clus scale="   26.900">  1  9  2 -1</clus>
<clus scale="   85.519">  5  6 -1 -1</clus>
<clus scale="   90.581">  7  8 -1 -1</clus>
<clus scale="  132.576">  2  5  1 -1</clus>
<clus scale="   26.900">  1  5  2 -1</clus>
</clustering>
</event>
<event>
 9    1  0.1636528E-005  0.1204525E+03  0.7546771E-02  0.1247153E+00
         21   -1    0    0  501  502  0.00000000000E+00  0.00000000000E+00  0.44304514275E+03  0.44304514275E+03  0.00000000000E+00 0. -1.
          3   -1    0    0  502    0 -0.00000000000E+00 -0.00000000000E+00 -0.95020626283E+02  0.95020626283E+02  0.00000000000E+00 0. -1.
         23    2    1    2    0    0 -0.19904714782E+02 -0.27299244939E+02  0.34664114139E+02  0.10331560646E+03  0.91274680417E+02 0.  0.
         23    2    1    2    0    0  0.34532950296E+02  0.87543212079E+02  0.28676582086E+02  0.14339436915E+03  0.10432286474E+03 0.  0.
        -11    1    4    4    0    0  0.57330285059E+02  0.66285059441E+02  0.54254114911E+02  0.10307269122E+03  0.00000000000E+00 0.  1.
         11    1    4    4    0    0 -0.22797334764E+02  0.21258152639E+02 -0.25577532825E+02  0.40321677933E+02  0.00000000000E+00 0. -1.
        -13    1    3    3    0    0 -0.24487311313E+02 -0.58348661515E+02  0.11518879873E+02  0.64318576706E+02  0.00000000000E+00 0.  1.
         13    1    3    3    0    0  0.45825965310E+01  0.31049416576E+02  0.23145234267E+02  0.38997029758E+02  0.00000000000E+00 0. -1.
          3    1    1    2  501    0 -0.14628235513E+02 -0.60243967141E+02  0.28468382025E+03  0.29135579342E+03  0.00000000000E+00 0. -1.
<scales pt_clust_5="13000.00000" pt_clust_6="13000.00000" pt_clust_7="13000.00000" pt_clust_8="13000.00000" pt_clust_9="61.99452"></scales>
<clustering>
<clus scale="   61.995">  1  9  2 -1</clus>
<clus scale="   91.275">  7  8 -1 -1</clus>
<clus scale="  104.323">  5  6 -1 -1</clus>
<clus scale="  109.346">  2  7  1 -1</clus>
<clus scale="   61.995">  1  5  2 -1</clus>
</clustering>
</event>
<event>
 9    1  0.1636528E-005  0.9936333E+02  0.7546771E-02  0.1281907E+00
         21   -1    0    0  501  502  0.00000000000E+00  0.00000000000E+00  0.38818185737E+02  0.38818185737E+02  0.00000000000E+00 0.  1.
          1   -1    0    0  502    0 -0.00000000000E+00 -0.00000000000E+00 -0.35989048139E+03  0.35989048139E+03  0.00000000000E+00 0. -1.
         23    2    1    2    0    0 -0.71024857568E+01 -0.44857708088E+02 -0.17492678675E+03  0.20263449900E+03  0.91644422548E+02 0.  0.
         23    2    1    2    0    0 -0.19423860051E+02  0.25666127449E+02 -0.10320299918E+03  0.14207395581E+03  0.92185212704E+02 0.  0.
        -11    1    4    4    0    0 -0.38330852911E+02 -0.64647311802E+01 -0.78021508644E+01  0.39647453793E+02  0.00000000000E+00 0.  1.
         11    1    4    4    0    0  0.18906992861E+02  0.32130858630E+02 -0.95400848320E+02  0.10242650202E+03  0.00000000000E+00 0. -1.
        -11    1    3    3    0    0 -0.36542850125E+02 -0.56065344184E+02 -0.90758942261E+02  0.11276474766E+03  0.00000000000E+00 0.  1.
         11    1    3    3    0    0  0.29440364368E+02  0.11207636096E+02 -0.84167844485E+02  0.89869751342E+02  0.00000000000E+00 0. -1.
          1    1    1    2  501    0  0.26526345807E+02  0.19191580639E+02 -0.42942509725E+02  0.54000212322E+02  0.00000000000E+00 0. -1.
<scales pt_clust_5="13000.00000" pt_clust_6="13000.00000" pt_clust_7="13000.00000" pt_clust_8="13000.00000" pt_clust_9="32.74086"></scales>
<clustering>
<clus scale="   32.741">  1  9  2 -1</clus>
<clus scale="   91.644">  7  8 -1 -1</clus>
<clus scale="   92.185">  5  6 -1 -1</clus>
<clus scale="   98.862">  2  7  1 -1</clus>
<clus scale="   32.741">  1  5  2 -1</clus>
</clustering>
</event>
<event>
 9    1  0.1636528E-005  0.9728299E+02  0.7546771E-02  0.1287204E+00
         21   -1    0    0  501  502  0.00000000000E+00  0.00000000000E+00  0.18877593003E+03  0.18877593003E+03  0.00000000000E+00 0. -1.
          3   -1    0    0  502    0 -0.00000000000E+00 -0.00000000000E+00 -0.12386636614E+03  0.12386636614E+03  0.00000000000E+00 0. -1.
         23    2    1    2    0    0 -0.25357648841E+02  0.33286986412E+01 -0.27675472077E+02  0.98943731435E+02  0.91486827719E+02 0.  0.
         23    2    1    2    0    0  0.41057749431E+02  0.16737573059E+02 -0.16978073878E+02  0.10121201684E+03  0.89385302031E+02 0.  0.
        -11    1    4    4    0    0  0.59341544765E+02 -0.19174637637E+01 -0.35513221980E+02  0.69182978671E+02  0.00000000000E+00 0. -1.
         11    1    4    4    0    0 -0.18283795334E+02  0.18655036822E+02  0.18535148102E+02  0.32029038166E+02  0.00000000000E+00 0.  1.
        -11    1    3    3    0    0 -0.48710528507E+02  0.28849467859E+02 -0.34618179867E+01  0.56718529309E+02  0.00000000000E+00 0. -1.
         11    1    3    3    0    0  0.23352879666E+02 -0.25520769218E+02 -0.24213654091E+02  0.42225202126E+02  0.00000000000E+00 0.  1.
          3    1    1    2  501    0 -0.15700100590E+02 -0.20066271700E+02  0.10956310985E+03  0.11248654790E+03  0.00000000000E+00 0. -1.
<scales pt_clust_5="13000.00000" pt_clust_6="13000.00000" pt_clust_7="13000.00000" pt_clust_8="13000.00000" pt_clust_9="25.47839"></scales>
<clustering>
<clus scale="   25.478">  1  9  2 -1</clus>
<clus scale="   89.385">  5  6 -1 -1</clus>
<clus scale="   91.487">  7  8 -1 -1</clus>
<clus scale="   95.309">  1  5  2 -1</clus>
<clus scale="   25.478">  1  5  2 -1</clus>
</clustering>
</event>
<event>
 9    1  0.1636528E-005  0.9942537E+02  0.7546771E-02  0.1283098E+00
         -4   -1    0    0    0  501 -0.00000000000E+00  0.00000000000E+00  0.19447700442E+03  0.19447700442E+03  0.00000000000E+00 0.  1.
         21   -1    0    0  501  502  0.00000000000E+00 -0.00000000000E+00 -0.45465662847E+03  0.45465662847E+03  0.00000000000E+00 0.  1.
         23    2    1    2    0    0  0.52821822655E+01 -0.44553816008E+01  0.72111315936E+02  0.11702662627E+03  0.91909942307E+02 0.  0.
         23    2    1    2    0    0 -0.66394558685E+02 -0.17573758435E+02  0.61921276522E+02  0.13257818763E+03  0.95003457524E+02 0.  0.
        -13    1    4    4    0    0 -0.90934578706E+02 -0.16359213425E+02  0.52465891364E+02  0.10625154693E+03  0.00000000000E+00 0. -1.
         13    1    4    4    0    0  0.24540020021E+02 -0.12145450104E+01  0.94553851571E+01  0.26326640703E+02  0.00000000000E+00 0.  1.
        -13    1    3    3    0    0 -0.20802048308E+02 -0.40194177068E+02  0.22469960423E+02  0.50529161931E+02  0.00000000000E+00 0. -1.
         13    1    3    3    0    0  0.26084230574E+02  0.35738795468E+02  0.49641355512E+02  0.66497464336E+02  0.00000000000E+00 0.  1.
         -4    1    1    2    0  502  0.61112376419E+02  0.22029140036E+02 -0.39421221651E+03  0.39952881899E+03  0.00000000000E+00 0.  1.
<scales pt_clust_5="13000.00000" pt_clust_6="13000.00000" pt_clust_7="13000.00000" pt_clust_8="13000.00000" pt_clust_9="64.96157"></scales>
<clustering>
<clus scale="   64.962">  2  9  1 -1</clus>
<clus scale="   91.910">  7  8 -1 -1</clus>
<clus scale="   95.003">  5  6 -1 -1</clus>
<clus scale="   96.474">  1  7  2 -1</clus>
<clus scale="   64.962">  2  5  1 -1</clus>
</clustering>
</event>
<event>
 9    1  0.1636528E-005  0.9296400E+02  0.7546771E-02  0.1296070E+00
         21   -1    0    0  501  502  0.00000000000E+00  0.00000000000E+00  0.19417741601E+02  0.19417741601E+02  0.00000000000E+00 0. -1.
         -3   -1    0    0    0  501 -0.00000000000E+00 -0.00000000000E+00 -0.82793143688E+03  0.82793143688E+03  0.00000000000E+00 0.  1.
         23    2    1    2    0    0  0.16980668783E+02 -0.21634125168E+02 -0.47600995217E+03  0.48499936143E+03  0.88783599467E+02 0.  0.
         23    2    1    2    0    0  0.48069770423E+01  0.33312416076E+02 -0.32181988419E+03  0.33541974408E+03  0.88348982810E+02 0.  0.
        -11    1    4    4    0    0 -0.41096003083E+02  0.24277908470E+02 -0.15845579134E+03  0.16548877944E+03  0.00000000000E+00 0.  1.
         11    1    4    4    0    0  0.45902980125E+02  0.90345076057E+01 -0.16336409284E+03  0.16993096464E+03  0.00000000000E+00 0. -1.
        -11    1    3    3    0    0  0.36041939494E+02  0.23752740927E+02 -0.19619974765E+03  0.20089189900E+03  0.00000000000E+00 0. -1.
         11    1    3    3    0    0 -0.19061270711E+02 -0.45386866095E+02 -0.27981020452E+03  0.28410746243E+03  0.00000000000E+00 0.  1.
         -3    1    1    2    0  502 -0.21787645825E+02 -0.11678290908E+02 -0.10683858917E+02  0.26930072976E+02  0.00000000000E+00 0.  1.
<scales pt_clust_5="13000.00000" pt_clust_6="13000.00000" pt_clust_7="13000.00000" pt_clust_8="13000.00000" pt_clust_9="24.72011"></scales>
<clustering>
<clus scale="   24.720">  1  9  2 -1</clus>
<clus scale="   88.349">  5  6 -1 -1</clus>
<clus scale="   88.784">  7  8 -1 -1</clus>
<clus scale="   92.549">  1  5  2 -1</clus>
<clus scale="   24.720">  1  5  2 -1</clus>
</clustering>
</event>
<event>
 9    1  0.1636528E-005  0.1135509E+03  0.7546771E-02  0.1254347E+00
         21   -1    0    0  501  502  0.00000000000E+00  0.00000000000E+00  0.27891132628E+03  0.27891132628E+03  0.00000000000E+00 0. -1.
          4   -1    0    0  502    0 -0.00000000000E+00 -0.00000000000E+00 -0.19505724054E+03  0.19505724054E+03  0.00000000000E+00 0. -1.
         23    2    1    2    0    0  0.40430793058E+02 -0.82312529770E+02 -0.86758560957E+02  0.15523066393E+03  0.90330003546E+02 0.  0.
         23    2    1    2    0    0  0.93533061264E+01  0.47565992106E+02 -0.31458694127E+02  0.10774357785E+03  0.90934158553E+02 0.  0.
        -11    1    4    4    0    0  0.48548345367E+02  0.37503719605E+02 -0.10733884571E+02  0.62279106448E+02  0.00000000000E+00 0.  1.
         11    1    4    4    0    0 -0.39195039240E+02  0.10062272501E+02 -0.20724809556E+02  0.45464471404E+02  0.00000000000E+00 0. -1.
        -13    1    3    3    0    0  0.60334208324E+02 -0.59020990040E+02 -0.27931431859E+02  0.88903649223E+02  0.00000000000E+00 0.  1.
         13    1    3    3    0    0 -0.19903415266E+02 -0.23291539731E+02 -0.58827129097E+02  0.66327014708E+02  0.00000000000E+00 0. -1.
          4    1    1    2  501    0 -0.49784099184E+02  0.34746537664E+02  0.20207134083E+03  0.21099432504E+03  0.00000000000E+00 0. -1.
<scales pt_clust_5="13000.00000" pt_clust_6="13000.00000" pt_clust_7="13000.00000" pt_clust_8="13000.00000" pt_clust_9="60.71061"></scales>
<clustering>
<clus scale="   60.711">  1  9  2 -1</clus>
<clus scale="   90.330">  7  8 -1 -1</clus>
<clus scale="   90.934">  5  6 -1 -1</clus>
<clus scale="  113.068">  2  7  1 -1</clus>
<clus scale="   60.711">  1  5  2 -1</clus>
</clustering>
</event>
<event>
 9    1  0.1636528E-005  0.9622522E+02  0.7546771E-02  0.1288462E+00
         21   -1    0    0  501  502  0.00000000000E+00  0.00000000000E+00  0.26445106833E+03  0.26445106833E+03  0.00000000000E+00 0.  1.
         -2   -1    0    0    0  501 -0.00000000000E+00 -0.00000000000E+00 -0.11001759245E+03  0.11001759245E+03  0.00000000000E+00 0.  1.
         23    2    1    2    0    0 -0.25763889283E+02 -0.32109412065E+02 -0.59151900732E+02  0.11451348296E+03  0.88992123725E+02 0.  0.
         23    2    1    2    0    0  0.21721080868E+02  0.81419281099E+01  0.73453954543E+02  0.11773141033E+03  0.89034292235E+02 0.  0.
        -11    1    4    4    0    0 -0.22440147117E+02  0.30468759911E+02  0.50704824241E+02  0.63268354921E+02  0.00000000000E+00 0. -1.
         11    1    4    4    0    0  0.44161227985E+02 -0.22326831801E+02  0.22749130302E+02  0.54463055412E+02  0.00000000000E+00 0.  1.
        -11    1    3    3    0    0  0.18200967293E+02 -0.27945942718E+02  0.78548538394E+01  0.34262948700E+02  0.00000000000E+00 0. -1.
         11    1    3    3    0    0 -0.43964856575E+02 -0.41634693469E+01 -0.67006754571E+02  0.80250534259E+02  0.00000000000E+00 0.  1.
         -2    1    1    2    0  502  0.40428084148E+01  0.23967483955E+02  0.14013142207E+03  0.14222376748E+03  0.00000000000E+00 0.  1.
<scales pt_clust_5="13000.00000" pt_clust_6="13000.00000" pt_clust_7="13000.00000" pt_clust_8="13000.00000" pt_clust_9="24.30606"></scales>
<clustering>
<clus scale="   24.306">  1  9  2 -1</clus>
<clus scale="   88.992">  7  8 -1 -1</clus>
<clus scale="   89.034">  5  6 -1 -1</clus>
<clus scale="   96.186">  2  7  1 -1</clus>
<clus scale="   24.306">  1  5  2 -1</clus>
</clustering>
</event>
<event>
 9    1  0.1636528E-005  0.9512031E+02  0.7546771E-02  0.1291821E+00
         21   -1    0    0  501  502  0.00000000000E+00  0.00000000000E+00  0.74186309643E+02  0.74186309643E+02  0.00000000000E+00 0. -1.
          1   -1    0    0  502    0 -0.00000000000E+00 -0.00000000000E+00 -0.37892081139E+03  0.37892081139E+03  0.00000000000E+00 0. -1.
         23    2    1    2    0    0 -0.13658847467E+02 -0.17965486643E+02 -0.30623155971E+03  0.32029605522E+03  0.91117901645E+02 0.  0.
         23    2    1    2    0    0  0.28867597334E+02 -0.12016050681E+02 -0.69522147884E+01  0.98147123986E+02  0.92772846277E+02 0.  0.
        -11    1    4    4    0    0  0.33702435588E+02  0.27996070567E+02  0.21508123606E+02  0.48808129577E+02  0.00000000000E+00 0.  1.
         11    1    4    4    0    0 -0.48348382533E+01 -0.40012121249E+02 -0.28460338395E+02  0.49338994409E+02  0.00000000000E+00 0. -1.
        -13    1    3    3    0    0 -0.50601802902E+02 -0.24653702791E+02 -0.18823454426E+03  0.19647033153E+03  0.00000000000E+00 0. -1.
         13    1    3    3    0    0  0.36942955435E+02  0.66882161485E+01 -0.11799701545E+03  0.12382572369E+03  0.00000000000E+00 0.  1.
          1    1    1    2  501    0 -0.15208749867E+02  0.29981537324E+02  0.84492727566E+01  0.34663941827E+02  0.00000000000E+00 0. -1.
<scales pt_clust_5="13000.00000" pt_clust_6="13000.00000" pt_clust_7="13000.00000" pt_clust_8="13000.00000" pt_clust_9="33.61843"></scales>
<clustering>
<clus scale="   33.618">  1  9  2 -1</clus>
<clus scale="   91.118">  7  8 -1 -1</clus>
<clus scale="   92.773">  5  6 -1 -1</clus>
<clus scale="   93.507">  2  7  1 -1</clus>
<clus scale="   33.618">  1  5  2 -1</clus>
</clustering>
</event>
<event>
 9    1  0.1636528E-005  0.1010236E+03  0.7546771E-02  0.1278657E+00
         21   -1    0    0  501  502  0.00000000000E+00  0.00000000000E+00  0.49589378154E+02  0.49589378154E+02  0.00000000000E+00 0. -1.
         -1   -1    0    0    0  501 -0.00000000000E+00 -0.00000000000E+00 -0.58695591621E+03  0.58695591621E+03  0.00000000000E+00 0.  1.
         23    2    1    2    0    0  0.26893634912E+02  0.15969541700E+02 -0.36509621525E+03  0.37778698681E+03  0.91920983191E+02 0.  0.
         23    2    1    2    0    0 -0.53750282816E+02 -0.23450439834E+02 -0.19429448748E+03  0.22322934468E+03  0.92962231209E+02 0.  0.
        -11    1    3    3    0    0  0.37513942477E+01 -0.32668516745E+02 -0.64451525969E+02  0.72355401629E+02  0.00000000000E+00 0. -1.
         11    1    3    3    0    0  0.23142240664E+02  0.48638058446E+02 -0.30064468928E+03  0.30543158518E+03  0.00000000000E+00 0.  1.
        -13    1    4    4    0    0  0.17793561914E+02  0.16467810307E+02 -0.72481387195E+02  0.76428732239E+02  0.00000000000E+00 0.  1.
         13    1    4    4    0    0 -0.71543844730E+02 -0.39918250141E+02 -0.12181310028E+03  0.14680061244E+03  0.00000000000E+00 0. -1.
         -1    1    1    2    0  502  0.26856647904E+02  0.74808981341E+01  0.22024164671E+02  0.35528962875E+02  0.00000000000E+00 0.  1.
<scales pt_clust_5="13000.00000" pt_clust_6="13000.00000" pt_clust_7="13000.00000" pt_clust_8="13000.00000" pt_clust_9="27.87908"></scales>
<clustering>
<clus scale="   27.879">  1  9  2 -1</clus>
<clus scale="   91.921">  5  6 -1 -1</clus>
<clus scale="   92.962">  7  8 -1 -1</clus>
<clus scale="  100.066">  2  5  1 -1</clus>
<clus scale="   27.879">  1  5  2 -1</clus>
</clustering>
</event>
<event>
 9    1  0.1636528E-005  0.1182563E+03  0.7546771E-02  0.1246254E+00
          1   -1    0    0  502    0 -0.00000000000E+00  0.00000000000E+00  0.21273092242E+03  0.21273092242E+03  0.00000000000E+00 0. -1.
         21   -1    0    0  501  502  0.00000000000E+00 -0.00000000000E+00 -0.12484670103E+03  0.12484670103E+03  0.00000000000E+00 0.  1.
         23    2    1    2    0    0 -0.45417499578E+02 -0.42875891087E+02  0.50310953990E+02  0.12029015202E+03  0.89651755571E+02 0.  0.
         23    2    1    2    0    0  0.57131050003E+02  0.93422515330E+02 -0.15741471762E+02  0.14289237818E+03  0.90436245858E+02 0.  0.
        -11    1    3    3    0    0  0.26232428654E+02 -0.40631908233E+01  0.48661046071E+01  0.26987567634E+02  0.00000000000E+00 0.  1.
         11    1    3    3    0    0 -0.71649928232E+02 -0.38812700263E+02  0.45444849383E+02  0.93302584384E+02  0.00000000000E+00 0. -1.
        -11    1    4    4    0    0  0.27845046104E+02 -0.75360482230E+01 -0.23892376497E+02  0.37456431624E+02  0.00000000000E+00 0. -1.
         11    1    4    4    0    0  0.29286003899E+02  0.10095856355E+03  0.81509047347E+01  0.10543594656E+03  0.00000000000E+00 0.  1.
          1    1    1    2  501    0 -0.11713550426E+02 -0.50546624244E+02  0.53314739163E+02  0.74395093239E+02  0.00000000000E+00 0. -1.
<scales pt_clust_5="13000.00000" pt_clust_6="13000.00000" pt_clust_7="13000.00000" pt_clust_8="13000.00000" pt_clust_9="51.88614"></scales>
<clustering>
<clus scale="   51.886">  2  9  1 -1</clus>
<clus scale="   89.652">  5  6 -1 -1</clus>
<clus scale="   90.436">  7  8 -1 -1</clus>
<clus scale="  117.657">  1  5  2 -1</clus>
<clus scale="   51.886">  2  5  1 -1</clus>
</clustering>
</event>
<event>
 9    1  0.1636528E-005  0.1026950E+03  0.7546771E-02  0.1276573E+00
         21   -1    0    0  501  502  0.00000000000E+00  0.00000000000E+00  0.96801163556E+02  0.96801163556E+02  0.00000000000E+00 0.  1.
          1   -1    0    0  502    0 -0.00000000000E+00 -0.00000000000E+00 -0.42214723605E+03  0.42214723605E+03  0.00000000000E+00 0. -1.
         23    2    1    2    0    0  0.82061069297E+01 -0.44594675107E+02 -0.33749243922E+03  0.35286071972E+03  0.92485219086E+02 0.  0.
         23    2    1    2    0    0 -0.47685473401E+02  0.29697399792E+02 -0.27296597841E+02  0.10832699565E+03  0.88508721636E+02 0.  0.
        -13    1    3    3    0    0  0.12606147000E+02  0.18786794785E+02 -0.23951357085E+02  0.32947323209E+02  0.00000000000E+00 0.  1.
         13    1    3    3    0    0 -0.44000400698E+01 -0.63381469892E+02 -0.31354108214E+03  0.31991339651E+03  0.00000000000E+00 0. -1.
        -13    1    4    4    0    0 -0.39463509436E+02  0.79494836585E+00  0.25913964880E+02  0.47217942519E+02  0.00000000000E+00 0.  1.
         13    1    4    4    0    0 -0.82219639655E+01  0.28902451426E+02 -0.53210562721E+02  0.61109053135E+02  0.00000000000E+00 0. -1.
          1    1    1    2  501    0  0.39479366472E+02  0.14897275316E+02  0.39442964571E+02  0.57760684232E+02  0.00000000000E+00 0. -1.
<scales pt_clust_5="13000.00000" pt_clust_6="13000.00000" pt_clust_7="13000.00000" pt_clust_8="13000.00000" pt_clust_9="42.19655"></scales>
<clustering>
<clus scale="   42.197">  1  9  2 -1</clus>
<clus scale="   88.509">  7  8 -1 -1</clus>
<clus scale="   92.485">  5  6 -1 -1</clus>
<clus scale="   99.129">  1  7  2 -1</clus>
<clus scale="   42.197">  1  5  2 -1</clus>
</clustering>
</event>
<event>
 9    1  0.1636528E-005  0.1057584E+03  0.7546771E-02  0.1269744E+00
         -1   -1    0    0    0  501 -0.00000000000E+00  0.00000000000E+00  0.40652440122E+03  0.40652440122E+03  0.00000000000E+00 0.  1.
         21   -1    0    0  501  502  0.00000000000E+00 -0.00000000000E+00 -0.39138599673E+02  0.39138599673E+02  0.00000000000E+00 0. -1.
         23    2    1    2    0    0  0.32665244269E+02  0.29895139308E+02  0.20625767389E+03  0.23067037778E+03  0.93305185331E+02 0.  0.
         23    2    1    2    0    0 -0.55411495434E+02 -0.21673824369E+02  0.15638700018E+03  0.19034591439E+03  0.90744062120E+02 0.  0.
        -11    1    3    3    0    0 -0.11311520558E+02  0.52310855935E+02  0.97143412277E+02  0.11091085923E+03  0.00000000000E+00 0.  1.
         11    1    3    3    0    0  0.43976764827E+02 -0.22415716627E+02  0.10911426162E+03  0.11975951855E+03  0.00000000000E+00 0. -1.
        -13    1    4    4    0    0 -0.57385827808E+02  0.24205533471E+02  0.82872382081E+02  0.10366712495E+03  0.00000000000E+00 0.  1.
         13    1    4    4    0    0  0.19743323742E+01 -0.45879357840E+02  0.73514618095E+02  0.86678789434E+02  0.00000000000E+00 0. -1.
         -1    1    1    2    0  502  0.22746251164E+02 -0.82213149394E+01  0.47411274833E+01  0.24646708729E+02  0.00000000000E+00 0.  1.
<scales pt_clust_5="13000.00000" pt_clust_6="13000.00000" pt_clust_7="13000.00000" pt_clust_8="13000.00000" pt_clust_9="24.18640"></scales>
<clustering>
<clus scale="   24.186">  2  9  1 -1</clus>
<clus scale="   90.744">  7  8 -1 -1</clus>
<clus scale="   93.305">  5  6 -1 -1</clus>
<clus scale="  103.506">  2  7  1 -1</clus>
<clus scale="   24.186">  2  5  1 -1</clus>
</clustering>
</event>
<event>
 9    1  0.1636528E-005  0.1092572E+03  0.7546771E-02  0.1262049E+00
          1   -1    0    0  502    0 -0.00000000000E+00  0.00000000000E+00  0.40610440165E+03  0.40610440165E+03  0.00000000000E+00 0. -1.
         21   -1    0    0  501  502  0.00000000000E+00 -0.00000000000E+00 -0.63762632442E+02  0.63762632442E+02  0.00000000000E+00 0.  1.
         23    2    1    2    0    0  0.45590568715E+02  0.10336035564E+02  0.19000758130E+03  0.21561162896E+03  0.90554734861E+02 0.  0.
         23    2    1    2    0    0 -0.75842948642E+02 -0.39161581430E+02  0.16857519418E+03  0.20942362098E+03  0.90304344377E+02 0.  0.
        -11    1    4    4    0    0 -0.85530026727E+02 -0.21102843123E+02  0.81645933940E+02  0.12011150648E+03  0.00000000000E+00 0.  1.
         11    1    4    4    0    0  0.96870780848E+01 -0.18058738307E+02  0.86929260236E+02  0.89312114499E+02  0.00000000000E+00 0. -1.
        -13    1    3    3    0    0  0.61861594892E+02  0.31988633618E+02  0.16349837588E+03  0.17771282598E+03  0.00000000000E+00 0. -1.
         13    1    3    3    0    0 -0.16271026177E+02 -0.21652598054E+02  0.26509205419E+02  0.37898802979E+02  0.00000000000E+00 0.  1.
          1    1    1    2  501    0  0.30252379927E+02  0.28825545866E+02 -0.16241006265E+02  0.44831784152E+02  0.00000000000E+00 0. -1.
<scales pt_clust_5="13000.00000" pt_clust_6="13000.00000" pt_clust_7="13000.00000" pt_clust_8="13000.00000" pt_clust_9="41.78658"></scales>
<clustering>
<clus scale="   41.787">  2  9  1 -1</clus>
<clus scale="   90.304">  5  6 -1 -1</clus>
<clus scale="   90.555">  7  8 -1 -1</clus>
<clus scale="  109.050">  2  5  1 -1</clus>
<clus scale="   41.787">  2  5  1 -1</clus>
</clustering>
</event>
<event>
 9    1  0.1636528E-005  0.9680296E+02  0.7546771E-02  0.1289562E+00
         21   -1    0    0  501  502  0.00000000000E+00  0.00000000000E+00  0.24311756149E+03  0.24311756149E+03  0.00000000000E+00 0. -1.
          1   -1    0    0  502    0 -0.00000000000E+00 -0.00000000000E+00 -0.20813009407E+03  0.20813009407E+03  0.00000000000E+00 0. -1.
         23    2    1    2    0    0  0.14127226861E+02  0.38262152278E+01 -0.78998406701E+02  0.12492779495E+03  0.95666019186E+02 0.  0.
         23    2    1    2    0    0  0.43133900931E+02  0.21239772641E+02 -0.74780384901E+02  0.12747358569E+03  0.91355064076E+02 0.  0.
        -11    1    3    3    0    0  0.49703299020E+01 -0.43695343687E+02 -0.19164038762E+02  0.47971320817E+02  0.00000000000E+00 0. -1.
         11    1    3    3    0    0  0.91568969592E+01  0.47521558915E+02 -0.59834367939E+02  0.76956474128E+02  0.00000000000E+00 0.  1.
        -13    1    4    4    0    0  0.68551856692E+02  0.27537564784E+02 -0.68037293848E+02  0.10043280283E+03  0.00000000000E+00 0. -1.
         13    1    4    4    0    0 -0.25417955761E+02 -0.62977921433E+01 -0.67430910531E+01  0.27040782864E+02  0.00000000000E+00 0.  1.
          1    1    1    2  501    0 -0.57261127792E+02 -0.25065987868E+02  0.18876625902E+03  0.19884627492E+03  0.00000000000E+00 0. -1.
<scales pt_clust_5="13000.00000" pt_clust_6="13000.00000" pt_clust_7="13000.00000" pt_clust_8="13000.00000" pt_clust_9="62.50712"></scales>
<clustering>
<clus scale="   62.507">  1  9  2 -1</clus>
<clus scale="   91.355">  7  8 -1 -1</clus>
<clus scale="   92.545">  1  7  2 -1</clus>
<clus scale="   95.666">  5  6 -1 -1</clus>
<clus scale="   62.507">  1  5  2 -1</clus>
</clustering>
</event>
<event>
 9    1  0.1636528E-005  0.9346222E+02  0.7546771E-02  0.1295191E+00
         21   -1    0    0  501  502  0.00000000000E+00  0.00000000000E+00  0.16759495222E+03  0.16759495222E+03  0.00000000000E+00 0. -1.
          1   -1    0    0  502    0 -0.00000000000E+00 -0.00000000000E+00 -0.54819823643E+03  0.54819823643E+03  0.00000000000E+00 0. -1.
         23    2    1    2    0    0  0.11796851476E+02 -0.15736846201E+01 -0.50146554780E+03  0.51012399620E+03  0.92828625340E+02 0.  0.
         23    2    1    2    0    0  0.94564080650E+01  0.27466253925E+02  0.18774199584E+02  0.98225723597E+02  0.91934778229E+02 0.  0.
        -11    1    3    3    0    0  0.51953195987E+02  0.66225718128E+01 -0.26341051081E+03  0.26856673330E+03  0.00000000000E+00 0. -1.
         11    1    3    3    0    0 -0.40156344510E+02 -0.81962564329E+01 -0.23805503699E+03  0.24155726290E+03  0.00000000000E+00 0.  1.
        -11    1    4    4    0    0 -0.25867589080E+02  0.32386572284E+02 -0.19589210104E+02  0.45844949358E+02  0.00000000000E+00 0. -1.
         11    1    4    4    0    0  0.35323997145E+02 -0.49203183589E+01  0.38363409688E+02  0.52380774239E+02  0.00000000000E+00 0.  1.
          1    1    1    2  501    0 -0.21253259541E+02 -0.25892569305E+02  0.10208806400E+03  0.10744346885E+03  0.00000000000E+00 0. -1.
<scales pt_clust_5="13000.00000" pt_clust_6="13000.00000" pt_clust_7="13000.00000" pt_clust_8="13000.00000" pt_clust_9="33.49815"></scales>
<clustering>
<clus scale="   33.498">  1  9  2 -1</clus>
<clus scale="   91.935">  7  8 -1 -1</clus>
<clus scale="   92.574">  1  7  2 -1</clus>
<clus scale="   92.829">  5  6 -1 -1</clus>
<clus scale="   33.498">  1  5  2 -1</clus>
</clustering>
</event>
<event>
 9    1  0.1636528E-005  0.9616976E+02  0.7546771E-02  0.1291000E+00
          1   -1    0    0  502    0 -0.00000000000E+00  0.00000000000E+00  0.11223662182E+03  0.11223662182E+03  0.00000000000E+00 0. -1.
         21   -1    0    0  501  502  0.00000000000E+00 -0.00000000000E+00 -0.15304991504E+03  0.15304991504E+03  0.00000000000E+00 0.  1.
         23    2    1    2    0    0 -0.13373318588E+02  0.17303007490E+02  0.24523186603E+02  0.99489619316E+02  0.93907177320E+02 0.  0.
         23    2    1    2    0    0 -0.18457212127E+02 -0.28048972802E+02 -0.84092551970E+02  0.12732031818E+03  0.89506941457E+02 0.  0.
        -13    1    4    4    0    0 -0.40340801258E+02 -0.43660366317E+02 -0.80693394985E+02  0.10022490622E+03  0.00000000000E+00 0.  1.
         13    1    4    4    0    0  0.21883589131E+02  0.15611393516E+02 -0.33991569849E+01  0.27095411954E+02  0.00000000000E+00 0. -1.
        -13    1    3    3    0    0 -0.93240427370E+01 -0.38235627103E+02  0.19562967369E+01  0.39404670406E+02  0.00000000000E+00 0.  1.
         13    1    3    3    0    0 -0.40492758515E+01  0.55538634592E+02  0.22566889866E+02  0.60084948910E+02  0.00000000000E+00 0. -1.
          1    1    1    2  501    0  0.31830530716E+02  0.10745965312E+02  0.18756072153E+02  0.38476599365E+02  0.00000000000E+00 0. -1.
<scales pt_clust_5="13000.00000" pt_clust_6="13000.00000" pt_clust_7="13000.00000" pt_clust_8="13000.00000" pt_clust_9="33.59553"></scales>
<clustering>
<clus scale="   33.596">  2  9  1 -1</clus>
<clus scale="   89.507">  5  6 -1 -1</clus>
<clus scale="   91.878">  2  5  1 -1</clus>
<clus scale="   93.907">  7  8 -1 -1</clus>
<clus scale="   33.596">  2  5  1 -1</clus>
</clustering>
</event>
<event>
 9    1  0.1636528E-005  0.1453246E+03  0.7546771E-02  0.1207128E+00
          2   -1    0    0  502    0 -0.00000000000E+00  0.00000000000E+00  0.27585007614E+03  0.27585007614E+03  0.00000000000E+00 0. -1.
         21   -1    0    0  501  502  0.00000000000E+00 -0.00000000000E+00 -0.27537807382E+03  0.27537807382E+03  0.00000000000E+00 0. -1.
         23    2    1    2    0    0 -0.47220013661E+02 -0.10877954492E+03  0.21806695459E+03  0.26479550747E+03  0.92199484886E+02 0.  0.
         23    2    1    2    0    0  0.58005417498E+02  0.42466854701E+02 -0.16789365448E+03  0.20286281048E+03  0.88300500878E+02 0.  0.
        -11    1    3    3    0    0  0.23475915392E+02 -0.11867062783E+02  0.19262799587E+02  0.32603699645E+02  0.00000000000E+00 0.  1.
         11    1    3    3    0    0 -0.70695929053E+02 -0.96912482134E+02  0.19880415500E+03  0.23219180783E+03  0.00000000000E+00 0. -1.
        -13    1    4    4    0    0  0.37007453051E+02  0.56494483296E+02 -0.54766366077E+02  0.86951325910E+02  0.00000000000E+00 0.  1.
         13    1    4    4    0    0  0.20997964447E+02 -0.14027628595E+02 -0.11312728840E+03  0.11591148457E+03  0.00000000000E+00 0. -1.
          2    1    1    2  501    0 -0.10785403837E+02  0.66312690217E+02 -0.49701297787E+02  0.83569832005E+02  0.00000000000E+00 0. -1.
<scales pt_clust_5="13000.00000" pt_clust_6="13000.00000" pt_clust_7="13000.00000" pt_clust_8="13000.00000" pt_clust_9="67.18406"></scales>
<clustering>
<clus scale="   67.184">  2  9  1 -1</clus>
<clus scale="   88.301">  7  8 -1 -1</clus>
<clus scale="   92.199">  5  6 -1 -1</clus>
<clus scale="  142.883">  2  7  1 -1</clus>
<clus scale="   67.184">  2  5  1 -1</clus>
</clustering>
</event>
<event>
 9    1  0.1636528E-005  0.9370459E+02  0.7546771E-02  0.1300566E+00
          1   -1    0    0  502    0 -0.00000000000E+00  0.00000000000E+00  0.35141983905E+02  0.35141983905E+02  0.00000000000E+00 0. -1.
         21   -1    0    0  501  502  0.00000000000E+00 -0.00000000000E+00 -0.62595315918E+03  0.62595315918E+03  0.00000000000E+00 0.  1.
         23    2    1    2    0    0 -0.11117853304E+02 -0.27916595082E+02 -0.70240584945E+02  0.11993665398E+03  0.92456034160E+02 0.  0.
         23    2    1    2    0    0 -0.22351661356E+01 -0.29766759579E+02 -0.26970278342E+03  0.28339827285E+03  0.81755328457E+02 0.  0.
        -11    1    4    4    0    0  0.23433804795E+02  0.17400197681E+02 -0.57210754726E+02  0.64226011420E+02  0.00000000000E+00 0. -1.
         11    1    4    4    0    0 -0.25668970931E+02 -0.47166957261E+02 -0.21249202869E+03  0.21917226143E+03  0.00000000000E+00 0.  1.
        -13    1    3    3    0    0 -0.40758583629E+02  0.10668313069E+02 -0.54317041041E+02  0.68741661244E+02  0.00000000000E+00 0. -1.
         13    1    3    3    0    0  0.29640730325E+02 -0.38584908151E+02 -0.15923543903E+02  0.51194992740E+02  0.00000000000E+00 0.  1.
          1    1    1    2  501    0  0.13353019440E+02  0.57683354661E+02 -0.25086780692E+03  0.25776021625E+03  0.00000000000E+00 0. -1.
<scales pt_clust_5="13000.00000" pt_clust_6="13000.00000" pt_clust_7="13000.00000" pt_clust_8="13000.00000" pt_clust_9="59.20872"></scales>
<clustering>
<clus scale="   59.209">  2  9  1 -1</clus>
<clus scale="   81.755">  5  6 -1 -1</clus>
<clus scale="   83.165">  2  5  1 -1</clus>
<clus scale="   92.456">  7  8 -1 -1</clus>
<clus scale="   59.209">  2  5  1 -1</clus>
</clustering>
</event>
<event>
 9    1  0.1636528E-005  0.3126333E+03  0.7546771E-02  0.1079122E+00
         21   -1    0    0  501  502  0.00000000000E+00  0.00000000000E+00  0.87560385357E+02  0.87560385357E+02  0.00000000000E+00 0.  1.
          2   -1    0    0  502    0 -0.00000000000E+00 -0.00000000000E+00 -0.16879871883E+04  0.16879871883E+04  0.00000000000E+00 0. -1.
         23    2    1    2    0    0  0.30341511932E+03 -0.30056994818E+02 -0.84213781868E+03  0.90027591503E+03  0.91304216492E+02 0.  0.
         23    2    1    2    0    0 -0.29324109724E+03  0.16191752518E+00 -0.77903406942E+03  0.83748826370E+03  0.92207066943E+02 0.  0.
        -13    1    3    3    0    0  0.34058102649E+02 -0.31675727577E+02 -0.16790229214E+03  0.17422538788E+03  0.00000000000E+00 0.  1.
         13    1    3    3    0    0  0.26935701667E+03  0.16187327587E+01 -0.67423552654E+03  0.72605052715E+03  0.00000000000E+00 0. -1.
        -13    1    4    4    0    0 -0.16638487507E+03 -0.10580671174E+01 -0.56182262877E+03  0.58594343785E+03  0.00000000000E+00 0.  1.
         13    1    4    4    0    0 -0.12685622217E+03  0.12199846426E+01 -0.21721144065E+03  0.25154482585E+03  0.00000000000E+00 0. -1.
          2    1    1    2  501    0 -0.10174022083E+02  0.29895077293E+02  0.20745085180E+02  0.37783394909E+02  0.00000000000E+00 0. -1.
<scales pt_clust_5="13000.00000" pt_clust_6="13000.00000" pt_clust_7="13000.00000" pt_clust_8="13000.00000" pt_clust_9="31.57889"></scales>
<clustering>
<clus scale="   31.579">  1  9  2 -1</clus>
<clus scale="   91.304">  5  6 -1 -1</clus>
<clus scale="   92.207">  7  8 -1 -1</clus>
<clus scale="  312.368">  2  5  1 -1</clus>
<clus scale="   31.579">  1  5  2 -1</clus>
</clustering>
</event>
<event>
 9    1  0.1636528E-005  0.1010457E+03  0.7546771E-02  0.1284549E+00
          2   -1    0    0  502    0 -0.00000000000E+00  0.00000000000E+00  0.17706264687E+03  0.17706264687E+03  0.00000000000E+00 0. -1.
         21   -1    0    0  501  502  0.00000000000E+00 -0.00000000000E+00 -0.10750802864E+03  0.10750802864E+03  0.00000000000E+00 0.  1.
         23    2    1    2    0    0  0.30274266437E+02  0.99512031829E+01  0.70667169676E+02  0.11443312279E+03  0.84175608514E+02 0.  0.
         23    2    1    2    0    0 -0.29998681663E+02  0.12485730440E+02  0.50686154393E+02  0.11368759378E+03  0.96436343594E+02 0.  0.
        -11    1    3    3    0    0 -0.57829716633E+01 -0.31688125067E+02  0.40111206410E+02  0.51444036692E+02  0.00000000000E+00 0. -1.
         11    1    3    3    0    0  0.36057238101E+02  0.41639328249E+02  0.30555963265E+02  0.62989086099E+02  0.00000000000E+00 0.  1.
        -13    1    4    4    0    0 -0.52069457211E+02  0.27558612729E+02  0.61217905665E+02  0.84960799689E+02  0.00000000000E+00 0. -1.
         13    1    4    4    0    0  0.22070775548E+02 -0.15072882289E+02 -0.10531751272E+02  0.28726794089E+02  0.00000000000E+00 0.  1.
          2    1    1    2  501    0 -0.27558477441E+00 -0.22436933623E+02 -0.51798705843E+02  0.56449958940E+02  0.00000000000E+00 0. -1.
<scales pt_clust_5="13000.00000" pt_clust_6="13000.00000" pt_clust_7="13000.00000" pt_clust_8="13000.00000" pt_clust_9="22.43863"></scales>
<clustering>
<clus scale="   22.439">  2  9  1 -1</clus>
<clus scale="   84.176">  5  6 -1 -1</clus>
<clus scale="   89.419">  1  5  2 -1</clus>
<clus scale="   96.436">  7  8 -1 -1</clus>
<clus scale="   22.439">  2  5  1 -1</clus>
</clustering>
</event>
<event>
 9    1  0.1636528E-005  0.1083488E+03  0.7546771E-02  0.1263898E+00
         21   -1    0    0  501  502  0.00000000000E+00  0.00000000000E+00  0.62070934486E+02  0.62070934486E+02  0.00000000000E+00 0.  1.
          1   -1    0    0  502    0 -0.00000000000E+00 -0.00000000000E+00 -0.24543176363E+03  0.24543176363E+03  0.00000000000E+00 0. -1.
         23    2    1    2    0    0 -0.58697628961E+02  0.26210759810E+01 -0.11711080755E+03  0.16008990981E+03  0.91986718029E+02 0.  0.
         23    2    1    2    0    0  0.52069582871E+02 -0.24884139296E+02 -0.50181016171E+02  0.11916764857E+03  0.91391094934E+02 0.  0.
        -11    1    3    3    0    0 -0.30218101147E+02  0.30981268572E+02 -0.11137870571E+03  0.11949137511E+03  0.00000000000E+00 0. -1.
         11    1    3    3    0    0 -0.28479527814E+02 -0.28360192591E+02 -0.57321018331E+01  0.40598534700E+02  0.00000000000E+00 0.  1.
        -11    1    4    4    0    0  0.17105586119E+02  0.16998669514E+02  0.19256252368E+02  0.30860315892E+02  0.00000000000E+00 0. -1.
         11    1    4    4    0    0  0.34963996752E+02 -0.41882808810E+02 -0.69437268539E+02  0.88307332679E+02  0.00000000000E+00 0.  1.
          1    1    1    2  501    0  0.66280460899E+01  0.22263063315E+02 -0.16069005424E+02  0.28245139732E+02  0.00000000000E+00 0. -1.
<scales pt_clust_5="13000.00000" pt_clust_6="13000.00000" pt_clust_7="13000.00000" pt_clust_8="13000.00000" pt_clust_9="23.22875"></scales>
<clustering>
<clus scale="   23.229">  1  9  2 -1</clus>
<clus scale="   91.391">  7  8 -1 -1</clus>
<clus scale="   91.987">  5  6 -1 -1</clus>
<clus scale="  107.844">  1  7  2 -1</clus>
<clus scale="   23.229">  1  5  2 -1</clus>
</clustering>
</event>
<event>
 9    1  0.1636528E-005  0.1206420E+03  0.7546771E-02  0.1242719E+00
         21   -1    0    0  501  502  0.00000000000E+00  0.00000000000E+00  0.13053590651E+03  0.13053590651E+03  0.00000000000E+00 0. -1.
          2   -1    0    0  502    0 -0.00000000000E+00 -0.00000000000E+00 -0.21635124087E+03  0.21635124087E+03  0.00000000000E+00 0. -1.
         23    2    1    2    0    0 -0.50559909482E+02  0.52435651598E+02 -0.12817310108E+03  0.17505853269E+03  0.94399915369E+02 0.  0.
         23    2    1    2    0    0  0.41230292483E+02 -0.71920238215E+02 -0.24896708019E+00  0.12405807319E+03  0.92292393271E+02 0.  0.
        -13    1    4    4    0    0 -0.18455037957E+02 -0.15520675448E+02  0.28244346033E+02  0.37137890021E+02  0.00000000000E+00 0.  1.
         13    1    4    4    0    0  0.59685330440E+02 -0.56399562767E+02 -0.28493313113E+02  0.86920183169E+02  0.00000000000E+00 0. -1.
        -13    1    3    3    0    0  0.13707680065E+02  0.34843033808E+02 -0.89785616533E+01  0.38503922749E+02  0.00000000000E+00 0.  1.
         13    1    3    3    0    0 -0.64267589547E+02  0.17592617790E+02 -0.11919453943E+03  0.13655460994E+03  0.00000000000E+00 0. -1.
          2    1    1    2  501    0  0.93296169988E+01  0.19484586617E+02  0.42606733807E+02  0.47770541495E+02  0.00000000000E+00 0. -1.
<scales pt_clust_5="13000.00000" pt_clust_6="13000.00000" pt_clust_7="13000.00000" pt_clust_8="13000.00000" pt_clust_9="21.60303"></scales>
<clustering>
<clus scale="   21.603">  1  9  2 -1</clus>
<clus scale="   92.292">  5  6 -1 -1</clus>
<clus scale="   94.400">  7  8 -1 -1</clus>
<clus scale="  119.000">  1  5  2 -1</clus>
<clus scale="   21.603">  1  5  2 -1</clus>
</clustering>
</event>
<event>
 9    1  0.1636528E-005  0.1070542E+03  0.7546771E-02  0.1266225E+00
         -3   -1    0    0    0  501 -0.00000000000E+00  0.00000000000E+00  0.33466874345E+03  0.33466874345E+03  0.00000000000E+00 0.  1.
         21   -1    0    0  501  502  0.00000000000E+00 -0.00000000000E+00 -0.63168586064E+02  0.63168586064E+02  0.00000000000E+00 0. -1.
         23    2    1    2    0    0 -0.59765752406E+02  0.23887922075E+02  0.10374712673E+03  0.15238321760E+03  0.91184432444E+02 0.  0.
         23    2    1    2    0    0  0.10756635740E+02 -0.61893892293E+02  0.75112251611E+02  0.13397020621E+03  0.91430884795E+02 0.  0.
        -13    1    3    3    0    0 -0.81613827265E+02  0.11931755241E+02  0.59831819440E+02  0.10189715502E+03  0.00000000000E+00 0. -1.
         13    1    3    3    0    0  0.21848074859E+02  0.11956166833E+02  0.43915307289E+02  0.50486062579E+02  0.00000000000E+00 0.  1.
        -13    1    4    4    0    0  0.34464826962E+01 -0.36125662744E+02  0.94286725099E+02  0.10102934367E+03  0.00000000000E+00 0.  1.
         13    1    4    4    0    0  0.73101530440E+01 -0.25768229549E+02 -0.19174473488E+02  0.32940862544E+02  0.00000000000E+00 0. -1.
         -3    1    1    2    0  502  0.49009116666E+02  0.38005970218E+02  0.92640779050E+02  0.11148390571E+03  0.00000000000E+00 0.  1.
<scales pt_clust_5="13000.00000" pt_clust_6="13000.00000" pt_clust_7="13000.00000" pt_clust_8="13000.00000" pt_clust_9="62.01896"></scales>
<clustering>
<clus scale="   62.019">  2  9  1 -1</clus>
<clus scale="   91.184">  5  6 -1 -1</clus>
<clus scale="   91.431">  7  8 -1 -1</clus>
<clus scale="  106.844">  1  5  2 -1</clus>
<clus scale="   62.019">  2  5  1 -1</clus>
</clustering>
</event>
<event>
 9    1  0.1636528E-005  0.1670851E+03  0.7546771E-02  0.1207642E+00
          2   -1    0    0  502    0 -0.00000000000E+00  0.00000000000E+00  0.17161740846E+03  0.17161740846E+03  0.00000000000E+00 0. -1.
         21   -1    0    0  501  502  0.00000000000E+00 -0.00000000000E+00 -0.35363206574E+03  0.35363206574E+03  0.00000000000E+00 0. -1.
         23    2    1    2    0    0 -0.64560345192E+01 -0.32534539188E+02  0.21398869691E+02  0.95411980424E+02  0.86864018802E+02 0.  0.
         23    2    1    2    0    0  0.96802249646E+02  0.13767503878E+03 -0.56572280432E+01  0.18833280022E+03  0.84333549495E+02 0.  0.
        -11    1    3    3    0    0 -0.10041772788E+01 -0.61550932322E+02  0.23313435834E+02  0.65825845472E+02  0.00000000000E+00 0.  1.
         11    1    3    3    0    0 -0.54518572404E+01  0.29016393134E+02 -0.19145661432E+01  0.29586134952E+02  0.00000000000E+00 0. -1.
        -13    1    4    4    0    0  0.45501720275E+01  0.43229407694E+02 -0.31655282911E+02  0.53773066597E+02  0.00000000000E+00 0.  1.
         13    1    4    4    0    0  0.92252077618E+02  0.94445631089E+02  0.25998054868E+02  0.13455973363E+03  0.00000000000E+00 0. -1.
          2    1    1    2  501    0 -0.90346215126E+02 -0.10514049959E+03 -0.19775629893E+03  0.24150469356E+03  0.00000000000E+00 0. -1.
<scales pt_clust_5="13000.00000" pt_clust_6="13000.00000" pt_clust_7="13000.00000" pt_clust_8="13000.00000" pt_clust_9="144.24038"></scales>
<clustering>
<clus scale="   84.334">  7  8 -1 -1</clus>
<clus scale="   86.864">  5  6 -1 -1</clus>
<clus scale="   92.981">  1  5  2 -1</clus>
<clus scale="  144.240">  2  9  1 -1</clus>
<clus scale="  144.240">  2  5  1 -1</clus>
</clustering>
</event>
<event>
 9    1  0.1636528E-005  0.1114550E+03  0.7546771E-02  0.1258579E+00
          1   -1    0    0  502    0 -0.00000000000E+00  0.00000000000E+00  0.25441309275E+03  0.25441309275E+03  0.00000000000E+00 0. -1.
         21   -1    0    0  501  502  0.00000000000E+00 -0.00000000000E+00 -0.10264688786E+03  0.10264688786E+03  0.00000000000E+00 0.  1.
         23    2    1    2    0    0  0.30967861716E+02  0.67571122826E+02  0.15110706517E+03  0.19131525941E+03  0.90792721292E+02 0.  0.
         23    2    1    2    0    0 -0.25336264658E+02 -0.33848438943E+02  0.43708156820E+02  0.11077061668E+03  0.92585546508E+02 0.  0.
        -13    1    4    4    0    0 -0.23659797911E+02 -0.62241197037E+02  0.47894229971E+02  0.82022008694E+02  0.00000000000E+00 0.  1.
         13    1    4    4    0    0 -0.16764667469E+01  0.28392758094E+02 -0.41860731509E+01  0.28748607990E+02  0.00000000000E+00 0. -1.
        -13    1    3    3    0    0  0.21673303548E+02  0.24738257923E-01 -0.38575586061E+01  0.22013937791E+02  0.00000000000E+00 0.  1.
         13    1    3    3    0    0  0.92945581677E+01  0.67546384568E+02  0.15496462378E+03  0.16930132162E+03  0.00000000000E+00 0. -1.
          1    1    1    2  501    0 -0.56315970582E+01 -0.33722683883E+02 -0.43049017107E+02  0.54974104518E+02  0.00000000000E+00 0. -1.
<scales pt_clust_5="13000.00000" pt_clust_6="13000.00000" pt_clust_7="13000.00000" pt_clust_8="13000.00000" pt_clust_9="34.18968"></scales>
<clustering>
<clus scale="   34.190">  2  9  1 -1</clus>
<clus scale="   90.793">  7  8 -1 -1</clus>
<clus scale="   92.586">  5  6 -1 -1</clus>
<clus scale="  109.970">  1  7  2 -1</clus>
<clus scale="   34.190">  2  5  1 -1</clus>
</clustering>
</event>
<event>
 9    1  0.1636528E-005  0.1086085E+03  0.7546771E-02  0.1266243E+00
         21   -1    0    0  501  502  0.00000000000E+00  0.00000000000E+00  0.20526303265E+03  0.20526303265E+03  0.00000000000E+00 0. -1.
         -1   -1    0    0    0  501 -0.00000000000E+00 -0.00000000000E+00 -0.82066131768E+02  0.82066131768E+02  0.00000000000E+00 0.  1.
         23    2    1    2    0    0  0.53562006451E+02  0.21358419635E+01  0.46958769376E+02  0.11174224445E+03  0.86068303206E+02 0.  0.
         23    2    1    2    0    0 -0.53636080971E+02  0.34983939204E+02  0.79344854827E+02  0.13833728412E+03  0.93492743066E+02 0.  0.
        -11    1    3    3    0    0 -0.80081140425E+01 -0.29153219962E+02  0.42269955714E+01  0.30527161942E+02  0.00000000000E+00 0.  1.
         11    1    3    3    0    0  0.61570120493E+02  0.31289061926E+02  0.42731773805E+02  0.81215082505E+02  0.00000000000E+00 0. -1.
        -13    1    4    4    0    0  0.18323946417E+02  0.37047029355E+02  0.28812161856E+02  0.50382438082E+02  0.00000000000E+00 0.  1.
         13    1    4    4    0    0 -0.71960027387E+02 -0.20630901510E+01  0.50532692971E+02  0.87954846037E+02  0.00000000000E+00 0. -1.
         -1    1    1    2    0  502  0.74074519814E-01 -0.37119781167E+02 -0.31067233268E+01  0.37249635847E+02  0.00000000000E+00 0.  1.
<scales pt_clust_5="13000.00000" pt_clust_6="13000.00000" pt_clust_7="13000.00000" pt_clust_8="13000.00000" pt_clust_9="37.11987"></scales>
<clustering>
<clus scale="   37.120">  1  9  2 -1</clus>
<clus scale="   86.068">  5  6 -1 -1</clus>
<clus scale="   93.493">  7  8 -1 -1</clus>
<clus scale="  102.287">  2  5  1 -1</clus>
<clus scale="   37.120">  1  5  2 -1</clus>
</clustering>
</event>
<event>
 9    1  0.1636528E-005  0.1682676E+03  0.7546771E-02  0.1182764E+00
         -2   -1    0    0    0  501 -0.00000000000E+00  0.00000000000E+00  0.19273026263E+03  0.19273026263E+03  0.00000000000E+00 0.  1.
         21   -1    0    0  501  502  0.00000000000E+00 -0.00000000000E+00 -0.21820497059E+03  0.21820497059E+03  0.00000000000E+00 0.  1.
         23    2    1    2    0    0 -0.36833589489E+02 -0.15679370463E+03  0.40037208246E+02  0.18859339820E+03  0.89574062495E+02 0.  0.
         23    2    1    2    0    0  0.18350297998E+02  0.87926189890E+02 -0.35644040629E+02  0.14503428919E+03  0.10815127878E+03 0.  0.
        -11    1    4    4    0    0 -0.31438270447E+02  0.72793000209E+01  0.17150362686E+02  0.36544329215E+02  0.00000000000E+00 0.  1.
         11    1    4    4    0    0  0.49788568446E+02  0.80646889869E+02 -0.52794403314E+02  0.10848995997E+03  0.00000000000E+00 0. -1.
        -13    1    3    3    0    0  0.29790681987E+02 -0.56547811063E+02  0.14963016089E+02  0.65643213814E+02  0.00000000000E+00 0.  1.
         13    1    3    3    0    0 -0.66624271476E+02 -0.10024589357E+03  0.25074192157E+02  0.12295018438E+03  0.00000000000E+00 0. -1.
         -2    1    1    2    0  502  0.18483291490E+02  0.68867514744E+02 -0.29867875577E+02  0.77307545833E+02  0.00000000000E+00 0.  1.
<scales pt_clust_5="13000.00000" pt_clust_6="13000.00000" pt_clust_7="13000.00000" pt_clust_8="13000.00000" pt_clust_9="71.30474"></scales>
<clustering>
<clus scale="   71.305">  2  9  1 -1</clus>
<clus scale="   89.574">  7  8 -1 -1</clus>
<clus scale="  108.151">  5  6 -1 -1</clus>
<clus scale="  156.974">  1  7  2 -1</clus>
<clus scale="   71.305">  2  5  1 -1</clus>
</clustering>
</event>
<event>
 9    1  0.1636528E-005  0.1126002E+03  0.7546771E-02  0.1256558E+00
         21   -1    0    0  501  502  0.00000000000E+00  0.00000000000E+00  0.37981571454E+02  0.37981571454E+02  0.00000000000E+00 0. -1.
         -1   -1    0    0    0  501 -0.00000000000E+00 -0.00000000000E+00 -0.47184245105E+03  0.47184245105E+03  0.00000000000E+00 0.  1.
         23    2    1    2    0    0 -0.10660404804E+02 -0.66893786711E+02 -0.28053411500E+03  0.30278515803E+03  0.91602616280E+02 0.  0.
         23    2    1    2    0    0 -0.16971910729E+02  0.62852287793E+02 -0.12873083570E+03  0.16982544897E+03  0.89613610716E+02 0.  0.
        -11    1    3    3    0    0 -0.40890396143E+02 -0.50787580431E+02 -0.24459920751E+03  0.25314062324E+03  0.00000000000E+00 0.  1.
         11    1    3    3    0    0  0.30229991339E+02 -0.16106206281E+02 -0.35934907495E+02  0.49644534783E+02  0.00000000000E+00 0. -1.
        -13    1    4    4    0    0  0.35842375868E+02  0.12992209551E+02 -0.45373772799E+02  0.59264261363E+02  0.00000000000E+00 0.  1.
         13    1    4    4    0    0 -0.52814286597E+02  0.49860078243E+02 -0.83357062897E+02  0.11056118761E+03  0.00000000000E+00 0. -1.
         -1    1    1    2    0  502  0.27632315532E+02  0.40414989176E+01 -0.24595928896E+02  0.37213415503E+02  0.00000000000E+00 0.  1.
<scales pt_clust_5="13000.00000" pt_clust_6="13000.00000" pt_clust_7="13000.00000" pt_clust_8="13000.00000" pt_clust_9="27.92631"></scales>
<clustering>
<clus scale="   27.926">  1  9  2 -1</clus>
<clus scale="   89.614">  7  8 -1 -1</clus>
<clus scale="   91.603">  5  6 -1 -1</clus>
<clus scale="  110.988">  1  7  2 -1</clus>
<clus scale="   27.926">  1  5  2 -1</clus>
</clustering>
</event>
<event>
 9    1  0.1636528E-005  0.1379912E+03  0.7546771E-02  0.1217140E+00
         -3   -1    0    0    0  501 -0.00000000000E+00  0.00000000000E+00  0.32027581288E+03  0.32027581288E+03  0.00000000000E+00 0.  1.
         21   -1    0    0  501  502  0.00000000000E+00 -0.00000000000E+00 -0.17305884027E+03  0.17305884027E+03  0.00000000000E+00 0.  1.
         23    2    1    2    0    0 -0.87143522916E+02 -0.51575019674E+02  0.24062717713E+03  0.27654780049E+03  0.91231964455E+02 0.  0.
         23    2    1    2    0    0  0.10071781615E+03 -0.30777852585E+01 -0.71803352708E+02  0.15647063122E+03  0.95779881610E+02 0.  0.
        -11    1    3    3    0    0  0.80489019804E+01 -0.39154059102E+02  0.79691829020E+02  0.89154993016E+02  0.00000000000E+00 0. -1.
         11    1    3    3    0    0 -0.95192424896E+02 -0.12420960572E+02  0.16093534811E+03  0.18739280747E+03  0.00000000000E+00 0.  1.
        -11    1    4    4    0    0  0.17569269629E+02  0.40033722436E+02 -0.34349102603E+02  0.55598912013E+02  0.00000000000E+00 0. -1.
         11    1    4    4    0    0  0.83148546524E+02 -0.43111507694E+02 -0.37454250105E+02  0.10087171921E+03  0.00000000000E+00 0.  1.
         -3    1    1    2    0  502 -0.13574293237E+02  0.54652804933E+02 -0.21606851811E+02  0.60316221442E+02  0.00000000000E+00 0.  1.
<scales pt_clust_5="13000.00000" pt_clust_6="13000.00000" pt_clust_7="13000.00000" pt_clust_8="13000.00000" pt_clust_9="56.31332"></scales>
<clustering>
<clus scale="   56.313">  2  9  1 -1</clus>
<clus scale="   91.232">  5  6 -1 -1</clus>
<clus scale="   95.780">  7  8 -1 -1</clus>
<clus scale="  134.874">  1  5  2 -1</clus>
<clus scale="   56.313">  2  5  1 -1</clus>
</clustering>
</event>
<event>
 9    1  0.1636528E-005  0.1319322E+03  0.7546771E-02  0.1228544E+00
         21   -1    0    0  501  502  0.00000000000E+00  0.00000000000E+00  0.45364579473E+03  0.45364579473E+03  0.00000000000E+00 0.  1.
          1   -1    0    0  502    0 -0.00000000000E+00 -0.00000000000E+00 -0.48828430435E+02  0.48828430435E+02  0.00000000000E+00 0. -1.
         23    2    1    2    0    0  0.85645521908E+02  0.25199185128E+02  0.11651901818E+03  0.17264226176E+03  0.90876369838E+02 0.  0.
         23    2    1    2    0    0 -0.59137275974E+02 -0.37633320101E+02  0.19445240792E+03  0.23152451236E+03  0.10429945678E+03 0.  0.
        -13    1    4    4    0    0  0.26859685067E+02  0.82569074699E+01  0.47251372138E+02  0.54975552491E+02  0.00000000000E+00 0.  1.
         13    1    4    4    0    0 -0.85996961040E+02 -0.45890227571E+02  0.14720103578E+03  0.17654895986E+03  0.00000000000E+00 0. -1.
        -13    1    3    3    0    0  0.35665480988E+02 -0.32119512716E+02  0.64939522456E+02  0.80751663810E+02  0.00000000000E+00 0.  1.
         13    1    3    3    0    0  0.49980040919E+02  0.57318697845E+02  0.51579495720E+02  0.91890597950E+02  0.00000000000E+00 0. -1.
          1    1    1    2  501    0 -0.26508245934E+02  0.12434134972E+02  0.93845938202E+02  0.98307451051E+02  0.00000000000E+00 0. -1.
<scales pt_clust_5="13000.00000" pt_clust_6="13000.00000" pt_clust_7="13000.00000" pt_clust_8="13000.00000" pt_clust_9="29.27960"></scales>
<clustering>
<clus scale="   29.280">  1  9  2 -1</clus>
<clus scale="   90.876">  7  8 -1 -1</clus>
<clus scale="  104.299">  5  6 -1 -1</clus>
<clus scale="  121.599">  2  7  1 -1</clus>
<clus scale="   29.280">  1  5  2 -1</clus>
</clustering>
</event>
<event>
 9    1  0.1636528E-005  0.1689447E+03  0.7546771E-02  0.1179160E+00
         21   -1    0    0  501  502  0.00000000000E+00  0.00000000000E+00  0.11977150270E+03  0.11977150270E+03  0.00000000000E+00 0.  1.
          2   -1    0    0  502    0 -0.00000000000E+00 -0.00000000000E+00 -0.82963833364E+03  0.82963833364E+03  0.00000000000E+00 0. -1.
         23    2    1    2    0    0  0.33741623406E+02  0.13467459663E+03 -0.44654164866E+03  0.47680942613E+03  0.93123792524E+02 0.  0.
         23    2    1    2    0    0 -0.67365645204E+02 -0.12960423179E+03 -0.34413385872E+03  0.38492871791E+03  0.91687611530E+02 0.  0.
        -11    1    3    3    0    0  0.40567071038E+02  0.31572732651E+02 -0.24487880747E+03  0.25021621659E+03  0.00000000000E+00 0.  1.
         11    1    3    3    0    0 -0.68254476321E+01  0.10310186398E+03 -0.20166284119E+03  0.22659320954E+03  0.00000000000E+00 0. -1.
        -13    1    4    4    0    0 -0.89167065701E+02 -0.98271373985E+02 -0.24368167254E+03  0.27746853170E+03  0.00000000000E+00 0.  1.
         13    1    4    4    0    0  0.21801420497E+02 -0.31332857804E+02 -0.10045218618E+03  0.10746018622E+03  0.00000000000E+00 0. -1.
          2    1    1    2  501    0  0.33624021798E+02 -0.50703648455E+01  0.80808676434E+02  0.87671692287E+02  0.00000000000E+00 0. -1.
<scales pt_clust_5="13000.00000" pt_clust_6="13000.00000" pt_clust_7="13000.00000" pt_clust_8="13000.00000" pt_clust_9="34.00417"></scales>
<clustering>
<clus scale="   34.004">  1  9  2 -1</clus>
<clus scale="   91.688">  7  8 -1 -1</clus>
<clus scale="   93.124">  5  6 -1 -1</clus>
<clus scale="  168.157">  1  7  2 -1</clus>
<clus scale="   34.004">  1  5  2 -1</clus>
</clustering>
</event>
<event>
 9    1  0.1636528E-005  0.1045171E+03  0.7546771E-02  0.1271393E+00
          1   -1    0    0  502    0 -0.00000000000E+00  0.00000000000E+00  0.91713655304E+02  0.91713655304E+02  0.00000000000E+00 0. -1.
         21   -1    0    0  501  502  0.00000000000E+00 -0.00000000000E+00 -0.49701144061E+03  0.49701144061E+03  0.00000000000E+00 0. -1.
         23    2    1    2    0    0 -0.68556532787E+02  0.11738359652E+02  0.29450867473E+02  0.11776661502E+03  0.90353941491E+02 0.  0.
         23    2    1    2    0    0 -0.78774356007E+01 -0.51643759195E+01 -0.14078940557E+03  0.16715359646E+03  0.89609951004E+02 0.  0.
        -13    1    4    4    0    0  0.18168331277E+02 -0.28510897058E+02 -0.12367641882E+03  0.12821394653E+03  0.00000000000E+00 0.  1.
         13    1    4    4    0    0 -0.26045766877E+02  0.23346521139E+02 -0.17112986755E+02  0.38939649937E+02  0.00000000000E+00 0. -1.
        -13    1    3    3    0    0  0.20609447098E+02 -0.89741512974E+01  0.53236649665E+01  0.23100348696E+02  0.00000000000E+00 0.  1.
         13    1    3    3    0    0 -0.89165979886E+02  0.20712510949E+02  0.24127202506E+02  0.94666266323E+02  0.00000000000E+00 0. -1.
          1    1    1    2  501    0  0.76433968388E+02 -0.65739837321E+01 -0.29395924720E+03  0.30380488443E+03  0.00000000000E+00 0. -1.
<scales pt_clust_5="13000.00000" pt_clust_6="13000.00000" pt_clust_7="13000.00000" pt_clust_8="13000.00000" pt_clust_9="76.71616"></scales>
<clustering>
<clus scale="   76.716">  2  9  1 -1</clus>
<clus scale="   89.610">  5  6 -1 -1</clus>
<clus scale="   90.354">  7  8 -1 -1</clus>
<clus scale="  103.875">  2  5  1 -1</clus>
<clus scale="   76.716">  2  5  1 -1</clus>
</clustering>
</event>
<event>
 9    1  0.1636528E-005  0.9641791E+02  0.7546771E-02  0.1291865E+00
         -2   -1    0    0    0  501 -0.00000000000E+00  0.00000000000E+00  0.59208753802E+03  0.59208753802E+03  0.00000000000E+00 0.  1.
         21   -1    0    0  501  502  0.00000000000E+00 -0.00000000000E+00 -0.41307455740E+02  0.41307455740E+02  0.00000000000E+00 0.  1.
         23    2    1    2    0    0  0.26187394140E+02 -0.98341968136E+00  0.33910495242E+03  0.35289023467E+03  0.94088268353E+02 0.  0.
         23    2    1    2    0    0  0.93920299075E+01 -0.47735308467E+02  0.58147091917E+02  0.11554940658E+03  0.87199261251E+02 0.  0.
        -11    1    3    3    0    0  0.10523369768E+02  0.44308107864E+02  0.11439190722E+03  0.12312375145E+03  0.00000000000E+00 0. -1.
         11    1    3    3    0    0  0.15664024372E+02 -0.45291527546E+02  0.22471304520E+03  0.22976648322E+03  0.00000000000E+00 0.  1.
        -13    1    4    4    0    0  0.32550663572E+02 -0.55735445356E+02  0.15522753833E+02  0.66384798370E+02  0.00000000000E+00 0.  1.
         13    1    4    4    0    0 -0.23158633665E+02  0.80001368896E+01  0.42624338084E+02  0.49164608211E+02  0.00000000000E+00 0. -1.
         -2    1    1    2    0  502 -0.35579424048E+02  0.48718728148E+02  0.15352803794E+03  0.16495535251E+03  0.00000000000E+00 0.  1.
<scales pt_clust_5="13000.00000" pt_clust_6="13000.00000" pt_clust_7="13000.00000" pt_clust_8="13000.00000" pt_clust_9="60.32755"></scales>
<clustering>
<clus scale="   60.328">  2  9  1 -1</clus>
<clus scale="   87.199">  7  8 -1 -1</clus>
<clus scale="   89.708">  2  7  1 -1</clus>
<clus scale="   94.088">  5  6 -1 -1</clus>
<clus scale="   60.328">  2  5  1 -1</clus>
</clustering>
</event>
<event>
 9    1  0.1636528E-005  0.3710633E+03  0.7546771E-02  0.1086351E+00
         21   -1    0    0  501  502  0.00000000000E+00  0.00000000000E+00  0.45222825317E+03  0.45222825317E+03  0.00000000000E+00 0. -1.
          3   -1    0    0  502    0 -0.00000000000E+00 -0.00000000000E+00 -0.79231910292E+03  0.79231910292E+03  0.00000000000E+00 0. -1.
         23    2    1    2    0    0 -0.76946732637E+02 -0.94358547190E+02 -0.24376399608E+03  0.28829149613E+03  0.94163506033E+02 0.  0.
         23    2    1    2    0    0 -0.11762654383E+03  0.38855226417E+03 -0.33185944589E+03  0.53212816100E+03  0.90668749305E+02 0.  0.
        -11    1    3    3    0    0 -0.20642389813E+02 -0.91015639525E+02 -0.18274775321E+03  0.20519916227E+03  0.00000000000E+00 0. -1.
         11    1    3    3    0    0 -0.56304342824E+02 -0.33429076652E+01 -0.61016242868E+02  0.83092333859E+02  0.00000000000E+00 0.  1.
        -13    1    4    4    0    0 -0.33209426594E+02  0.22702387260E+02 -0.26537637954E+02  0.48192433330E+02  0.00000000000E+00 0.  1.
         13    1    4    4    0    0 -0.84417117238E+02  0.36584987691E+03 -0.30532180794E+03  0.48393572767E+03  0.00000000000E+00 0. -1.
          3    1    1    2  501    0  0.19457327647E+03 -0.29419371698E+03  0.23553259222E+03  0.42412769896E+03  0.00000000000E+00 0. -1.
<scales pt_clust_5="13000.00000" pt_clust_6="13000.00000" pt_clust_7="13000.00000" pt_clust_8="13000.00000" pt_clust_9="359.81541"></scales>
<clustering>
<clus scale="   90.669">  7  8 -1 -1</clus>
<clus scale="   94.164">  5  6 -1 -1</clus>
<clus scale="  153.919">  2  5  1 -1</clus>
<clus scale="  359.815">  1  9  2 -1</clus>
<clus scale="  359.815">  1  5  2 -1</clus>
</clustering>
</event>
<event>
 9    1  0.1636528E-005  0.9674051E+02  0.7546771E-02  0.1291487E+00
          1   -1    0    0  502    0 -0.00000000000E+00  0.00000000000E+00  0.70600222888E+03  0.70600222888E+03  0.00000000000E+00 0. -1.
         21   -1    0    0  501  502  0.00000000000E+00 -0.00000000000E+00 -0.38328771813E+02  0.38328771813E+02  0.00000000000E+00 0. -1.
         23    2    1    2    0    0  0.10733631722E+02  0.31874120850E+02  0.42119094972E+03  0.43324227629E+03  0.95738620241E+02 0.  0.
         23    2    1    2    0    0  0.41214656183E+02  0.29915035528E+02  0.17837378832E+03  0.20546996627E+03  0.88358029888E+02 0.  0.
        -11    1    4    4    0    0  0.91928516496E+01 -0.31265312423E+02  0.49562404015E+02  0.59316609598E+02  0.00000000000E+00 0.  1.
         11    1    4    4    0    0  0.32021804534E+02  0.61180347952E+02  0.12881138431E+03  0.14615335668E+03  0.00000000000E+00 0. -1.
        -11    1    3    3    0    0 -0.39983089345E+02  0.31002695785E+02  0.19833603942E+03  0.20468756463E+03  0.00000000000E+00 0.  1.
         11    1    3    3    0    0  0.50716721067E+02  0.87142506496E+00  0.22285491030E+03  0.22855471166E+03  0.00000000000E+00 0. -1.
          1    1    1    2  501    0 -0.51948287905E+02 -0.61789156379E+02  0.68108719024E+02  0.10561875813E+03  0.00000000000E+00 0. -1.
<scales pt_clust_5="13000.00000" pt_clust_6="13000.00000" pt_clust_7="13000.00000" pt_clust_8="13000.00000" pt_clust_9="80.72499"></scales>
<clustering>
<clus scale="   80.725">  2  9  1 -1</clus>
<clus scale="   88.358">  5  6 -1 -1</clus>
<clus scale="   89.443">  2  5  1 -1</clus>
<clus scale="   95.739">  7  8 -1 -1</clus>
<clus scale="   80.725">  2  5  1 -1</clus>
</clustering>
</event>
<event>
 9    1  0.1636528E-005  0.1109401E+03  0.7546771E-02  0.1258953E+00
         21   -1    0    0  501  502  0.00000000000E+00  0.00000000000E+00  0.54488658148E+02  0.54488658148E+02  0.00000000000E+00 0. -1.
          3   -1    0    0  502    0 -0.00000000000E+00 -0.00000000000E+00 -0.53900618208E+03  0.53900618208E+03  0.00000000000E+00 0. -1.
         23    2    1    2    0    0  0.55264830424E+02  0.56368063535E+00 -0.32620110005E+03  0.34308094384E+03  0.90790181928E+02 0.  0.
         23    2    1    2    0    0 -0.96512601635E+02  0.37170339782E+02 -0.10269140868E+03  0.17155086802E+03  0.90486786155E+02 0.  0.
        -11    1    3    3    0    0 -0.11324231963E+02  0.19419140974E+02 -0.23308794195E+02  0.32382729233E+02  0.00000000000E+00 0.  1.
         11    1    3    3    0    0  0.66589062387E+02 -0.18855460339E+02 -0.30289230586E+03  0.31069821461E+03  0.00000000000E+00 0. -1.
        -13    1    4    4    0    0 -0.47854143898E+02 -0.14775336114E+01  0.40412105424E+01  0.48047201546E+02  0.00000000000E+00 0.  1.
         13    1    4    4    0    0 -0.48658457737E+02  0.38647873394E+02 -0.10673261922E+03  0.12350366647E+03  0.00000000000E+00 0. -1.
          3    1    1    2  501    0  0.41247771211E+02 -0.37734020417E+02 -0.55625015208E+02  0.78863028369E+02  0.00000000000E+00 0. -1.
<scales pt_clust_5="13000.00000" pt_clust_6="13000.00000" pt_clust_7="13000.00000" pt_clust_8="13000.00000" pt_clust_9="55.90380"></scales>
<clustering>
<clus scale="   55.904">  1  9  2 -1</clus>
<clus scale="   90.487">  7  8 -1 -1</clus>
<clus scale="   90.790">  5  6 -1 -1</clus>
<clus scale="  110.692">  1  7  2 -1</clus>
<clus scale="   55.904">  1  5  2 -1</clus>
</clustering>
</event>
<event>
 9    1  0.1636528E-005  0.1451940E+03  0.7546771E-02  0.1207608E+00
         21   -1    0    0  501  502  0.00000000000E+00  0.00000000000E+00  0.12406394230E+03  0.12406394230E+03  0.00000000000E+00 0.  1.
         -2   -1    0    0    0  501 -0.00000000000E+00 -0.00000000000E+00 -0.73436785288E+03  0.73436785288E+03  0.00000000000E+00 0.  1.
         23    2    1    2    0    0 -0.10407998943E+03 -0.52645393787E+02 -0.65959785249E+03  0.67589653874E+03  0.90347232320E+02 0.  0.
         23    2    1    2    0    0  0.75350887372E+02  0.52366558637E+02 -0.62779551924E+00  0.12493648109E+03  0.84786304846E+02 0.  0.
        -11    1    4    4    0    0  0.80103037332E+01 -0.22690533950E+02  0.10263015105E+01  0.24084820772E+02  0.00000000000E+00 0. -1.
         11    1    4    4    0    0  0.67340583639E+02  0.75057092587E+02 -0.16540970297E+01  0.10085166032E+03  0.00000000000E+00 0.  1.
        -11    1    3    3    0    0 -0.10225828042E+03 -0.10265709509E+02 -0.51732730956E+03  0.52743690232E+03  0.00000000000E+00 0. -1.
         11    1    3    3    0    0 -0.18217090190E+01 -0.42379684278E+02 -0.14227054292E+03  0.14845963642E+03  0.00000000000E+00 0.  1.
         -2    1    1    2    0  502  0.28729102062E+02  0.27883514957E+00  0.49921737418E+02  0.57598775345E+02  0.00000000000E+00 0.  1.
<scales pt_clust_5="13000.00000" pt_clust_6="13000.00000" pt_clust_7="13000.00000" pt_clust_8="13000.00000" pt_clust_9="28.73046"></scales>
<clustering>
<clus scale="   28.730">  1  9  2 -1</clus>
<clus scale="   84.786">  5  6 -1 -1</clus>
<clus scale="   90.347">  7  8 -1 -1</clus>
<clus scale="  141.800">  1  5  2 -1</clus>
<clus scale="   28.730">  1  5  2 -1</clus>
</clustering>
</event>
<event>
 9    1  0.1636528E-005  0.1020799E+03  0.7546771E-02  0.1277860E+00
         21   -1    0    0  501  502  0.00000000000E+00  0.00000000000E+00  0.19094799147E+03  0.19094799147E+03  0.00000000000E+00 0. -1.
         -1   -1    0    0    0  501 -0.00000000000E+00 -0.00000000000E+00 -0.11844637794E+03  0.11844637794E+03  0.00000000000E+00 0.  1.
         23    2    1    2    0    0 -0.33845395856E+02 -0.44585663816E+02 -0.60283798191E+02  0.12134822634E+03  0.89206857763E+02 0.  0.
         23    2    1    2    0    0  0.66709580163E+01  0.34209384523E+02  0.60291683192E+02  0.10993431349E+03  0.85062815324E+02 0.  0.
        -13    1    3    3    0    0 -0.87270247726E+01 -0.64790909985E+02 -0.60553253657E+02  0.89110714880E+02  0.00000000000E+00 0.  1.
         13    1    3    3    0    0 -0.25118371083E+02  0.20205246169E+02  0.26945546545E+00  0.32237511456E+02  0.00000000000E+00 0. -1.
        -13    1    4    4    0    0 -0.27966018457E+02  0.42891763619E+02  0.52599777335E+02  0.73406662848E+02  0.00000000000E+00 0. -1.
         13    1    4    4    0    0  0.34636976474E+02 -0.86823790962E+01  0.76919058565E+01  0.36527650646E+02  0.00000000000E+00 0.  1.
         -1    1    1    2    0  502  0.27174437839E+02  0.10376279293E+02  0.72493728535E+02  0.78111829582E+02  0.00000000000E+00 0.  1.
<scales pt_clust_5="13000.00000" pt_clust_6="13000.00000" pt_clust_7="13000.00000" pt_clust_8="13000.00000" pt_clust_9="29.08809"></scales>
<clustering>
<clus scale="   29.088">  1  9  2 -1</clus>
<clus scale="   85.063">  7  8 -1 -1</clus>
<clus scale="   89.207">  5  6 -1 -1</clus>
<clus scale="   98.479">  1  7  2 -1</clus>
<clus scale="   29.088">  1  5  2 -1</clus>
</clustering>
</event>
<event>
 9    1  0.1636528E-005  0.1064012E+03  0.7546771E-02  0.1269244E+00
         21   -1    0    0  501  502  0.00000000000E+00  0.00000000000E+00  0.92496174256E+02  0.92496174256E+02  0.00000000000E+00 0. -1.
          2   -1    0    0  502    0 -0.00000000000E+00 -0.00000000000E+00 -0.40729721629E+03  0.40729721629E+03  0.00000000000E+00 0. -1.
         23    2    1    2    0    0 -0.37669143356E+02  0.28483899817E+02 -0.32162950525E+03  0.33902656522E+03  0.96245396596E+02 0.  0.
         23    2    1    2    0    0  0.15652370271E+02 -0.40225281305E+02 -0.38746186460E+02  0.10880869766E+03  0.92059740229E+02 0.  0.
        -13    1    4    4    0    0  0.36471186018E+02 -0.61421003533E+02 -0.22206817707E+02  0.74805279474E+02  0.00000000000E+00 0. -1.
         13    1    4    4    0    0 -0.20818815747E+02  0.21195722228E+02 -0.16539368753E+02  0.34003418190E+02  0.00000000000E+00 0.  1.
        -13    1    3    3    0    0  0.28104861304E+02 -0.83413759544E+01 -0.12626127544E+03  0.12962010437E+03  0.00000000000E+00 0. -1.
         13    1    3    3    0    0 -0.65774004660E+02  0.36825275771E+02 -0.19536822981E+03  0.20940646085E+03  0.00000000000E+00 0.  1.
          2    1    1    2  501    0  0.22016773084E+02  0.11741381488E+02  0.45574649681E+02  0.51958127659E+02  0.00000000000E+00 0. -1.
<scales pt_clust_5="13000.00000" pt_clust_6="13000.00000" pt_clust_7="13000.00000" pt_clust_8="13000.00000" pt_clust_9="24.95192"></scales>
<clustering>
<clus scale="   24.952">  1  9  2 -1</clus>
<clus scale="   92.060">  5  6 -1 -1</clus>
<clus scale="   96.245">  7  8 -1 -1</clus>
<clus scale="  102.631">  1  5  2 -1</clus>
<clus scale="   24.952">  1  5  2 -1</clus>
</clustering>
</event>
<event>
 9    1  0.1636528E-005  0.1363079E+03  0.7546771E-02  0.1224928E+00
         21   -1    0    0  501  502  0.00000000000E+00  0.00000000000E+00  0.37845116102E+03  0.37845116102E+03  0.00000000000E+00 0. -1.
          3   -1    0    0  502    0 -0.00000000000E+00 -0.00000000000E+00 -0.10218597270E+03  0.10218597270E+03  0.00000000000E+00 0. -1.
         23    2    1    2    0    0 -0.94791424038E+02 -0.17221444684E+02 -0.30388526716E+02  0.12913277155E+03  0.80435178280E+02 0.  0.
         23    2    1    2    0    0  0.40966632655E+02  0.30128358083E+02  0.21612920716E+03  0.24539883400E+03  0.10451205954E+03 0.  0.
        -11    1    3    3    0    0 -0.37571881571E+02  0.29360128960E+02 -0.28031740664E+02  0.55312222356E+02  0.00000000000E+00 0.  1.
         11    1    3    3    0    0 -0.57219542467E+02 -0.46581573643E+02 -0.23567860516E+01  0.73820549197E+02  0.00000000000E+00 0. -1.
        -11    1    4    4    0    0 -0.24853202140E+02 -0.72935206394E+01  0.12138518765E+03  0.12411785077E+03  0.00000000000E+00 0. -1.
         11    1    4    4    0    0  0.65819834795E+02  0.37421878723E+02  0.94744019513E+02  0.12128098323E+03  0.00000000000E+00 0.  1.
          3    1    1    2  501    0  0.53824791383E+02 -0.12906913400E+02  0.90524507874E+02  0.10610552816E+03  0.00000000000E+00 0. -1.
<scales pt_clust_5="13000.00000" pt_clust_6="13000.00000" pt_clust_7="13000.00000" pt_clust_8="13000.00000" pt_clust_9="55.35067"></scales>
<clustering>
<clus scale="   55.351">  1  9  2 -1</clus>
<clus scale="   80.435">  5  6 -1 -1</clus>
<clus scale="  104.512">  7  8 -1 -1</clus>
<clus scale="  118.857">  2  5  1 -1</clus>
<clus scale="   55.351">  1  5  2 -1</clus>
</clustering>
</event>
<event>
 9    1  0.1636528E-005  0.2953594E+03  0.7546771E-02  0.1105815E+00
         -1   -1    0    0    0  501 -0.00000000000E+00  0.00000000000E+00  0.53319496347E+03  0.53319496347E+03  0.00000000000E+00 0.  1.
         21   -1    0    0  501  502  0.00000000000E+00 -0.00000000000E+00 -0.53809132270E+03  0.53809132270E+03  0.00000000000E+00 0.  1.
         23    2    1    2    0    0 -0.15003552791E+03 -0.57867697782E+02  0.32780912803E+03  0.37567217280E+03  0.88382277155E+02 0.  0.
         23    2    1    2    0    0  0.32558517796E+03 -0.66061468563E+02 -0.33425028489E+03  0.48072227010E+03  0.94872663510E+02 0.  0.
        -11    1    3    3    0    0 -0.42091300993E+01 -0.31510551386E+02  0.33635083938E+02  0.46281211051E+02  0.00000000000E+00 0. -1.
         11    1    3    3    0    0 -0.14582639781E+03 -0.26357146396E+02  0.29417404409E+03  0.32939096175E+03  0.00000000000E+00 0.  1.
        -11    1    4    4    0    0  0.29122736087E+03 -0.80608676080E+02 -0.32168440651E+03  0.44135245753E+03  0.00000000000E+00 0.  1.
         11    1    4    4    0    0  0.34357817094E+02  0.14547207517E+02 -0.12565878379E+02  0.39369812565E+02  0.00000000000E+00 0. -1.
         -1    1    1    2    0  502 -0.17554965005E+03  0.12392916635E+03  0.15447976268E+01  0.21489184327E+03  0.00000000000E+00 0.  1.
<scales pt_clust_5="13000.00000" pt_clust_6="13000.00000" pt_clust_7="13000.00000" pt_clust_8="13000.00000" pt_clust_9="279.70772"></scales>
<clustering>
<clus scale="   88.382">  5  6 -1 -1</clus>
<clus scale="   94.873">  7  8 -1 -1</clus>
<clus scale="  183.496">  1  5  2 -1</clus>
<clus scale="  279.708">  2  9  1 -1</clus>
<clus scale="  279.708">  2  5  1 -1</clus>
</clustering>
</event>
<event>
 9    1  0.1636528E-005  0.9958320E+02  0.7546771E-02  0.1281415E+00
          2   -1    0    0  502    0 -0.00000000000E+00  0.00000000000E+00  0.12716163443E+03  0.12716163443E+03  0.00000000000E+00 0. -1.
         21   -1    0    0  501  502  0.00000000000E+00 -0.00000000000E+00 -0.20266918520E+03  0.20266918520E+03  0.00000000000E+00 0. -1.
         23    2    1    2    0    0  0.28792944517E+02  0.54291292084E+01  0.34949569115E+02  0.10157226084E+03  0.90757604047E+02 0.  0.
         23    2    1    2    0    0 -0.55599060820E+02 -0.48430696359E+01  0.75610170805E+01  0.10723297477E+03  0.91252567151E+02 0.  0.
        -13    1    4    4    0    0 -0.20616496865E+02  0.31263644269E+02 -0.27049997401E+02  0.46196945303E+02  0.00000000000E+00 0.  1.
         13    1    4    4    0    0 -0.34982563955E+02 -0.36106713905E+02  0.34611014481E+02  0.61036029469E+02  0.00000000000E+00 0. -1.
        -13    1    3    3    0    0  0.15703585348E+02 -0.41879590819E+02  0.75592668752E+01  0.45361274625E+02  0.00000000000E+00 0. -1.
         13    1    3    3    0    0  0.13089359169E+02  0.47308720027E+02  0.27390302240E+02  0.56210986211E+02  0.00000000000E+00 0.  1.
          2    1    1    2  501    0  0.26806116303E+02 -0.58605957254E+00 -0.11801813696E+03  0.12102558402E+03  0.00000000000E+00 0. -1.
<scales pt_clust_5="13000.00000" pt_clust_6="13000.00000" pt_clust_7="13000.00000" pt_clust_8="13000.00000" pt_clust_9="26.81252"></scales>
<clustering>
<clus scale="   26.813">  2  9  1 -1</clus>
<clus scale="   90.758">  7  8 -1 -1</clus>
<clus scale="   91.253">  5  6 -1 -1</clus>
<clus scale="   99.130">  1  7  2 -1</clus>
<clus scale="   26.813">  2  5  1 -1</clus>
</clustering>
</event>
<event>
 9    1  0.1636528E-005  0.1789979E+03  0.7546771E-02  0.1169468E+00
         21   -1    0    0  501  502  0.00000000000E+00  0.00000000000E+00  0.12802564037E+03  0.12802564037E+03  0.00000000000E+00 0. -1.
          2   -1    0    0  502    0 -0.00000000000E+00 -0.00000000000E+00 -0.48870286302E+03  0.48870286302E+03  0.00000000000E+00 0. -1.
         23    2    1    2    0    0 -0.29187104922E+02 -0.12246348197E+03 -0.19031286612E+03  0.24846530129E+03  0.98320025540E+02 0.  0.
         23    2    1    2    0    0  0.72847071651E+02  0.17135254055E+03 -0.20666511318E+03  0.29333605297E+03  0.93097701192E+02 0.  0.
        -13    1    3    3    0    0  0.34700497471E+02 -0.23453814344E+02 -0.48129076007E+02  0.63801362754E+02  0.00000000000E+00 0.  1.
         13    1    3    3    0    0 -0.63887602393E+02 -0.99009667623E+02 -0.14218379012E+03  0.18466393853E+03  0.00000000000E+00 0. -1.
        -13    1    4    4    0    0  0.90353930920E+02  0.10100477041E+03 -0.12914788325E+03  0.18720302408E+03  0.00000000000E+00 0. -1.
         13    1    4    4    0    0 -0.17506859269E+02  0.70347770142E+02 -0.77517229925E+02  0.10613302889E+03  0.00000000000E+00 0.  1.
          2    1    1    2  501    0 -0.43659966729E+02 -0.48889058583E+02  0.36300756650E+02  0.74927149134E+02  0.00000000000E+00 0. -1.
<scales pt_clust_5="13000.00000" pt_clust_6="13000.00000" pt_clust_7="13000.00000" pt_clust_8="13000.00000" pt_clust_9="65.54642"></scales>
<clustering>
<clus scale="   65.546">  1  9  2 -1</clus>
<clus scale="   93.098">  7  8 -1 -1</clus>
<clus scale="   98.320">  5  6 -1 -1</clus>
<clus scale="  176.183">  1  7  2 -1</clus>
<clus scale="   65.546">  1  5  2 -1</clus>
</clustering>
</event>
<event>
 9    1  0.1636528E-005  0.2888502E+03  0.7546771E-02  0.1091077E+00
         21   -1    0    0  501  502  0.00000000000E+00  0.00000000000E+00  0.25222229483E+03  0.25222229483E+03  0.00000000000E+00 0.  1.
          1   -1    0    0  502    0 -0.00000000000E+00 -0.00000000000E+00 -0.15252055126E+04  0.15252055126E+04  0.00000000000E+00 0. -1.
         23    2    1    2    0    0 -0.23149417689E+03 -0.15547297729E+03 -0.84588856445E+03  0.89541171066E+03  0.92050353154E+02 0.  0.
         23    2    1    2    0    0  0.23402318826E+03  0.13071482738E+03 -0.62326357464E+03  0.68427483249E+03  0.89001933521E+02 0.  0.
        -13    1    4    4    0    0  0.10367006784E+02  0.21661421073E+02 -0.12556773635E+03  0.12784345273E+03  0.00000000000E+00 0.  1.
         13    1    4    4    0    0  0.22365618148E+03  0.10905340630E+03 -0.49769583829E+03  0.55643137976E+03  0.00000000000E+00 0. -1.
        -13    1    3    3    0    0 -0.57694027428E+02 -0.67356236883E+02 -0.16671268995E+03  0.18883480727E+03  0.00000000000E+00 0.  1.
         13    1    3    3    0    0 -0.17380014947E+03 -0.88116740402E+02 -0.67917587450E+03  0.70657690339E+03  0.00000000000E+00 0. -1.
          1    1    1    2  501    0 -0.25290113665E+01  0.24758149908E+02  0.19616892135E+03  0.19774126425E+03  0.00000000000E+00 0. -1.
<scales pt_clust_5="13000.00000" pt_clust_6="13000.00000" pt_clust_7="13000.00000" pt_clust_8="13000.00000" pt_clust_9="24.88698"></scales>
<clustering>
<clus scale="   24.887">  1  9  2 -1</clus>
<clus scale="   89.002">  5  6 -1 -1</clus>
<clus scale="   92.050">  7  8 -1 -1</clus>
<clus scale="  287.893">  1  5  2 -1</clus>
<clus scale="   24.887">  1  5  2 -1</clus>
</clustering>
</event>
<event>
 9    1  0.1636528E-005  0.9445863E+02  0.7546771E-02  0.1292988E+00
         21   -1    0    0  501  502  0.00000000000E+00  0.00000000000E+00  0.98939398873E+02  0.98939398873E+02  0.00000000000E+00 0. -1.
         -1   -1    0    0    0  501 -0.00000000000E+00 -0.00000000000E+00 -0.13497083757E+03  0.13497083757E+03  0.00000000000E+00 0.  1.
         23    2    1    2    0    0 -0.17192094389E+02  0.15960989394E+02 -0.54075644463E+02  0.10818577806E+03  0.90717506347E+02 0.  0.
         23    2    1    2    0    0 -0.30263978778E+01 -0.27241298635E+02 -0.93454848022E+00  0.95787425827E+02  0.91777503399E+02 0.  0.
        -11    1    3    3    0    0  0.24144257372E+02 -0.15127541786E+02 -0.48386021577E+02  0.56151533982E+02  0.00000000000E+00 0.  1.
         11    1    3    3    0    0 -0.41336351761E+02  0.31088531180E+02 -0.56896228865E+01  0.52034244075E+02  0.00000000000E+00 0. -1.
        -13    1    4    4    0    0  0.19980144169E+02 -0.49216063127E+02  0.21028131384E+02  0.57128008369E+02  0.00000000000E+00 0.  1.
         13    1    4    4    0    0 -0.23006542046E+02  0.21974764492E+02 -0.21962679864E+02  0.38659417458E+02  0.00000000000E+00 0. -1.
         -1    1    1    2    0  502  0.20218492267E+02  0.11280309241E+02  0.18978754242E+02  0.29937032564E+02  0.00000000000E+00 0.  1.
<scales pt_clust_5="13000.00000" pt_clust_6="13000.00000" pt_clust_7="13000.00000" pt_clust_8="13000.00000" pt_clust_9="23.15238"></scales>
<clustering>
<clus scale="   23.152">  1  9  2 -1</clus>
<clus scale="   90.718">  5  6 -1 -1</clus>
<clus scale="   91.778">  7  8 -1 -1</clus>
<clus scale="   93.429">  2  5  1 -1</clus>
<clus scale="   23.152">  1  5  2 -1</clus>
</clustering>
</event>
<event>
 9    1  0.1636528E-005  0.9802403E+02  0.7546771E-02  0.1284742E+00
         -1   -1    0    0    0  501 -0.00000000000E+00  0.00000000000E+00  0.10513167129E+03  0.10513167129E+03  0.00000000000E+00 0.  1.
         21   -1    0    0  501  502  0.00000000000E+00 -0.00000000000E+00 -0.21231756807E+03  0.21231756807E+03  0.00000000000E+00 0. -1.
         23    2    1    2    0    0  0.25907163771E+02 -0.15850214992E+02  0.42237779254E+02  0.10509888869E+03  0.91319964729E+02 0.  0.
         23    2    1    2    0    0 -0.21618960823E+02  0.49318907068E+02 -0.73686866335E+02  0.12943710459E+03  0.91784942730E+02 0.  0.
        -11    1    3    3    0    0 -0.30807286559E+02 -0.92293618309E+01  0.35017378650E+02  0.47544577319E+02  0.00000000000E+00 0.  1.
         11    1    3    3    0    0  0.56714450330E+02 -0.66208531610E+01  0.72204006041E+01  0.57554311373E+02  0.00000000000E+00 0. -1.
        -13    1    4    4    0    0 -0.44588684410E+02 -0.30915819995E+00 -0.10381516338E+02  0.45782335433E+02  0.00000000000E+00 0.  1.
         13    1    4    4    0    0  0.22969723587E+02  0.49628065268E+02 -0.63305349997E+02  0.83654769154E+02  0.00000000000E+00 0. -1.
         -1    1    1    2    0  502 -0.42882029478E+01 -0.33468692076E+02 -0.75736809696E+02  0.82913246087E+02  0.00000000000E+00 0.  1.
<scales pt_clust_5="13000.00000" pt_clust_6="13000.00000" pt_clust_7="13000.00000" pt_clust_8="13000.00000" pt_clust_9="33.74229"></scales>
<clustering>
<clus scale="   33.742">  2  9  1 -1</clus>
<clus scale="   91.320">  5  6 -1 -1</clus>
<clus scale="   91.785">  7  8 -1 -1</clus>
<clus scale="   97.589">  1  5  2 -1</clus>
<clus scale="   33.742">  2  5  1 -1</clus>
</clustering>
</event>
<event>
 9    1  0.1636528E-005  0.1030494E+03  0.7546771E-02  0.1274279E+00
         -3   -1    0    0    0  501 -0.00000000000E+00  0.00000000000E+00  0.57485676393E+03  0.57485676393E+03  0.00000000000E+00 0.  1.
         21   -1    0    0  501  502  0.00000000000E+00 -0.00000000000E+00 -0.25210940655E+02  0.25210940655E+02  0.00000000000E+00 0. -1.
         23    2    1    2    0    0  0.11341747727E+02  0.47607437700E+02  0.32763835208E+03  0.34377771630E+03  0.91875595826E+02 0.  0.
         23    2    1    2    0    0 -0.31828497807E+02 -0.34070072325E+02  0.16537994802E+03  0.19456767813E+03  0.91281055331E+02 0.  0.
        -13    1    4    4    0    0  0.19480293673E+02  0.18673956446E+02  0.62542915311E+02  0.68116185643E+02  0.00000000000E+00 0. -1.
         13    1    4    4    0    0 -0.51308791480E+02 -0.52744028771E+02  0.10283703271E+03  0.12645149248E+03  0.00000000000E+00 0.  1.
        -13    1    3    3    0    0  0.43789518845E+02  0.32044552530E+02  0.27308550133E+03  0.27842425602E+03  0.00000000000E+00 0.  1.
         13    1    3    3    0    0 -0.32447771119E+02  0.15562885170E+02  0.54552850751E+02  0.65353460279E+02  0.00000000000E+00 0. -1.
         -3    1    1    2    0  502  0.20486750080E+02 -0.13537365375E+02  0.56627523172E+02  0.61722310154E+02  0.00000000000E+00 0.  1.
<scales pt_clust_5="13000.00000" pt_clust_6="13000.00000" pt_clust_7="13000.00000" pt_clust_8="13000.00000" pt_clust_9="24.55540"></scales>
<clustering>
<clus scale="   24.555">  2  9  1 -1</clus>
<clus scale="   91.281">  5  6 -1 -1</clus>
<clus scale="   91.876">  7  8 -1 -1</clus>
<clus scale="  102.520">  2  5  1 -1</clus>
<clus scale="   24.555">  2  5  1 -1</clus>
</clustering>
</event>
<event>
 9    1  0.1636528E-005  0.2330205E+03  0.7546771E-02  0.1124771E+00
          2   -1    0    0  502    0 -0.00000000000E+00  0.00000000000E+00  0.84144125265E+03  0.84144125265E+03  0.00000000000E+00 0. -1.
         21   -1    0    0  501  502  0.00000000000E+00 -0.00000000000E+00 -0.27582076947E+03  0.27582076947E+03  0.00000000000E+00 0. -1.
         23    2    1    2    0    0 -0.16875758531E+03 -0.16834534894E+03  0.47006568387E+03  0.53539227707E+03  0.94148096544E+02 0.  0.
         23    2    1    2    0    0  0.15855293559E+03  0.10424890452E+03  0.30056228348E+03  0.36683356756E+03  0.90676968162E+02 0.  0.
        -13    1    3    3    0    0 -0.15708775817E+03 -0.13549549840E+03  0.44913575128E+03  0.49473075196E+03  0.00000000000E+00 0. -1.
         13    1    3    3    0    0 -0.11669827143E+02 -0.32849850545E+02  0.20929932590E+02  0.40661525114E+02  0.00000000000E+00 0.  1.
        -13    1    4    4    0    0  0.64004278987E+02  0.96014552411E+02  0.16326109002E+03  0.19992379928E+03  0.00000000000E+00 0.  1.
         13    1    4    4    0    0  0.94548656605E+02  0.82343521118E+01  0.13730119347E+03  0.16690976828E+03  0.00000000000E+00 0. -1.
          2    1    1    2  501    0  0.10204649722E+02  0.64096444419E+02 -0.20500748417E+03  0.21503617749E+03  0.00000000000E+00 0. -1.
<scales pt_clust_5="13000.00000" pt_clust_6="13000.00000" pt_clust_7="13000.00000" pt_clust_8="13000.00000" pt_clust_9="64.90369"></scales>
<clustering>
<clus scale="   64.904">  2  9  1 -1</clus>
<clus scale="   90.677">  7  8 -1 -1</clus>
<clus scale="   94.148">  5  6 -1 -1</clus>
<clus scale="  231.640">  2  7  1 -1</clus>
<clus scale="   64.904">  2  5  1 -1</clus>
</clustering>
</event>
<event>
 9    1  0.1636528E-005  0.1297043E+03  0.7546771E-02  0.1232700E+00
         21   -1    0    0  501  502  0.00000000000E+00  0.00000000000E+00  0.29387670287E+03  0.29387670287E+03  0.00000000000E+00 0.  1.
          1   -1    0    0  502    0 -0.00000000000E+00 -0.00000000000E+00 -0.12530206733E+03  0.12530206733E+03  0.00000000000E+00 0. -1.
         23    2    1    2    0    0  0.63644722528E+02  0.46695179248E+02 -0.70688817814E+02  0.13873681871E+03  0.89553924711E+02 0.  0.
         23    2    1    2    0    0 -0.38388627676E+02 -0.45420312932E+02  0.19148440200E+03  0.22638334107E+03  0.10510209010E+03 0.  0.
        -11    1    4    4    0    0 -0.58058606530E+02 -0.60649347966E+02  0.18073389974E+03  0.19928343563E+03  0.00000000000E+00 0.  1.
         11    1    4    4    0    0  0.19669978854E+02  0.15229035035E+02  0.10750502264E+02  0.27099905445E+02  0.00000000000E+00 0. -1.
        -11    1    3    3    0    0  0.37984048009E+01 -0.22711989716E+02 -0.31607138384E+02  0.39105927335E+02  0.00000000000E+00 0.  1.
         11    1    3    3    0    0  0.59846317727E+02  0.69407168964E+02 -0.39081679430E+02  0.99630891375E+02  0.00000000000E+00 0. -1.
          1    1    1    2  501    0 -0.25256094851E+02 -0.12748663167E+01  0.47779051356E+02  0.54058610413E+02  0.00000000000E+00 0. -1.
<scales pt_clust_5="13000.00000" pt_clust_6="13000.00000" pt_clust_7="13000.00000" pt_clust_8="13000.00000" pt_clust_9="25.28825"></scales>
<clustering>
<clus scale="   25.288">  1  9  2 -1</clus>
<clus scale="   89.554">  7  8 -1 -1</clus>
<clus scale="  105.102">  5  6 -1 -1</clus>
<clus scale="  117.459">  2  7  1 -1</clus>
<clus scale="   25.288">  1  5  2 -1</clus>
</clustering>
</event>
<event>
 9    1  0.1636528E-005  0.1101213E+03  0.7546771E-02  0.1262239E+00
         21   -1    0    0  501  502  0.00000000000E+00  0.00000000000E+00  0.60670018684E+02  0.60670018684E+02  0.00000000000E+00 0.  1.
          1   -1    0    0  502    0 -0.00000000000E+00 -0.00000000000E+00 -0.42188674528E+03  0.42188674528E+03  0.00000000000E+00 0. -1.
         23    2    1    2    0    0  0.22813076250E+02 -0.50344935667E+02 -0.31466416979E+03  0.33196740498E+03  0.90187411656E+02 0.  0.
         23    2    1    2    0    0 -0.47489395679E+02  0.42482707180E+02 -0.25223860414E+02  0.11703867096E+03  0.94877733187E+02 0.  0.
        -11    1    4    4    0    0 -0.16326658324E+02  0.41056372980E+02  0.30144436545E+02  0.53487125450E+02  0.00000000000E+00 0.  1.
         11    1    4    4    0    0 -0.31162737354E+02  0.14263341998E+01 -0.55368296959E+02  0.63551545511E+02  0.00000000000E+00 0. -1.
        -13    1    3    3    0    0  0.20482690283E+02  0.20452929185E+02 -0.47973942632E+02  0.56030010576E+02  0.00000000000E+00 0.  1.
         13    1    3    3    0    0  0.23303859670E+01 -0.70797864852E+02 -0.26669022716E+03  0.27593739440E+03  0.00000000000E+00 0. -1.
          1    1    1    2  501    0  0.24676319428E+02  0.78622284878E+01 -0.21328696387E+02  0.33550688024E+02  0.00000000000E+00 0. -1.
<scales pt_clust_5="13000.00000" pt_clust_6="13000.00000" pt_clust_7="13000.00000" pt_clust_8="13000.00000" pt_clust_9="25.89856"></scales>
<clustering>
<clus scale="   25.899">  1  9  2 -1</clus>
<clus scale="   90.187">  7  8 -1 -1</clus>
<clus scale="   94.878">  5  6 -1 -1</clus>
<clus scale="  106.107">  2  7  1 -1</clus>
<clus scale="   25.899">  1  5  2 -1</clus>
</clustering>
</event>
<event>
 9    1  0.1636528E-005  0.1303593E+03  0.7546771E-02  0.1235192E+00
         21   -1    0    0  501  502  0.00000000000E+00  0.00000000000E+00  0.43405090848E+02  0.43405090848E+02  0.00000000000E+00 0. -1.
          2   -1    0    0  502    0 -0.00000000000E+00 -0.00000000000E+00 -0.69470920589E+03  0.69470920589E+03  0.00000000000E+00 0. -1.
         23    2    1    2    0    0 -0.14287927163E+02 -0.34167636650E+02 -0.29532071157E+03  0.31928020542E+03  0.11555931219E+03 0.  0.
         23    2    1    2    0    0 -0.33268590721E+02  0.91724821114E+02 -0.28882838738E+03  0.31841373451E+03  0.91897916338E+02 0.  0.
        -13    1    4    4    0    0  0.29781758908E+02  0.11920248761E+02 -0.77849933831E+02  0.84200105058E+02  0.00000000000E+00 0.  1.
         13    1    4    4    0    0 -0.63050349628E+02  0.79804572352E+02 -0.21097845355E+03  0.23421362945E+03  0.00000000000E+00 0. -1.
        -13    1    3    3    0    0 -0.47129490771E+02 -0.60271341655E+02 -0.22189017728E+03  0.23471061820E+03  0.00000000000E+00 0.  1.
         13    1    3    3    0    0  0.32841563608E+02  0.26103705005E+02 -0.73430534292E+02  0.84569587215E+02  0.00000000000E+00 0. -1.
          2    1    1    2  501    0  0.47556517884E+02 -0.57557184464E+02 -0.67155016092E+02  0.10042035682E+03  0.00000000000E+00 0. -1.
<scales pt_clust_5="13000.00000" pt_clust_6="13000.00000" pt_clust_7="13000.00000" pt_clust_8="13000.00000" pt_clust_9="74.66225"></scales>
<clustering>
<clus scale="   74.662">  1  9  2 -1</clus>
<clus scale="   91.898">  5  6 -1 -1</clus>
<clus scale="  109.931">  1  5  2 -1</clus>
<clus scale="  115.559">  7  8 -1 -1</clus>
<clus scale="   74.662">  1  5  2 -1</clus>
</clustering>
</event>
<event>
 9    1  0.1636528E-005  0.1354093E+03  0.7546771E-02  0.1219657E+00
         21   -1    0    0  501  502  0.00000000000E+00  0.00000000000E+00  0.31388502678E+03  0.31388502678E+03  0.00000000000E+00 0.  1.
          3   -1    0    0  502    0 -0.00000000000E+00 -0.00000000000E+00 -0.16909861260E+03  0.16909861260E+03  0.00000000000E+00 0. -1.
         23    2    1    2    0    0 -0.10152847711E+03  0.21985730926E+02 -0.10689849730E+03  0.17546256901E+03  0.92565762413E+02 0.  0.
         23    2    1    2    0    0  0.76878455904E+02 -0.16223054026E+02  0.11067433315E+03  0.16425622753E+03  0.92508463393E+02 0.  0.
        -11    1    3    3    0    0 -0.83739915045E+02 -0.10343673718E+02 -0.28921597829E+02  0.89195424651E+02  0.00000000000E+00 0.  1.
         11    1    3    3    0    0 -0.17788562063E+02  0.32329404645E+02 -0.77976899474E+02  0.86267144363E+02  0.00000000000E+00 0. -1.
        -13    1    4    4    0    0  0.96306171415E+01 -0.46594593985E+02  0.44107620401E+02  0.64879019356E+02  0.00000000000E+00 0.  1.
         13    1    4    4    0    0  0.67247838762E+02  0.30371539960E+02  0.66566712747E+02  0.99377208170E+02  0.00000000000E+00 0. -1.
          3    1    1    2  501    0  0.24650021204E+02 -0.57626769003E+01  0.14101057833E+03  0.14326484284E+03  0.00000000000E+00 0. -1.
<scales pt_clust_5="13000.00000" pt_clust_6="13000.00000" pt_clust_7="13000.00000" pt_clust_8="13000.00000" pt_clust_9="25.31466"></scales>
<clustering>
<clus scale="   25.315">  1  9  2 -1</clus>
<clus scale="   92.508">  7  8 -1 -1</clus>
<clus scale="   92.566">  5  6 -1 -1</clus>
<clus scale="  135.370">  1  7  2 -1</clus>
<clus scale="   25.315">  1  5  2 -1</clus>
</clustering>
</event>
<event>
 9    1  0.1636528E-005  0.1238494E+03  0.7546771E-02  0.1245749E+00
         21   -1    0    0  501  502  0.00000000000E+00  0.00000000000E+00  0.88474137092E+02  0.88474137092E+02  0.00000000000E+00 0. -1.
         -4   -1    0    0    0  501 -0.00000000000E+00 -0.00000000000E+00 -0.34096610055E+03  0.34096610055E+03  0.00000000000E+00 0.  1.
         23    2    1    2    0    0  0.32173061661E+02 -0.50228842267E+02 -0.19336725493E+03  0.23207171752E+03  0.11361489472E+03 0.  0.
         23    2    1    2    0    0 -0.21650248659E+02  0.32341690098E+02 -0.10666687446E+03  0.14549427461E+03  0.90972763244E+02 0.  0.
        -11    1    3    3    0    0  0.11191303373E+02 -0.70911426605E+02 -0.54551585474E+02  0.90164023713E+02  0.00000000000E+00 0. -1.
         11    1    3    3    0    0  0.20981758288E+02  0.20682584339E+02 -0.13881566946E+03  0.14190769381E+03  0.00000000000E+00 0.  1.
        -11    1    4    4    0    0  0.11710804589E+01  0.23861592327E+02 -0.11673066133E+03  0.11915030135E+03  0.00000000000E+00 0.  1.
         11    1    4    4    0    0 -0.22821329117E+02  0.84800977714E+01  0.10063786870E+02  0.26343973259E+02  0.00000000000E+00 0. -1.
         -4    1    1    2    0  502 -0.10522813003E+02  0.17887152168E+02  0.47542165929E+02  0.51874245511E+02  0.00000000000E+00 0.  1.
<scales pt_clust_5="13000.00000" pt_clust_6="13000.00000" pt_clust_7="13000.00000" pt_clust_8="13000.00000" pt_clust_9="20.75283"></scales>
<clustering>
<clus scale="   20.753">  1  9  2 -1</clus>
<clus scale="   90.973">  7  8 -1 -1</clus>
<clus scale="  103.472">  1  7  2 -1</clus>
<clus scale="  113.615">  5  6 -1 -1</clus>
<clus scale="   20.753">  1  5  2 -1</clus>
</clustering>
</event>
<event>
 9    1  0.1636528E-005  0.1862910E+03  0.7546771E-02  0.1162348E+00
         21   -1    0    0  501  502  0.00000000000E+00  0.00000000000E+00  0.25843959757E+03  0.25843959757E+03  0.00000000000E+00 0. -1.
          1   -1    0    0  502    0 -0.00000000000E+00 -0.00000000000E+00 -0.10088431700E+04  0.10088431700E+04  0.00000000000E+00 0. -1.
         23    2    1    2    0    0 -0.69950884981E+02  0.14487762599E+03 -0.95684868467E+03  0.97444998215E+03  0.90059477795E+02 0.  0.
         23    2    1    2    0    0  0.45857724138E+02 -0.14881608301E+03  0.19131969498E+03  0.26411397465E+03  0.94359994128E+02 0.  0.
        -11    1    3    3    0    0 -0.80888100089E+02  0.68656159491E+02 -0.60985737647E+03  0.61901742513E+03  0.00000000000E+00 0. -1.
         11    1    3    3    0    0  0.10937215109E+02  0.76221466502E+02 -0.34699130819E+03  0.35543255702E+03  0.00000000000E+00 0.  1.
        -11    1    4    4    0    0  0.59647076049E+02 -0.10100146681E+03  0.79444625537E+02  0.14167045742E+03  0.00000000000E+00 0. -1.
         11    1    4    4    0    0 -0.13789351911E+02 -0.47814616201E+02  0.11187506944E+03  0.12244351723E+03  0.00000000000E+00 0.  1.
          1    1    1    2  501    0  0.24093160843E+02  0.39384570161E+01  0.15125417276E+02  0.28718810749E+02  0.00000000000E+00 0. -1.
<scales pt_clust_5="13000.00000" pt_clust_6="13000.00000" pt_clust_7="13000.00000" pt_clust_8="13000.00000" pt_clust_9="24.41294"></scales>
<clustering>
<clus scale="   24.413">  1  9  2 -1</clus>
<clus scale="   90.059">  5  6 -1 -1</clus>
<clus scale="   94.360">  7  8 -1 -1</clus>
<clus scale="  184.150">  2  5  1 -1</clus>
<clus scale="   24.413">  1  5  2 -1</clus>
</clustering>
</event>
<event>
 9    1  0.1636528E-005  0.1237889E+03  0.7546771E-02  0.1237205E+00
          3   -1    0    0  502    0 -0.00000000000E+00  0.00000000000E+00  0.79026219401E+03  0.79026219401E+03  0.00000000000E+00 0. -1.
         21   -1    0    0  501  502  0.00000000000E+00 -0.00000000000E+00 -0.33853886621E+02  0.33853886621E+02  0.00000000000E+00 0.  1.
         23    2    1    2    0    0 -0.66966693864E+02  0.44428532571E+02  0.47797678167E+03  0.49342838338E+03  0.92473418419E+02 0.  0.
         23    2    1    2    0    0  0.51096493507E+02 -0.73282669163E+02  0.14918535913E+03  0.19731230208E+03  0.93245224690E+02 0.  0.
        -11    1    4    4    0    0  0.16535442515E+02 -0.77249299540E+02  0.14092484672E+03  0.16155707215E+03  0.00000000000E+00 0.  1.
         11    1    4    4    0    0  0.34561050992E+02  0.39666303778E+01  0.82605124036E+01  0.35755229931E+02  0.00000000000E+00 0. -1.
        -13    1    3    3    0    0 -0.24046664464E+02 -0.21415195505E+02  0.59691069476E+02  0.67822388970E+02  0.00000000000E+00 0.  1.
         13    1    3    3    0    0 -0.42920029400E+02  0.65843728076E+02  0.41828571220E+03  0.42560599441E+03  0.00000000000E+00 0. -1.
          3    1    1    2  501    0  0.15870200357E+02  0.28854136592E+02  0.12924616659E+03  0.13337539517E+03  0.00000000000E+00 0. -1.
<scales pt_clust_5="13000.00000" pt_clust_6="13000.00000" pt_clust_7="13000.00000" pt_clust_8="13000.00000" pt_clust_9="32.93062"></scales>
<clustering>
<clus scale="   32.931">  2  9  1 -1</clus>
<clus scale="   92.473">  7  8 -1 -1</clus>
<clus scale="   93.245">  5  6 -1 -1</clus>
<clus scale="  123.209">  1  7  2 -1</clus>
<clus scale="   32.931">  2  5  1 -1</clus>
</clustering>
</event>
<event>
 9    1  0.1636528E-005  0.1282277E+03  0.7546771E-02  0.1230305E+00
         21   -1    0    0  501  502  0.00000000000E+00  0.00000000000E+00  0.55326265137E+03  0.55326265137E+03  0.00000000000E+00 0.  1.
          1   -1    0    0  502    0 -0.00000000000E+00 -0.00000000000E+00 -0.56833604073E+02  0.56833604073E+02  0.00000000000E+00 0. -1.
         23    2    1    2    0    0 -0.53457114492E+02 -0.37747178608E+02  0.14380542415E+03  0.18305448490E+03  0.92446913642E+02 0.  0.
         23    2    1    2    0    0  0.13070249735E+03  0.28138867405E+02  0.25502114124E+03  0.30220021781E+03  0.91729223755E+02 0.  0.
        -11    1    4    4    0    0  0.74864373616E+02 -0.17104080955E+02  0.19135361892E+03  0.20618785487E+03  0.00000000000E+00 0.  1.
         11    1    4    4    0    0  0.55838123733E+02  0.45242948361E+02  0.63667522325E+02  0.96012362940E+02  0.00000000000E+00 0. -1.
        -13    1    3    3    0    0 -0.41615486518E+02  0.23807495562E+01  0.10008059238E+02  0.42868145940E+02  0.00000000000E+00 0. -1.
         13    1    3    3    0    0 -0.11841627974E+02 -0.40127928164E+02  0.13379736492E+03  0.14018633896E+03  0.00000000000E+00 0.  1.
          1    1    1    2  501    0 -0.77245382857E+02  0.96083112024E+01  0.97602481897E+02  0.12484155274E+03  0.00000000000E+00 0. -1.
<scales pt_clust_5="13000.00000" pt_clust_6="13000.00000" pt_clust_7="13000.00000" pt_clust_8="13000.00000" pt_clust_9="77.84070"></scales>
<clustering>
<clus scale="   77.841">  1  9  2 -1</clus>
<clus scale="   91.729">  5  6 -1 -1</clus>
<clus scale="   92.447">  7  8 -1 -1</clus>
<clus scale="  127.711">  1  5  2 -1</clus>
<clus scale="   77.841">  1  5  2 -1</clus>
</clustering>
</event>
<event>
 9    1  0.1636528E-005  0.1073115E+03  0.7546771E-02  0.1267089E+00
          1   -1    0    0  502    0 -0.00000000000E+00  0.00000000000E+00  0.27208565918E+03  0.27208565918E+03  0.00000000000E+00 0. -1.
         21   -1    0    0  501  502  0.00000000000E+00 -0.00000000000E+00 -0.25207475300E+03  0.25207475300E+03  0.00000000000E+00 0. -1.
         23    2    1    2    0    0  0.40990879426E+02  0.68861559097E+02  0.15693229556E+03  0.19702557281E+03  0.88142863764E+02 0.  0.
         23    2    1    2    0    0 -0.23691109845E+02 -0.14458902855E+02  0.66009952435E+02  0.11632672634E+03  0.91674777791E+02 0.  0.
        -11    1    3    3    0    0  0.23512410308E+02  0.27718725959E+01 -0.22529049659E+01  0.23782184445E+02  0.00000000000E+00 0.  1.
         11    1    3    3    0    0  0.17478469118E+02  0.66089686501E+02  0.15918520053E+03  0.17324338836E+03  0.00000000000E+00 0. -1.
        -11    1    4    4    0    0  0.23275529020E+02 -0.83121663531E+01  0.64347157720E+02  0.68930392914E+02  0.00000000000E+00 0.  1.
         11    1    4    4    0    0 -0.46966638865E+02 -0.61467365019E+01  0.16627947146E+01  0.47396333426E+02  0.00000000000E+00 0. -1.
          1    1    1    2  501    0 -0.17299769581E+02 -0.54402656242E+02 -0.20293134181E+03  0.21080811303E+03  0.00000000000E+00 0. -1.
<scales pt_clust_5="13000.00000" pt_clust_6="13000.00000" pt_clust_7="13000.00000" pt_clust_8="13000.00000" pt_clust_9="57.08705"></scales>
<clustering>
<clus scale="   57.087">  2  9  1 -1</clus>
<clus scale="   88.143">  5  6 -1 -1</clus>
<clus scale="   91.675">  7  8 -1 -1</clus>
<clus scale="  104.310">  1  5  2 -1</clus>
<clus scale="   57.087">  2  5  1 -1</clus>
</clustering>
</event>
<event>
 9    1  0.1636528E-005  0.9752588E+02  0.7546771E-02  0.1288313E+00
          1   -1    0    0  502    0 -0.00000000000E+00  0.00000000000E+00  0.39380310044E+03  0.39380310044E+03  0.00000000000E+00 0. -1.
         21   -1    0    0  501  502  0.00000000000E+00 -0.00000000000E+00 -0.85674951596E+02  0.85674951596E+02  0.00000000000E+00 0.  1.
         23    2    1    2    0    0 -0.25050218881E+02  0.44709193158E+01  0.25503206411E+03  0.27354288881E+03  0.95586901342E+02 0.  0.
         23    2    1    2    0    0  0.13632796556E+01 -0.19498216747E+02  0.10918515222E+03  0.14322253093E+03  0.90604949714E+02 0.  0.
        -11    1    4    4    0    0 -0.31653670187E+02 -0.34334108691E+01  0.43399366928E+01  0.32133754791E+02  0.00000000000E+00 0.  1.
         11    1    4    4    0    0  0.33016949842E+02 -0.16064805878E+02  0.10484521553E+03  0.11108877614E+03  0.00000000000E+00 0. -1.
        -11    1    3    3    0    0 -0.31230296233E+02  0.37882768965E+02  0.21725295511E+03  0.22273141245E+03  0.00000000000E+00 0.  1.
         11    1    3    3    0    0  0.61800773525E+01 -0.33411849649E+02  0.37779109000E+02  0.50811476360E+02  0.00000000000E+00 0. -1.
          1    1    1    2  501    0  0.23686939225E+02  0.15027297431E+02 -0.56089067488E+02  0.62712632297E+02  0.00000000000E+00 0. -1.
<scales pt_clust_5="13000.00000" pt_clust_6="13000.00000" pt_clust_7="13000.00000" pt_clust_8="13000.00000" pt_clust_9="28.05157"></scales>
<clustering>
<clus scale="   28.052">  2  9  1 -1</clus>
<clus scale="   90.605">  5  6 -1 -1</clus>
<clus scale="   92.648">  2  5  1 -1</clus>
<clus scale="   95.587">  7  8 -1 -1</clus>
<clus scale="   28.052">  2  5  1 -1</clus>
</clustering>
</event>
<event>
 9    1  0.1636528E-005  0.9454059E+02  0.7546771E-02  0.1292377E+00
          1   -1    0    0  502    0 -0.00000000000E+00  0.00000000000E+00  0.47249946347E+03  0.47249946347E+03  0.00000000000E+00 0. -1.
         21   -1    0    0  501  502  0.00000000000E+00 -0.00000000000E+00 -0.41535596672E+02  0.41535596672E+02  0.00000000000E+00 0. -1.
         23    2    1    2    0    0 -0.21173963452E+01 -0.21369837092E+02  0.25056891411E+03  0.26769645449E+03  0.91735803922E+02 0.  0.
         23    2    1    2    0    0  0.45286332980E+02  0.82396261756E+00  0.16863338686E+03  0.19710422256E+03  0.91440278417E+02 0.  0.
        -13    1    3    3    0    0 -0.18980211972E+02 -0.42296156063E+02  0.22781071398E+03  0.23247996616E+03  0.00000000000E+00 0. -1.
         13    1    3    3    0    0  0.16862815627E+02  0.20926318971E+02  0.22758200134E+02  0.35216488324E+02  0.00000000000E+00 0.  1.
        -13    1    4    4    0    0 -0.48362903773E+00  0.21665582844E+02  0.57113690024E+00  0.21678504892E+02  0.00000000000E+00 0.  1.
         13    1    4    4    0    0  0.45769962018E+02 -0.20841620226E+02  0.16806224996E+03  0.17542571767E+03  0.00000000000E+00 0. -1.
          1    1    1    2  501    0 -0.43168936635E+02  0.20545874475E+02  0.11761565823E+02  0.49234383095E+02  0.00000000000E+00 0. -1.
<scales pt_clust_5="13000.00000" pt_clust_6="13000.00000" pt_clust_7="13000.00000" pt_clust_8="13000.00000" pt_clust_9="47.80889"></scales>
<clustering>
<clus scale="   47.809">  2  9  1 -1</clus>
<clus scale="   91.440">  7  8 -1 -1</clus>
<clus scale="   91.736">  5  6 -1 -1</clus>
<clus scale="   94.254">  2  7  1 -1</clus>
<clus scale="   47.809">  2  5  1 -1</clus>
</clustering>
</event>
<event>
 9    1  0.1636528E-005  0.1206062E+03  0.7546771E-02  0.1244454E+00
          1   -1    0    0  502    0 -0.00000000000E+00  0.00000000000E+00  0.91782476426E+02  0.91782476426E+02  0.00000000000E+00 0. -1.
         21   -1    0    0  501  502  0.00000000000E+00 -0.00000000000E+00 -0.19992753343E+03  0.19992753343E+03  0.00000000000E+00 0. -1.
         23    2    1    2    0    0  0.31314581712E+02 -0.79218239128E+02 -0.28132608030E+02  0.12780774971E+03  0.91034305686E+02 0.  0.
         23    2    1    2    0    0 -0.81123674673E+01  0.73789051383E+02 -0.42619936475E+02  0.11956244941E+03  0.83475060434E+02 0.  0.
        -13    1    3    3    0    0  0.15492013110E+02 -0.13277079904E+02  0.31482850260E+02  0.37516038989E+02  0.00000000000E+00 0.  1.
         13    1    3    3    0    0  0.15822568603E+02 -0.65941159224E+02 -0.59615458289E+02  0.90291710716E+02  0.00000000000E+00 0. -1.
        -13    1    4    4    0    0 -0.45631643044E+02  0.47564384233E+02 -0.24077281207E+02  0.70173591647E+02  0.00000000000E+00 0. -1.
         13    1    4    4    0    0  0.37519275577E+02  0.26224667150E+02 -0.18542655268E+02  0.49388857765E+02  0.00000000000E+00 0.  1.
          1    1    1    2  501    0 -0.23202214245E+02  0.54291877450E+01 -0.37392512504E+02  0.44339810744E+02  0.00000000000E+00 0. -1.
<scales pt_clust_5="13000.00000" pt_clust_6="13000.00000" pt_clust_7="13000.00000" pt_clust_8="13000.00000" pt_clust_9="23.82895"></scales>
<clustering>
<clus scale="   23.829">  2  9  1 -1</clus>
<clus scale="   83.475">  7  8 -1 -1</clus>
<clus scale="   91.034">  5  6 -1 -1</clus>
<clus scale="  115.007">  2  7  1 -1</clus>
<clus scale="   23.829">  2  5  1 -1</clus>
</clustering>
</event>
<event>
 9    1  0.1636528E-005  0.1511570E+03  0.7546771E-02  0.1199084E+00
          1   -1    0    0  502    0 -0.00000000000E+00  0.00000000000E+00  0.41576153721E+03  0.41576153721E+03  0.00000000000E+00 0. -1.
         21   -1    0    0  501  502  0.00000000000E+00 -0.00000000000E+00 -0.12094877008E+03  0.12094877008E+03  0.00000000000E+00 0. -1.
         23    2    1    2    0    0 -0.12891695756E+03 -0.66055421189E+02  0.25146608635E+03  0.30475644681E+03  0.93050516765E+02 0.  0.
         23    2    1    2    0    0  0.89867497359E+02 -0.29547746478E+01  0.71367036688E+02  0.14785625162E+03  0.93184330456E+02 0.  0.
        -11    1    3    3    0    0  0.11027671760E+02 -0.21421163506E+02  0.24170410350E+02  0.34127474664E+02  0.00000000000E+00 0.  1.
         11    1    3    3    0    0 -0.13994462932E+03 -0.44634257683E+02  0.22729567600E+03  0.27062897214E+03  0.00000000000E+00 0. -1.
        -11    1    4    4    0    0  0.14437268433E+02 -0.41613115397E+02  0.17308808885E+02  0.47325267647E+02  0.00000000000E+00 0. -1.
         11    1    4    4    0    0  0.75430228926E+02  0.38658340749E+02  0.54058227804E+02  0.10053098397E+03  0.00000000000E+00 0.  1.
          1    1    1    2  501    0  0.39049460197E+02  0.69010195837E+02 -0.28020355917E+02  0.84097608865E+02  0.00000000000E+00 0. -1.
<scales pt_clust_5="13000.00000" pt_clust_6="13000.00000" pt_clust_7="13000.00000" pt_clust_8="13000.00000" pt_clust_9="79.29229"></scales>
<clustering>
<clus scale="   79.292">  2  9  1 -1</clus>
<clus scale="   93.051">  5  6 -1 -1</clus>
<clus scale="   93.184">  7  8 -1 -1</clus>
<clus scale="  151.074">  1  5  2 -1</clus>
<clus scale="   79.292">  2  5  1 -1</clus>
</clustering>
</event>
<event>
 9    1  0.1636528E-005  0.9947763E+02  0.7546771E-02  0.1286208E+00
         21   -1    0    0  501  502  0.00000000000E+00  0.00000000000E+00  0.47758231083E+02  0.47758231083E+02  0.00000000000E+00 0.  1.
          2   -1    0    0  502    0 -0.00000000000E+00 -0.00000000000E+00 -0.32576982551E+03  0.32576982551E+03  0.00000000000E+00 0. -1.
         23    2    1    2    0    0  0.95011828788E+01 -0.25450191940E+02 -0.13971517902E+03  0.16769465817E+03  0.88674587015E+02 0.  0.
         23    2    1    2    0    0  0.22680726869E+02  0.11269170874E+02 -0.13774800021E+03  0.17066128685E+03  0.97515915031E+02 0.  0.
        -13    1    4    4    0    0  0.24160835171E+02  0.47169388536E+02 -0.11870005798E+03  0.12999384961E+03  0.00000000000E+00 0.  1.
         13    1    4    4    0    0 -0.14801083022E+01 -0.35900217662E+02 -0.19047942228E+02  0.40667437243E+02  0.00000000000E+00 0. -1.
        -13    1    3    3    0    0  0.19934500231E+02  0.34815142248E+01  0.40832085705E+01  0.20644075009E+02  0.00000000000E+00 0.  1.
         13    1    3    3    0    0 -0.10433317352E+02 -0.28931706165E+02 -0.14379838759E+03  0.14705058316E+03  0.00000000000E+00 0. -1.
          2    1    1    2  501    0 -0.32181909747E+02  0.14181021066E+02 -0.54841519298E+00  0.35172111575E+02  0.00000000000E+00 0. -1.
<scales pt_clust_5="13000.00000" pt_clust_6="13000.00000" pt_clust_7="13000.00000" pt_clust_8="13000.00000" pt_clust_9="35.16784"></scales>
<clustering>
<clus scale="   35.168">  1  9  2 -1</clus>
<clus scale="   88.675">  7  8 -1 -1</clus>
<clus scale="   90.827">  2  7  1 -1</clus>
<clus scale="   97.516">  5  6 -1 -1</clus>
<clus scale="   35.168">  1  5  2 -1</clus>
</clustering>
</event>
<event>
 9    1  0.1636528E-005  0.2103341E+03  0.7546771E-02  0.1142109E+00
          3   -1    0    0  502    0 -0.00000000000E+00  0.00000000000E+00  0.57987353961E+03  0.57987353961E+03  0.00000000000E+00 0. -1.
         21   -1    0    0  501  502  0.00000000000E+00 -0.00000000000E+00 -0.10726991094E+03  0.10726991094E+03  0.00000000000E+00 0.  1.
         23    2    1    2    0    0  0.12070476594E+03  0.12705124315E+03  0.28911157452E+03  0.35157642854E+03  0.96482245395E+02 0.  0.
         23    2    1    2    0    0 -0.15704527164E+03 -0.14452224999E+03  0.11895058988E+03  0.25946532002E+03  0.87310431053E+02 0.  0.
        -11    1    3    3    0    0  0.71235905826E+02  0.11653994933E+03  0.25875381576E+03  0.29259126993E+03  0.00000000000E+00 0. -1.
         11    1    3    3    0    0  0.49468860118E+02  0.10511293813E+02  0.30357758756E+02  0.58985158605E+02  0.00000000000E+00 0.  1.
        -11    1    4    4    0    0 -0.14660883180E+03 -0.83895207543E+02  0.82905334806E+02  0.18816442264E+03  0.00000000000E+00 0.  1.
         11    1    4    4    0    0 -0.10436439846E+02 -0.60627042451E+02  0.36045255076E+02  0.71300897376E+02  0.00000000000E+00 0. -1.
          3    1    1    2  501    0  0.36340505700E+02  0.17471006848E+02  0.64541464275E+02  0.76101701988E+02  0.00000000000E+00 0. -1.
<scales pt_clust_5="13000.00000" pt_clust_6="13000.00000" pt_clust_7="13000.00000" pt_clust_8="13000.00000" pt_clust_9="40.32208"></scales>
<clustering>
<clus scale="   40.322">  2  9  1 -1</clus>
<clus scale="   87.310">  7  8 -1 -1</clus>
<clus scale="   96.482">  5  6 -1 -1</clus>
<clus scale="  206.288">  2  7  1 -1</clus>
<clus scale="   40.322">  2  5  1 -1</clus>
</clustering>
</event>
<event>
 9    1  0.1636528E-005  0.9439124E+02  0.7546771E-02  0.1294139E+00
          2   -1    0    0  502    0 -0.00000000000E+00  0.00000000000E+00  0.42001092813E+03  0.42001092813E+03  0.00000000000E+00 0. -1.
         21   -1    0    0  501  502  0.00000000000E+00 -0.00000000000E+00 -0.31238474838E+02  0.31238474838E+02  0.00000000000E+00 0.  1.
         23    2    1    2    0    0 -0.13261795829E+02  0.83167432514E+01  0.17053225595E+03  0.19318397302E+03  0.89407794208E+02 0.  0.
         23    2    1    2    0    0 -0.10782208982E+02 -0.32509486865E+02  0.18928640517E+03  0.21332478744E+03  0.92222551399E+02 0.  0.
        -13    1    3    3    0    0 -0.18850667522E+02 -0.23122353858E+02  0.13162800070E+02  0.32607517840E+02  0.00000000000E+00 0.  1.
         13    1    3    3    0    0  0.55888716936E+01  0.31439097110E+02  0.15736945588E+03  0.16057645518E+03  0.00000000000E+00 0. -1.
        -13    1    4    4    0    0 -0.41269339205E+02 -0.31873934876E+02  0.16859200458E+03  0.17647200937E+03  0.00000000000E+00 0.  1.
         13    1    4    4    0    0  0.30487130223E+02 -0.63555198937E+00  0.20694400592E+02  0.36852778069E+02  0.00000000000E+00 0. -1.
          2    1    1    2  501    0  0.24044004811E+02  0.24192743614E+02  0.28953792160E+02  0.44740642500E+02  0.00000000000E+00 0. -1.
<scales pt_clust_5="13000.00000" pt_clust_6="13000.00000" pt_clust_7="13000.00000" pt_clust_8="13000.00000" pt_clust_9="34.10869"></scales>
<clustering>
<clus scale="   34.109">  2  9  1 -1</clus>
<clus scale="   89.408">  5  6 -1 -1</clus>
<clus scale="   91.643">  1  5  2 -1</clus>
<clus scale="   92.223">  7  8 -1 -1</clus>
<clus scale="   34.109">  2  5  1 -1</clus>
</clustering>
</event>
<event>
 9    1  0.1636528E-005  0.1131289E+03  0.7546771E-02  0.1255874E+00
          1   -1    0    0  502    0 -0.00000000000E+00  0.00000000000E+00  0.42265300889E+03  0.42265300889E+03  0.00000000000E+00 0. -1.
         21   -1    0    0  501  502  0.00000000000E+00 -0.00000000000E+00 -0.77354720370E+02  0.77354720370E+02  0.00000000000E+00 0. -1.
         23    2    1    2    0    0  0.67235479716E+02 -0.19455168576E+02  0.26072589572E+03  0.28455490516E+03  0.89968817008E+02 0.  0.
         23    2    1    2    0    0 -0.58925748540E+02 -0.83646078602E+01  0.12441216692E+03  0.16615577351E+03  0.92666840275E+02 0.  0.
        -11    1    4    4    0    0 -0.36991700272E+02  0.39570972050E+02  0.83031806554E+02  0.99138935931E+02  0.00000000000E+00 0.  1.
         11    1    4    4    0    0 -0.21934048268E+02 -0.47935579910E+02  0.41380360370E+02  0.67016837579E+02  0.00000000000E+00 0. -1.
        -11    1    3    3    0    0  0.64425238508E+02  0.32964912611E+01  0.25183595294E+03  0.25996696983E+03  0.00000000000E+00 0. -1.
         11    1    3    3    0    0  0.28102412085E+01 -0.22751659837E+02  0.88899427838E+01  0.24587935328E+02  0.00000000000E+00 0.  1.
          1    1    1    2  501    0 -0.83097311762E+01  0.27819776436E+02 -0.39839774133E+02  0.49297050583E+02  0.00000000000E+00 0. -1.
<scales pt_clust_5="13000.00000" pt_clust_6="13000.00000" pt_clust_7="13000.00000" pt_clust_8="13000.00000" pt_clust_9="29.03432"></scales>
<clustering>
<clus scale="   29.034">  2  9  1 -1</clus>
<clus scale="   89.969">  7  8 -1 -1</clus>
<clus scale="   92.667">  5  6 -1 -1</clus>
<clus scale="  110.930">  1  7  2 -1</clus>
<clus scale="   29.034">  2  5  1 -1</clus>
</clustering>
</event>
<event>
 9    1  0.1636528E-005  0.1128078E+03  0.7546771E-02  0.1255896E+00
          3   -1    0    0  502    0 -0.00000000000E+00  0.00000000000E+00  0.22481558158E+03  0.22481558158E+03  0.00000000000E+00 0. -1.
         21   -1    0    0  501  502  0.00000000000E+00 -0.00000000000E+00 -0.15079845406E+03  0.15079845406E+03  0.00000000000E+00 0. -1.
         23    2    1    2    0    0  0.33292157368E+02  0.47789007163E+02  0.91573638245E+02  0.14168955553E+03  0.91093589110E+02 0.  0.
         23    2    1    2    0    0 -0.31924103661E+02 -0.71442743147E+02  0.73379480938E+02  0.13995254081E+03  0.89882987906E+02 0.  0.
        -11    1    3    3    0    0  0.57675592063E+02  0.43913744175E+02  0.91835752252E+02  0.11699870187E+03  0.00000000000E+00 0.  1.
         11    1    3    3    0    0 -0.24383434695E+02  0.38752629879E+01 -0.26211400722E+00  0.24690853661E+02  0.00000000000E+00 0. -1.
        -13    1    4    4    0    0 -0.60161766391E+02 -0.61164461652E+02  0.67889018246E+02  0.10940497385E+03  0.00000000000E+00 0. -1.
         13    1    4    4    0    0  0.28237662730E+02 -0.10278281496E+02  0.54904626916E+01  0.30547566966E+02  0.00000000000E+00 0.  1.
          3    1    1    2  501    0 -0.13680537064E+01  0.23653735984E+02 -0.90935991654E+02  0.93971939296E+02  0.00000000000E+00 0. -1.
<scales pt_clust_5="13000.00000" pt_clust_6="13000.00000" pt_clust_7="13000.00000" pt_clust_8="13000.00000" pt_clust_9="23.69326"></scales>
<clustering>
<clus scale="   23.693">  2  9  1 -1</clus>
<clus scale="   89.883">  7  8 -1 -1</clus>
<clus scale="   91.094">  5  6 -1 -1</clus>
<clus scale="  111.832">  2  7  1 -1</clus>
<clus scale="   23.693">  2  5  1 -1</clus>
</clustering>
</event>
<event>
 9    1  0.1636528E-005  0.3031230E+03  0.7546771E-02  0.1083721E+00
         21   -1    0    0  501  502  0.00000000000E+00  0.00000000000E+00  0.29931449546E+03  0.29931449546E+03  0.00000000000E+00 0. -1.
         -2   -1    0    0    0  501 -0.00000000000E+00 -0.00000000000E+00 -0.49635852574E+03  0.49635852574E+03  0.00000000000E+00 0.  1.
         23    2    1    2    0    0  0.17807635501E+03 -0.22408603708E+03 -0.30044407445E+03  0.42504024305E+03  0.92015358022E+02 0.  0.
         23    2    1    2    0    0 -0.16230877269E+03  0.24946681518E+03  0.58541927790E+02  0.31673425169E+03  0.91189907978E+02 0.  0.
        -13    1    3    3    0    0  0.55263049701E+02 -0.12283043192E+03 -0.93498775528E+02  0.16396140001E+03  0.00000000000E+00 0.  1.
         13    1    3    3    0    0  0.12281330531E+03 -0.10125560516E+03 -0.20694529892E+03  0.26107884304E+03  0.00000000000E+00 0. -1.
        -13    1    4    4    0    0 -0.43987235071E+02  0.13573494187E+03  0.59385441297E+00  0.14268568238E+03  0.00000000000E+00 0.  1.
         13    1    4    4    0    0 -0.11832153761E+03  0.11373187331E+03  0.57948073377E+02  0.17404856931E+03  0.00000000000E+00 0. -1.
         -2    1    1    2    0  502 -0.15767582328E+02 -0.25380778097E+02  0.44858116376E+02  0.53898526455E+02  0.00000000000E+00 0.  1.
<scales pt_clust_5="13000.00000" pt_clust_6="13000.00000" pt_clust_7="13000.00000" pt_clust_8="13000.00000" pt_clust_9="29.87977"></scales>
<clustering>
<clus scale="   29.880">  1  9  2 -1</clus>
<clus scale="   91.190">  7  8 -1 -1</clus>
<clus scale="   92.015">  5  6 -1 -1</clus>
<clus scale="  302.873">  1  7  2 -1</clus>
<clus scale="   29.880">  1  5  2 -1</clus>
</clustering>
</event>
<event>
 9    1  0.1636528E-005  0.9561011E+02  0.7546771E-02  0.1294571E+00
         21   -1    0    0  501  502  0.00000000000E+00  0.00000000000E+00  0.27131287595E+03  0.27131287595E+03  0.00000000000E+00 0. -1.
         -1   -1    0    0    0  501 -0.00000000000E+00 -0.00000000000E+00 -0.61617436975E+02  0.61617436975E+02  0.00000000000E+00 0.  1.
         23    2    1    2    0    0 -0.18834646496E+02  0.93584926990E+01  0.24924719282E+02  0.88796196154E+02  0.82590541382E+02 0.  0.
         23    2    1    2    0    0  0.48622935081E+02  0.23785431340E+02  0.88699108603E+02  0.13823030997E+03  0.91160025053E+02 0.  0.
        -13    1    4    4    0    0 -0.21511109094E+02  0.80778127205E+01  0.53451067072E+02  0.58180713677E+02  0.00000000000E+00 0.  1.
         13    1    4    4    0    0  0.70134044175E+02  0.15707618619E+02  0.35248041531E+02  0.80049596294E+02  0.00000000000E+00 0. -1.
        -13    1    3    3    0    0 -0.43206039739E+02 -0.19346424207E+01 -0.10338591268E+02  0.44467866832E+02  0.00000000000E+00 0.  1.
         13    1    3    3    0    0  0.24371393243E+02  0.11293135120E+02  0.35263310550E+02  0.44328329321E+02  0.00000000000E+00 0. -1.
         -1    1    1    2    0  502 -0.29788288585E+02 -0.33143924039E+02  0.96071611094E+02  0.10590380680E+03  0.00000000000E+00 0.  1.
<scales pt_clust_5="13000.00000" pt_clust_6="13000.00000" pt_clust_7="13000.00000" pt_clust_8="13000.00000" pt_clust_9="44.56301"></scales>
<clustering>
<clus scale="   44.563">  1  9  2 -1</clus>
<clus scale="   82.591">  7  8 -1 -1</clus>
<clus scale="   87.478">  2  7  1 -1</clus>
<clus scale="   91.160">  5  6 -1 -1</clus>
<clus scale="   44.563">  1  5  2 -1</clus>
</clustering>
</event>
<event>
 9    1  0.1636528E-005  0.9830069E+02  0.7546771E-02  0.1287115E+00
          3   -1    0    0  502    0 -0.00000000000E+00  0.00000000000E+00  0.39809289845E+03  0.39809289845E+03  0.00000000000E+00 0. -1.
         21   -1    0    0  501  502  0.00000000000E+00 -0.00000000000E+00 -0.59876805630E+02  0.59876805630E+02  0.00000000000E+00 0. -1.
         23    2    1    2    0    0 -0.14902711964E+02 -0.35438862889E+02  0.23386791998E+03  0.25374498463E+03  0.90632827398E+02 0.  0.
         23    2    1    2    0    0 -0.48970021091E+02  0.44514315909E+02  0.85166272052E+02  0.13691918332E+03  0.84344422342E+02 0.  0.
        -11    1    3    3    0    0 -0.24706519417E+02  0.25592800714E+02  0.10402275073E+03  0.10993696475E+03  0.00000000000E+00 0.  1.
         11    1    3    3    0    0  0.98038074531E+01 -0.61031663603E+02  0.12984516925E+03  0.14380801988E+03  0.00000000000E+00 0. -1.
        -13    1    4    4    0    0 -0.28478432899E+02 -0.21956070143E+02  0.17946791156E+02  0.40189270574E+02  0.00000000000E+00 0.  1.
         13    1    4    4    0    0 -0.20491588192E+02  0.66470386051E+02  0.67219480896E+02  0.96729912749E+02  0.00000000000E+00 0. -1.
          3    1    1    2  501    0  0.63872733055E+02 -0.90754530201E+01  0.19181900786E+02  0.67305536126E+02  0.00000000000E+00 0. -1.
<scales pt_clust_5="13000.00000" pt_clust_6="13000.00000" pt_clust_7="13000.00000" pt_clust_8="13000.00000" pt_clust_9="64.51426"></scales>
<clustering>
<clus scale="   64.514">  2  9  1 -1</clus>
<clus scale="   84.344">  7  8 -1 -1</clus>
<clus scale="   90.633">  5  6 -1 -1</clus>
<clus scale="   92.535">  2  7  1 -1</clus>
<clus scale="   64.514">  2  5  1 -1</clus>
</clustering>
</event>
<event>
 9    1  0.1636528E-005  0.1362601E+03  0.7546771E-02  0.1219322E+00
         21   -1    0    0  501  502  0.00000000000E+00  0.00000000000E+00  0.71451938430E+02  0.71451938430E+02  0.00000000000E+00 0.  1.
         -3   -1    0    0    0  501 -0.00000000000E+00 -0.00000000000E+00 -0.57401274418E+03  0.57401274418E+03  0.00000000000E+00 0.  1.
         23    2    1    2    0    0  0.33690076478E+02 -0.13281433505E+03 -0.28309089122E+03  0.32753867688E+03  0.91468373311E+02 0.  0.
         23    2    1    2    0    0  0.47523774946E+02  0.58233611724E+02 -0.81888684812E+02  0.14161216984E+03  0.87741593480E+02 0.  0.
        -11    1    4    4    0    0  0.31832993883E+02  0.72454183009E+02 -0.28393487210E+02  0.84078167505E+02  0.00000000000E+00 0.  1.
         11    1    4    4    0    0  0.15690781063E+02 -0.14220571284E+02 -0.53495197602E+02  0.57534002333E+02  0.00000000000E+00 0. -1.
        -13    1    3    3    0    0  0.34297514043E+02 -0.48153151875E+01 -0.40822650375E+02  0.53534993355E+02  0.00000000000E+00 0.  1.
         13    1    3    3    0    0 -0.60743756468E+00 -0.12799901986E+03 -0.24226824084E+03  0.27400368353E+03  0.00000000000E+00 0. -1.
         -3    1    1    2    0  502 -0.81213851424E+02  0.74580723324E+02 -0.13758122972E+03  0.17631383589E+03  0.00000000000E+00 0.  1.
<scales pt_clust_5="13000.00000" pt_clust_6="13000.00000" pt_clust_7="13000.00000" pt_clust_8="13000.00000" pt_clust_9="110.26326"></scales>
<clustering>
<clus scale="   87.742">  5  6 -1 -1</clus>
<clus scale="   91.468">  7  8 -1 -1</clus>
<clus scale="  110.263">  1  9  2 -1</clus>
<clus scale="  133.787">  1  5  2 -1</clus>
<clus scale="  110.263">  1  5  2 -1</clus>
</clustering>
</event>
<event>
 9    1  0.1636528E-005  0.1106187E+03  0.7546771E-02  0.1262692E+00
         21   -1    0    0  501  502  0.00000000000E+00  0.00000000000E+00  0.15412508123E+03  0.15412508123E+03  0.00000000000E+00 0. -1.
         -3   -1    0    0    0  501 -0.00000000000E+00 -0.00000000000E+00 -0.13735741340E+03  0.13735741340E+03  0.00000000000E+00 0.  1.
         23    2    1    2    0    0 -0.26224406690E+02 -0.42121961249E+02 -0.61356758872E+02  0.12099503808E+03  0.91723324484E+02 0.  0.
         23    2    1    2    0    0 -0.32888341283E+01  0.52581471639E+02  0.36271037162E+02  0.11821758992E+03  0.99419227720E+02 0.  0.
        -11    1    4    4    0    0  0.16464663506E+02  0.76639958174E+02  0.37850848805E+02  0.87048578900E+02  0.00000000000E+00 0.  1.
         11    1    4    4    0    0 -0.19753497635E+02 -0.24058486536E+02 -0.15798116425E+01  0.31169011021E+02  0.00000000000E+00 0. -1.
        -11    1    3    3    0    0 -0.15114315176E+01 -0.60611238719E+02 -0.10539447757E+02  0.61539309740E+02  0.00000000000E+00 0. -1.
         11    1    3    3    0    0 -0.24712975172E+02  0.18489277470E+02 -0.50817311115E+02  0.59455728338E+02  0.00000000000E+00 0.  1.
         -3    1    1    2    0  502  0.29513240818E+02 -0.10459510390E+02  0.41853389541E+02  0.52269866627E+02  0.00000000000E+00 0.  1.
<scales pt_clust_5="13000.00000" pt_clust_6="13000.00000" pt_clust_7="13000.00000" pt_clust_8="13000.00000" pt_clust_9="31.31186"></scales>
<clustering>
<clus scale="   31.312">  1  9  2 -1</clus>
<clus scale="   91.723">  7  8 -1 -1</clus>
<clus scale="   99.419">  5  6 -1 -1</clus>
<clus scale="  103.757">  2  7  1 -1</clus>
<clus scale="   31.312">  1  5  2 -1</clus>
</clustering>
</event>
<event>
 9    1  0.1636528E-005  0.1058370E+03  0.7546771E-02  0.1268785E+00
         21   -1    0    0  501  502  0.00000000000E+00  0.00000000000E+00  0.15354077907E+03  0.15354077907E+03  0.00000000000E+00 0. -1.
          1   -1    0    0  502    0 -0.00000000000E+00 -0.00000000000E+00 -0.17768249167E+03  0.17768249167E+03  0.00000000000E+00 0. -1.
         23    2    1    2    0    0  0.56750612309E+02 -0.28010555985E+02 -0.10851663568E+03  0.15506473671E+03  0.90906485506E+02 0.  0.
         23    2    1    2    0    0 -0.32822445000E+02  0.76493476494E+01  0.11693363162E+02  0.96976811723E+02  0.90177280146E+02 0.  0.
        -11    1    3    3    0    0 -0.22394685482E+02  0.79883680769E+01 -0.21572632059E+02  0.32104741337E+02  0.00000000000E+00 0.  1.
         11    1    3    3    0    0  0.79145297791E+02 -0.35998924062E+02 -0.86944003626E+02  0.12295999537E+03  0.00000000000E+00 0. -1.
        -13    1    4    4    0    0  0.18678306684E+02  0.24251761750E+02 -0.17739118649E+02  0.35379420840E+02  0.00000000000E+00 0.  1.
         13    1    4    4    0    0 -0.51500751684E+02 -0.16602414100E+02  0.29432481811E+02  0.61597390883E+02  0.00000000000E+00 0. -1.
          1    1    1    2  501    0 -0.23928167309E+02  0.20361208336E+02  0.72681559918E+02  0.79181722309E+02  0.00000000000E+00 0. -1.
<scales pt_clust_5="13000.00000" pt_clust_6="13000.00000" pt_clust_7="13000.00000" pt_clust_8="13000.00000" pt_clust_9="31.41872"></scales>
<clustering>
<clus scale="   31.419">  1  9  2 -1</clus>
<clus scale="   90.177">  7  8 -1 -1</clus>
<clus scale="   90.906">  5  6 -1 -1</clus>
<clus scale="  105.211">  1  7  2 -1</clus>
<clus scale="   31.419">  1  5  2 -1</clus>
</clustering>
</event>
<event>
 9    1  0.1636528E-005  0.1032130E+03  0.7546771E-02  0.1274005E+00
         21   -1    0    0  501  502  0.00000000000E+00  0.00000000000E+00  0.97308492232E+02  0.97308492232E+02  0.00000000000E+00 0.  1.
          1   -1    0    0  502    0 -0.00000000000E+00 -0.00000000000E+00 -0.38816551742E+03  0.38816551742E+03  0.00000000000E+00 0.  1.
         23    2    1    2    0    0  0.24552274864E+01  0.55477728780E+02 -0.26273356124E+03  0.28414484201E+03  0.92873895724E+02 0.  0.
         23    2    1    2    0    0 -0.33906397015E+02 -0.16471352807E+02 -0.81091836504E+02  0.12841605550E+03  0.92162075387E+02 0.  0.
        -11    1    4    4    0    0 -0.18754582396E+02 -0.37236395339E+02  0.16981194169E+01  0.41727294523E+02  0.00000000000E+00 0. -1.
         11    1    4    4    0    0 -0.15151814619E+02  0.20765042532E+02 -0.82789955921E+02  0.86688760973E+02  0.00000000000E+00 0.  1.
        -13    1    3    3    0    0  0.35510586864E+02  0.63197601921E+02 -0.20133422991E+03  0.21398694072E+03  0.00000000000E+00 0.  1.
         13    1    3    3    0    0 -0.33055359378E+02 -0.77198731409E+01 -0.61399331332E+02  0.70157901287E+02  0.00000000000E+00 0. -1.
          1    1    1    2  501    0  0.31451169529E+02 -0.39006375973E+02  0.52968372556E+02  0.72913112144E+02  0.00000000000E+00 0.  1.
<scales pt_clust_5="13000.00000" pt_clust_6="13000.00000" pt_clust_7="13000.00000" pt_clust_8="13000.00000" pt_clust_9="50.10662"></scales>
<clustering>
<clus scale="   50.107">  1  9  2 -1</clus>
<clus scale="   92.162">  5  6 -1 -1</clus>
<clus scale="   92.874">  7  8 -1 -1</clus>
<clus scale="  102.573">  1  5  2 -1</clus>
<clus scale="   50.107">  1  5  2 -1</clus>
</clustering>
</event>
<event>
 9    1  0.1636528E-005  0.1530907E+03  0.7546771E-02  0.1196827E+00
         21   -1    0    0  501  502  0.00000000000E+00  0.00000000000E+00  0.38690747723E+03  0.38690747723E+03  0.00000000000E+00 0.  1.
         -1   -1    0    0    0  501 -0.00000000000E+00 -0.00000000000E+00 -0.13321549903E+03  0.13321549903E+03  0.00000000000E+00 0.  1.
         23    2    1    2    0    0  0.12598427391E+03  0.17402973441E+02  0.40265430220E+01  0.15599917784E+03  0.90247602079E+02 0.  0.
         23    2    1    2    0    0 -0.11950764634E+03  0.29262093588E+02  0.52929013443E+02  0.16182502230E+03  0.90815801066E+02 0.  0.
        -13    1    3    3    0    0  0.81082225680E+02 -0.33793516261E+02  0.30027857185E+01  0.87893946234E+02  0.00000000000E+00 0.  1.
         13    1    3    3    0    0  0.44902048228E+02  0.51196489703E+02  0.10237573035E+01  0.68105231605E+02  0.00000000000E+00 0. -1.
        -13    1    4    4    0    0 -0.60569719474E+02  0.38713803313E+02 -0.12823253547E+02  0.73019759761E+02  0.00000000000E+00 0.  1.
         13    1    4    4    0    0 -0.58937926863E+02 -0.94517097247E+01  0.65752266990E+02  0.88805262535E+02  0.00000000000E+00 0. -1.
         -1    1    1    2    0  502 -0.64766275724E+01 -0.46665067030E+02  0.19673642174E+03  0.20229877613E+03  0.00000000000E+00 0.  1.
<scales pt_clust_5="13000.00000" pt_clust_6="13000.00000" pt_clust_7="13000.00000" pt_clust_8="13000.00000" pt_clust_9="47.11237"></scales>
<clustering>
<clus scale="   47.112">  1  9  2 -1</clus>
<clus scale="   90.248">  5  6 -1 -1</clus>
<clus scale="   90.816">  7  8 -1 -1</clus>
<clus scale="  152.754">  2  5  1 -1</clus>
<clus scale="   47.112">  1  5  2 -1</clus>
</clustering>
</event>
<event>
 9    1  0.1636528E-005  0.1233011E+03  0.7546771E-02  0.1239810E+00
         21   -1    0    0  501  502  0.00000000000E+00  0.00000000000E+00  0.19443959564E+03  0.19443959564E+03  0.00000000000E+00 0.  1.
         -4   -1    0    0    0  501 -0.00000000000E+00 -0.00000000000E+00 -0.15246975476E+03  0.15246975476E+03  0.00000000000E+00 0.  1.
         23    2    1    2    0    0 -0.49659225135E+02 -0.95309118842E+02 -0.34042914133E+02  0.14952521530E+03  0.98229339972E+02 0.  0.
         23    2    1    2    0    0 -0.93774566918E+01  0.42144401243E+02  0.30985861351E+02  0.10606470589E+03  0.91790582205E+02 0.  0.
        -13    1    4    4    0    0 -0.32396682986E+02 -0.17933645904E+02  0.94088493644E+01  0.38205852565E+02  0.00000000000E+00 0.  1.
         13    1    4    4    0    0  0.23019226294E+02  0.60078047147E+02  0.21577011987E+02  0.67858853324E+02  0.00000000000E+00 0. -1.
        -13    1    3    3    0    0  0.21583613570E+02  0.48747346815E+01 -0.99168323410E+01  0.24247865404E+02  0.00000000000E+00 0. -1.
         13    1    3    3    0    0 -0.71242838705E+02 -0.10018385352E+03 -0.24126081792E+02  0.12527734989E+03  0.00000000000E+00 0.  1.
         -4    1    1    2    0  502  0.59036681827E+02  0.53164717599E+02  0.45026893659E+02  0.91319429209E+02  0.00000000000E+00 0.  1.
<scales pt_clust_5="13000.00000" pt_clust_6="13000.00000" pt_clust_7="13000.00000" pt_clust_8="13000.00000" pt_clust_9="79.44694"></scales>
<clustering>
<clus scale="   79.447">  1  9  2 -1</clus>
<clus scale="   91.791">  5  6 -1 -1</clus>
<clus scale="   98.229">  7  8 -1 -1</clus>
<clus scale="  118.236">  1  5  2 -1</clus>
<clus scale="   79.447">  1  5  2 -1</clus>
</clustering>
</event>
<event>
 9    1  0.1636528E-005  0.1428550E+03  0.7546771E-02  0.1216719E+00
         21   -1    0    0  501  502  0.00000000000E+00  0.00000000000E+00  0.90846804424E+02  0.90846804424E+02  0.00000000000E+00 0. -1.
          2   -1    0    0  502    0 -0.00000000000E+00 -0.00000000000E+00 -0.84829943585E+03  0.84829943585E+03  0.00000000000E+00 0. -1.
         23    2    1    2    0    0 -0.44868180614E+02  0.24941827122E+02 -0.33116170771E+03  0.35520306803E+03  0.11775353293E+03 0.  0.
         23    2    1    2    0    0  0.45834461501E+02 -0.10717642061E+03 -0.46849703624E+03  0.49150498750E+03  0.92195969401E+02 0.  0.
        -11    1    4    4    0    0  0.94146889202E+01 -0.11152350753E+03 -0.34928321369E+03  0.36677635211E+03  0.00000000000E+00 0. -1.
         11    1    4    4    0    0  0.36419772580E+02  0.43470869205E+01 -0.11921382255E+03  0.12472863539E+03  0.00000000000E+00 0.  1.
        -11    1    3    3    0    0  0.19866372592E+02  0.43861825389E+02 -0.66618759722E+02  0.82198489240E+02  0.00000000000E+00 0.  1.
         11    1    3    3    0    0 -0.64734553205E+02 -0.18919998267E+02 -0.26454294799E+03  0.27300457879E+03  0.00000000000E+00 0. -1.
          2    1    1    2  501    0 -0.96628088674E+00  0.82234593487E+02  0.42206112520E+02  0.92438184744E+02  0.00000000000E+00 0. -1.
<scales pt_clust_5="13000.00000" pt_clust_6="13000.00000" pt_clust_7="13000.00000" pt_clust_8="13000.00000" pt_clust_9="82.24027"></scales>
<clustering>
<clus scale="   82.240">  1  9  2 -1</clus>
<clus scale="   92.196">  5  6 -1 -1</clus>
<clus scale="  117.754">  7  8 -1 -1</clus>
<clus scale="  122.645">  1  5  2 -1</clus>
<clus scale="   82.240">  1  5  2 -1</clus>
</clustering>
</event>
<event>
 9    1  0.1636528E-005  0.1204071E+03  0.7546771E-02  0.1242592E+00
          3   -1    0    0  502    0 -0.00000000000E+00  0.00000000000E+00  0.46386722269E+03  0.46386722269E+03  0.00000000000E+00 0. -1.
         21   -1    0    0  501  502  0.00000000000E+00 -0.00000000000E+00 -0.86522698885E+02  0.86522698885E+02  0.00000000000E+00 0.  1.
         23    2    1    2    0    0 -0.64951376511E+02  0.17350579633E+00  0.20437306707E+03  0.23297309510E+03  0.91046148080E+02 0.  0.
         23    2    1    2    0    0  0.13638899445E+03 -0.34624478181E+01  0.44260622400E+02  0.17017339107E+03  0.91575291316E+02 0.  0.
        -11    1    4    4    0    0  0.50800831825E+02 -0.99014315759E+01 -0.27218212874E+02  0.58477294511E+02  0.00000000000E+00 0.  1.
         11    1    4    4    0    0  0.85588162628E+02  0.64389837578E+01  0.71478835274E+02  0.11169609656E+03  0.00000000000E+00 0. -1.
        -11    1    3    3    0    0  0.16864237421E+02  0.19415430628E+02  0.30823517805E+02  0.40142878573E+02  0.00000000000E+00 0.  1.
         11    1    3    3    0    0 -0.81815613932E+02 -0.19241924831E+02  0.17354954926E+03  0.19283021652E+03  0.00000000000E+00 0. -1.
          3    1    1    2  501    0 -0.71437617941E+02  0.32889420217E+01  0.12871083434E+03  0.14724343541E+03  0.00000000000E+00 0. -1.
<scales pt_clust_5="13000.00000" pt_clust_6="13000.00000" pt_clust_7="13000.00000" pt_clust_8="13000.00000" pt_clust_9="71.51332"></scales>
<clustering>
<clus scale="   71.513">  2  9  1 -1</clus>
<clus scale="   91.046">  7  8 -1 -1</clus>
<clus scale="   91.575">  5  6 -1 -1</clus>
<clus scale="  120.005">  1  7  2 -1</clus>
<clus scale="   71.513">  2  5  1 -1</clus>
</clustering>
</event>
<event>
 9    1  0.1636528E-005  0.1180208E+03  0.7546771E-02  0.1249321E+00
          2   -1    0    0  502    0 -0.00000000000E+00  0.00000000000E+00  0.45482374348E+03  0.45482374348E+03  0.00000000000E+00 0. -1.
         21   -1    0    0  501  502  0.00000000000E+00 -0.00000000000E+00 -0.63044680375E+02  0.63044680375E+02  0.00000000000E+00 0. -1.
         23    2    1    2    0    0  0.58705973117E+01  0.68224411895E+02  0.31591205944E+03  0.33609285731E+03  0.92026871840E+02 0.  0.
         23    2    1    2    0    0  0.98283813431E+01 -0.92084799224E+02  0.86154703902E+02  0.15141749035E+03  0.83237107412E+02 0.  0.
        -11    1    3    3    0    0  0.32017353484E+02  0.45926456420E+02  0.28309037712E+03  0.28857323497E+03  0.00000000000E+00 0.  1.
         11    1    3    3    0    0 -0.26146756173E+02  0.22297955474E+02  0.32821682327E+02  0.47519622341E+02  0.00000000000E+00 0. -1.
        -13    1    4    4    0    0 -0.30046215989E+02 -0.39097982804E+02  0.65450452021E+02  0.81946256927E+02  0.00000000000E+00 0.  1.
         13    1    4    4    0    0  0.39874597332E+02 -0.52986816420E+02  0.20704251880E+02  0.69471233419E+02  0.00000000000E+00 0. -1.
          2    1    1    2  501    0 -0.15698978655E+02  0.23860387329E+02 -0.10287700241E+02  0.30358076200E+02  0.00000000000E+00 0. -1.
<scales pt_clust_5="13000.00000" pt_clust_6="13000.00000" pt_clust_7="13000.00000" pt_clust_8="13000.00000" pt_clust_9="28.56179"></scales>
<clustering>
<clus scale="   28.562">  2  9  1 -1</clus>
<clus scale="   83.237">  7  8 -1 -1</clus>
<clus scale="   92.027">  5  6 -1 -1</clus>
<clus scale="  111.303">  2  7  1 -1</clus>
<clus scale="   28.562">  2  5  1 -1</clus>
</clustering>
</event>
<event>
 9    1  0.1636528E-005  0.1442116E+03  0.7546771E-02  0.1211221E+00
          1   -1    0    0  502    0 -0.00000000000E+00  0.00000000000E+00  0.21149029409E+03  0.21149029409E+03  0.00000000000E+00 0. -1.
         21   -1    0    0  501  502  0.00000000000E+00 -0.00000000000E+00 -0.16488678061E+03  0.16488678061E+03  0.00000000000E+00 0. -1.
         23    2    1    2    0    0 -0.63620577257E+02 -0.18111572901E+02  0.31695932498E+02  0.12248922137E+03  0.98098778234E+02 0.  0.
         23    2    1    2    0    0  0.13707590944E+03  0.27600623623E+02  0.38283405345E+01  0.17899808447E+03  0.11168732551E+03 0.  0.
        -11    1    3    3    0    0 -0.27561765745E+01  0.33801070494E+02 -0.53478417570E+01  0.34332321322E+02  0.00000000000E+00 0.  1.
         11    1    3    3    0    0 -0.60864400682E+02 -0.51912643396E+02  0.37043774255E+02  0.88156900046E+02  0.00000000000E+00 0. -1.
        -11    1    4    4    0    0  0.97257217321E+02  0.67041353715E+02 -0.16724122404E+02  0.11930299954E+03  0.00000000000E+00 0. -1.
         11    1    4    4    0    0  0.39818692120E+02 -0.39440730091E+02  0.20552462938E+02  0.59695084933E+02  0.00000000000E+00 0.  1.
          1    1    1    2  501    0 -0.73455332185E+02 -0.94890507223E+01  0.11079240450E+02  0.74889768854E+02  0.00000000000E+00 0. -1.
<scales pt_clust_5="13000.00000" pt_clust_6="13000.00000" pt_clust_7="13000.00000" pt_clust_8="13000.00000" pt_clust_9="74.06574"></scales>
<clustering>
<clus scale="   74.066">  2  9  1 -1</clus>
<clus scale="   98.099">  5  6 -1 -1</clus>
<clus scale="  111.687">  7  8 -1 -1</clus>
<clus scale="  133.964">  1  5  2 -1</clus>
<clus scale="   74.066">  2  5  1 -1</clus>
</clustering>
</event>
<event>
 9    1  0.1636528E-005  0.1294981E+03  0.7546771E-02  0.1228206E+00
          3   -1    0    0  502    0 -0.00000000000E+00  0.00000000000E+00  0.43566553179E+03  0.43566553179E+03  0.00000000000E+00 0. -1.
         21   -1    0    0  501  502  0.00000000000E+00 -0.00000000000E+00 -0.59933541153E+02  0.59933541153E+02  0.00000000000E+00 0.  1.
         23    2    1    2    0    0 -0.65869885045E+02 -0.64450162261E+02  0.29707551508E+03  0.32406621946E+03  0.90952667702E+02 0.  0.
         23    2    1    2    0    0  0.51127698664E+02  0.78794953747E+02  0.74738265346E+02  0.15059347734E+03  0.90938994949E+02 0.  0.
        -13    1    4    4    0    0  0.70767358064E+02  0.30977768701E+02  0.56767705130E+02  0.95865601061E+02  0.00000000000E+00 0. -1.
         13    1    4    4    0    0 -0.19639659400E+02  0.47817185046E+02  0.17970560216E+02  0.54727876275E+02  0.00000000000E+00 0.  1.
        -13    1    3    3    0    0 -0.43097554328E+02 -0.30043969872E+02  0.26918595756E+03  0.27426468796E+03  0.00000000000E+00 0. -1.
         13    1    3    3    0    0 -0.22772330717E+02 -0.34406192389E+02  0.27889557526E+02  0.49801531503E+02  0.00000000000E+00 0.  1.
          3    1    1    2  501    0  0.14742186381E+02 -0.14344791486E+02  0.39182102026E+01  0.20939376143E+02  0.00000000000E+00 0. -1.
<scales pt_clust_5="13000.00000" pt_clust_6="13000.00000" pt_clust_7="13000.00000" pt_clust_8="13000.00000" pt_clust_9="20.56952"></scales>
<clustering>
<clus scale="   20.570">  2  9  1 -1</clus>
<clus scale="   90.939">  5  6 -1 -1</clus>
<clus scale="   90.953">  7  8 -1 -1</clus>
<clus scale="  129.489">  2  5  1 -1</clus>
<clus scale="   20.570">  2  5  1 -1</clus>
</clustering>
</event>
<event>
 9    1  0.1636528E-005  0.1227606E+03  0.7546771E-02  0.1239009E+00
          1   -1    0    0  502    0 -0.00000000000E+00  0.00000000000E+00  0.82955066873E+03  0.82955066873E+03  0.00000000000E+00 0. -1.
         21   -1    0    0  501  502  0.00000000000E+00 -0.00000000000E+00 -0.18513289310E+03  0.18513289310E+03  0.00000000000E+00 0. -1.
         23    2    1    2    0    0  0.67077300840E+02 -0.45165212838E+02  0.65591473381E+03  0.66708349005E+03  0.90757831176E+02 0.  0.
         23    2    1    2    0    0 -0.81083779612E+02  0.26191004400E+02  0.14362096382E+03  0.19069955631E+03  0.92080353503E+02 0.  0.
        -11    1    4    4    0    0 -0.11375633465E+02  0.24867621735E+02 -0.38138015270E+01  0.27610663331E+02  0.00000000000E+00 0.  1.
         11    1    4    4    0    0 -0.69708146147E+02  0.13233826646E+01  0.14743476534E+03  0.16308889298E+03  0.00000000000E+00 0. -1.
        -13    1    3    3    0    0  0.88550430925E+02 -0.46490691767E+02  0.54541934758E+03  0.55451314498E+03  0.00000000000E+00 0.  1.
         13    1    3    3    0    0 -0.21473130085E+02  0.13254789292E+01  0.11049538623E+03  0.11257034507E+03  0.00000000000E+00 0. -1.
          1    1    1    2  501    0  0.14006478772E+02  0.18974208438E+02 -0.15511792200E+03  0.15690051548E+03  0.00000000000E+00 0. -1.
<scales pt_clust_5="13000.00000" pt_clust_6="13000.00000" pt_clust_7="13000.00000" pt_clust_8="13000.00000" pt_clust_9="23.58394"></scales>
<clustering>
<clus scale="   23.584">  2  9  1 -1</clus>
<clus scale="   90.758">  7  8 -1 -1</clus>
<clus scale="   92.080">  5  6 -1 -1</clus>
<clus scale="  121.772">  1  7  2 -1</clus>
<clus scale="   23.584">  2  5  1 -1</clus>
</clustering>
</event>
<event>
 9    1  0.1636528E-005  0.1140119E+03  0.7546771E-02  0.1263949E+00
         21   -1    0    0  501  502  0.00000000000E+00  0.00000000000E+00  0.61570372809E+02  0.61570372809E+02  0.00000000000E+00 0.  1.
          4   -1    0    0  502    0 -0.00000000000E+00 -0.00000000000E+00 -0.22998744416E+03  0.22998744416E+03  0.00000000000E+00 0. -1.
         23    2    1    2    0    0  0.22813782999E+02  0.16812139384E+02 -0.91815411012E+02  0.13176796437E+03  0.90164349987E+02 0.  0.
         23    2    1    2    0    0 -0.75258668586E+01  0.89453754770E+00 -0.46451794169E+02  0.12162886181E+03  0.11215334135E+03 0.  0.
        -11    1    3    3    0    0 -0.34072352846E+02  0.17859836449E+01 -0.45593394605E+02  0.56946225491E+02  0.00000000000E+00 0. -1.
         11    1    3    3    0    0  0.56886135845E+02  0.15026155739E+02 -0.46222016407E+02  0.74821738876E+02  0.00000000000E+00 0.  1.
        -13    1    4    4    0    0  0.20868492112E+02 -0.10912843038E+02  0.30631649128E+02  0.38637831648E+02  0.00000000000E+00 0.  1.
         13    1    4    4    0    0 -0.28394358970E+02  0.11807380586E+02 -0.77083443296E+02  0.82991030166E+02  0.00000000000E+00 0. -1.
          4    1    1    2  501    0 -0.15287916140E+02 -0.17706676932E+02 -0.30149866167E+02  0.38160990786E+02  0.00000000000E+00 0. -1.
<scales pt_clust_5="13000.00000" pt_clust_6="13000.00000" pt_clust_7="13000.00000" pt_clust_8="13000.00000" pt_clust_9="23.39332"></scales>
<clustering>
<clus scale="   23.393">  1  9  2 -1</clus>
<clus scale="   90.164">  5  6 -1 -1</clus>
<clus scale="   92.466">  2  5  1 -1</clus>
<clus scale="  112.153">  7  8 -1 -1</clus>
<clus scale="   23.393">  1  5  2 -1</clus>
</clustering>
</event>
<event>
 9    1  0.1636528E-005  0.2203929E+03  0.7546771E-02  0.1133749E+00
         21   -1    0    0  501  502  0.00000000000E+00  0.00000000000E+00  0.45184703977E+03  0.45184703977E+03  0.00000000000E+00 0.  1.
         -3   -1    0    0    0  501 -0.00000000000E+00 -0.00000000000E+00 -0.15098648810E+03  0.15098648810E+03  0.00000000000E+00 0.  1.
         23    2    1    2    0    0 -0.19760039239E+03 -0.42484830773E+02  0.30263492623E+01  0.22260341182E+03  0.93232206034E+02 0.  0.
         23    2    1    2    0    0  0.18469783382E+03  0.59317701369E+02  0.26117697841E+03  0.33787951250E+03  0.91199075680E+02 0.  0.
        -11    1    4    4    0    0  0.99311570877E+02 -0.89880420961E+01  0.16214520360E+03  0.19035398620E+03  0.00000000000E+00 0. -1.
         11    1    4    4    0    0  0.85386262940E+02  0.68305743465E+02  0.99031774805E+02  0.14752552630E+03  0.00000000000E+00 0.  1.
        -13    1    3    3    0    0 -0.13701806356E+03 -0.70241930299E+02  0.15695022880E+02  0.15477148400E+03  0.00000000000E+00 0.  1.
         13    1    3    3    0    0 -0.60582328831E+02  0.27757099526E+02 -0.12668673617E+02  0.67831927821E+02  0.00000000000E+00 0. -1.
         -3    1    1    2    0  502  0.12902558578E+02 -0.16832870596E+02  0.36657223997E+02  0.42350603556E+02  0.00000000000E+00 0.  1.
<scales pt_clust_5="13000.00000" pt_clust_6="13000.00000" pt_clust_7="13000.00000" pt_clust_8="13000.00000" pt_clust_9="21.20900"></scales>
<clustering>
<clus scale="   21.209">  1  9  2 -1</clus>
<clus scale="   91.199">  5  6 -1 -1</clus>
<clus scale="   93.232">  7  8 -1 -1</clus>
<clus scale="  219.541">  1  5  2 -1</clus>
<clus scale="   21.209">  1  5  2 -1</clus>
</clustering>
</event>
<event>
 9    1  0.1636528E-005  0.1493885E+03  0.7546771E-02  0.1203186E+00
         21   -1    0    0  501  502  0.00000000000E+00  0.00000000000E+00  0.79717143910E+02  0.79717143910E+02  0.00000000000E+00 0. -1.
          1   -1    0    0  502    0 -0.00000000000E+00 -0.00000000000E+00 -0.66929434928E+03  0.66929434928E+03  0.00000000000E+00 0. -1.
         23    2    1    2    0    0 -0.90594996969E+02 -0.75789694839E+02 -0.46769232054E+03  0.49121098401E+03  0.92739381107E+02 0.  0.
         23    2    1    2    0    0  0.10352216548E+03  0.53883265475E+02 -0.15839930653E+03  0.21329987632E+03  0.82378710141E+02 0.  0.
        -11    1    4    4    0    0 -0.99937621373E+01  0.17853397376E+02 -0.93024707084E+01  0.22475654402E+02  0.00000000000E+00 0.  1.
         11    1    4    4    0    0  0.11351592762E+03  0.36029868099E+02 -0.14909683582E+03  0.19082422192E+03  0.00000000000E+00 0. -1.
        -13    1    3    3    0    0 -0.24387982114E+02 -0.76423075554E+02 -0.30937776216E+03  0.31960891707E+03  0.00000000000E+00 0. -1.
         13    1    3    3    0    0 -0.66207014855E+02  0.63338071527E+00 -0.15831455838E+03  0.17160206695E+03  0.00000000000E+00 0.  1.
          1    1    1    2  501    0 -0.12927168510E+02  0.21906429363E+02  0.36514421695E+02  0.44500632859E+02  0.00000000000E+00 0. -1.
<scales pt_clust_5="13000.00000" pt_clust_6="13000.00000" pt_clust_7="13000.00000" pt_clust_8="13000.00000" pt_clust_9="25.43626"></scales>
<clustering>
<clus scale="   25.436">  1  9  2 -1</clus>
<clus scale="   82.379">  5  6 -1 -1</clus>
<clus scale="   92.739">  7  8 -1 -1</clus>
<clus scale="  143.187">  1  5  2 -1</clus>
<clus scale="   25.436">  1  5  2 -1</clus>
</clustering>
</event>
<event>
 9    1  0.1636528E-005  0.9299713E+02  0.7546771E-02  0.1295972E+00
          3   -1    0    0  502    0 -0.00000000000E+00  0.00000000000E+00  0.21154696863E+03  0.21154696863E+03  0.00000000000E+00 0. -1.
         21   -1    0    0  501  502  0.00000000000E+00 -0.00000000000E+00 -0.13452047399E+03  0.13452047399E+03  0.00000000000E+00 0.  1.
         23    2    1    2    0    0  0.18231862666E+02 -0.12739100598E+02  0.16864269569E+03  0.19265220634E+03  0.90442403191E+02 0.  0.
         23    2    1    2    0    0 -0.13640417526E+02 -0.15972608599E+02 -0.62317841593E+02  0.11213766997E+03  0.90830382750E+02 0.  0.
        -11    1    3    3    0    0 -0.11811087630E+02 -0.23670251202E+02  0.15607484688E+03  0.15830079094E+03  0.00000000000E+00 0.  1.
         11    1    3    3    0    0  0.30042950296E+02  0.10931150604E+02  0.12567848813E+02  0.34351415397E+02  0.00000000000E+00 0. -1.
        -13    1    4    4    0    0 -0.12636894682E+02  0.33932967443E+02 -0.48158456550E+02  0.60252587695E+02  0.00000000000E+00 0.  1.
         13    1    4    4    0    0 -0.10035228435E+01 -0.49905576043E+02 -0.14159385043E+02  0.51885082278E+02  0.00000000000E+00 0. -1.
          3    1    1    2  501    0 -0.45914451402E+01  0.28711709197E+02 -0.29298359462E+02  0.41277566312E+02  0.00000000000E+00 0. -1.
<scales pt_clust_5="13000.00000" pt_clust_6="13000.00000" pt_clust_7="13000.00000" pt_clust_8="13000.00000" pt_clust_9="29.07651"></scales>
<clustering>
<clus scale="   29.077">  2  9  1 -1</clus>
<clus scale="   90.442">  5  6 -1 -1</clus>
<clus scale="   90.830">  7  8 -1 -1</clus>
<clus scale="   92.618">  1  5  2 -1</clus>
<clus scale="   29.077">  2  5  1 -1</clus>
</clustering>
</event>
<event>
 9    1  0.1636528E-005  0.2330206E+03  0.7546771E-02  0.1154267E+00
         21   -1    0    0  501  502  0.00000000000E+00  0.00000000000E+00  0.19131914650E+03  0.19131914650E+03  0.00000000000E+00 0.  1.
         -1   -1    0    0    0  501 -0.00000000000E+00 -0.00000000000E+00 -0.59056394033E+03  0.59056394033E+03  0.00000000000E+00 0.  1.
         23    2    1    2    0    0  0.61250400154E+02  0.18990170702E+02 -0.16335880550E+03  0.19899386483E+03  0.93809492073E+02 0.  0.
         23    2    1    2    0    0  0.12586286909E+03  0.10976041299E+03 -0.29205772671E+03  0.34891624809E+03  0.92498769602E+02 0.  0.
        -11    1    3    3    0    0  0.59923196341E+02  0.40701973445E+02 -0.62066652864E+02  0.95392397495E+02  0.00000000000E+00 0.  1.
         11    1    3    3    0    0  0.13272038132E+01 -0.21711802743E+02 -0.10129215263E+03  0.10360146733E+03  0.00000000000E+00 0. -1.
        -13    1    4    4    0    0  0.55069733712E+02 -0.57309653060E+01 -0.80310825642E+02  0.97546646533E+02  0.00000000000E+00 0.  1.
         13    1    4    4    0    0  0.70793135377E+02  0.11549137830E+03 -0.21174690107E+03  0.25136960156E+03  0.00000000000E+00 0. -1.
         -1    1    1    2    0  502 -0.18711326924E+03 -0.12875058369E+03  0.56171738373E+02  0.23397297391E+03  0.00000000000E+00 0.  1.
<scales pt_clust_5="13000.00000" pt_clust_6="13000.00000" pt_clust_7="13000.00000" pt_clust_8="13000.00000" pt_clust_9="213.87518"></scales>
<clustering>
<clus scale="   92.499">  7  8 -1 -1</clus>
<clus scale="   93.809">  5  6 -1 -1</clus>
<clus scale="  113.633">  2  5  1 -1</clus>
<clus scale="  213.875">  1  9  2 -1</clus>
<clus scale="  213.875">  1  5  2 -1</clus>
</clustering>
</event>
<event>
 9    1  0.1636528E-005  0.1099207E+03  0.7546771E-02  0.1263754E+00
         21   -1    0    0  501  502  0.00000000000E+00  0.00000000000E+00  0.41955481929E+02  0.41955481929E+02  0.00000000000E+00 0. -1.
          1   -1    0    0  502    0 -0.00000000000E+00 -0.00000000000E+00 -0.75712558359E+03  0.75712558359E+03  0.00000000000E+00 0. -1.
         23    2    1    2    0    0  0.22409232504E+02 -0.34106585109E+02 -0.51073919217E+03  0.52181105363E+03  0.98827225126E+02 0.  0.
         23    2    1    2    0    0 -0.76497172246E+02  0.31685649464E+02 -0.17886712196E+03  0.21739619968E+03  0.91716206712E+02 0.  0.
        -11    1    4    4    0    0 -0.82846367612E+01  0.22287313855E+02  0.20040071876E+01  0.23861592778E+02  0.00000000000E+00 0.  1.
         11    1    4    4    0    0 -0.68212535485E+02  0.93983356090E+01 -0.18087112915E+03  0.19353460690E+03  0.00000000000E+00 0. -1.
        -13    1    3    3    0    0 -0.31966392252E+02 -0.40543405367E+02 -0.22184163926E+03  0.22777034676E+03  0.00000000000E+00 0. -1.
         13    1    3    3    0    0  0.54375624756E+02  0.64368202585E+01 -0.28889755291E+03  0.29404070687E+03  0.00000000000E+00 0.  1.
          1    1    1    2  501    0  0.54087939742E+02  0.24209356453E+01 -0.25563787526E+02  0.59873812202E+02  0.00000000000E+00 0. -1.
<scales pt_clust_5="13000.00000" pt_clust_6="13000.00000" pt_clust_7="13000.00000" pt_clust_8="13000.00000" pt_clust_9="54.14209"></scales>
<clustering>
<clus scale="   54.142">  1  9  2 -1</clus>
<clus scale="   91.716">  5  6 -1 -1</clus>
<clus scale="   98.827">  7  8 -1 -1</clus>
<clus scale="  103.574">  1  5  2 -1</clus>
<clus scale="   54.142">  1  5  2 -1</clus>
</clustering>
</event>
<event>
 9    1  0.1636528E-005  0.1122306E+03  0.7546771E-02  0.1257510E+00
         -1   -1    0    0    0  501 -0.00000000000E+00  0.00000000000E+00  0.39183383624E+03  0.39183383624E+03  0.00000000000E+00 0.  1.
         21   -1    0    0  501  502  0.00000000000E+00 -0.00000000000E+00 -0.15011256743E+03  0.15011256743E+03  0.00000000000E+00 0. -1.
         23    2    1    2    0    0  0.33039661303E+01  0.59385189632E+02  0.31250215490E+03  0.33150845312E+03  0.93288481241E+02 0.  0.
         23    2    1    2    0    0  0.23591412689E+02 -0.80594927315E+02  0.87565889191E+01  0.12383873403E+03  0.90593913338E+02 0.  0.
        -11    1    3    3    0    0 -0.12335394633E+01  0.83702515155E+02  0.21014744450E+03  0.22620694307E+03  0.00000000000E+00 0.  1.
         11    1    3    3    0    0  0.45375055936E+01 -0.24317325523E+02  0.10235471040E+03  0.10530151005E+03  0.00000000000E+00 0. -1.
        -13    1    4    4    0    0  0.12670175891E+02 -0.35291825463E+02 -0.41072171591E+02  0.55614472764E+02  0.00000000000E+00 0. -1.
         13    1    4    4    0    0  0.10921236798E+02 -0.45303101852E+02  0.49828760510E+02  0.68224261261E+02  0.00000000000E+00 0.  1.
         -1    1    1    2    0  502 -0.26895378819E+02  0.21209737683E+02 -0.79537475007E+02  0.86599216537E+02  0.00000000000E+00 0.  1.
<scales pt_clust_5="13000.00000" pt_clust_6="13000.00000" pt_clust_7="13000.00000" pt_clust_8="13000.00000" pt_clust_9="34.25222"></scales>
<clustering>
<clus scale="   34.252">  2  9  1 -1</clus>
<clus scale="   90.594">  7  8 -1 -1</clus>
<clus scale="   93.288">  5  6 -1 -1</clus>
<clus scale="  110.001">  2  7  1 -1</clus>
<clus scale="   34.252">  2  5  1 -1</clus>
</clustering>
</event>
<event>
 9    1  0.1636528E-005  0.9720993E+02  0.7546771E-02  0.1287042E+00
         21   -1    0    0  501  502  0.00000000000E+00  0.00000000000E+00  0.60786767492E+02  0.60786767492E+02  0.00000000000E+00 0. -1.
          1   -1    0    0  502    0 -0.00000000000E+00 -0.00000000000E+00 -0.41213919761E+03  0.41213919761E+03  0.00000000000E+00 0. -1.
         23    2    1    2    0    0  0.39427560748E+02 -0.55392722183E+01 -0.22437090737E+03  0.24570222411E+03  0.91880698599E+02 0.  0.
         23    2    1    2    0    0  0.28876882299E+02  0.46124099354E+02 -0.61875908699E+02  0.12450389814E+03  0.93334268644E+02 0.  0.
        -13    1    3    3    0    0 -0.23863785001E+02 -0.14880707201E+01 -0.18348198399E+02  0.30138861517E+02  0.00000000000E+00 0.  1.
         13    1    3    3    0    0  0.63291345749E+02 -0.40512014982E+01 -0.20602270897E+03  0.21556336260E+03  0.00000000000E+00 0. -1.
        -13    1    4    4    0    0 -0.27688682550E+02  0.26606441589E+01  0.31305808743E+01  0.27991832833E+02  0.00000000000E+00 0.  1.
         13    1    4    4    0    0  0.56565564849E+02  0.43463455195E+02 -0.65006489573E+02  0.96512065312E+02  0.00000000000E+00 0. -1.
          1    1    1    2  501    0 -0.68304443047E+02 -0.40584827135E+02 -0.65105614045E+02  0.10271984284E+03  0.00000000000E+00 0. -1.
<scales pt_clust_5="13000.00000" pt_clust_6="13000.00000" pt_clust_7="13000.00000" pt_clust_8="13000.00000" pt_clust_9="79.45203"></scales>
<clustering>
<clus scale="   79.452">  1  9  2 -1</clus>
<clus scale="   91.881">  5  6 -1 -1</clus>
<clus scale="   93.334">  7  8 -1 -1</clus>
<clus scale="   95.815">  2  5  1 -1</clus>
<clus scale="   79.452">  1  5  2 -1</clus>
</clustering>
</event>
<event>
 9    1  0.1636528E-005  0.9853657E+02  0.7546771E-02  0.1284907E+00
          1   -1    0    0  502    0 -0.00000000000E+00  0.00000000000E+00  0.76428670524E+02  0.76428670524E+02  0.00000000000E+00 0. -1.
         21   -1    0    0  501  502  0.00000000000E+00 -0.00000000000E+00 -0.51472582442E+03  0.51472582442E+03  0.00000000000E+00 0.  1.
         23    2    1    2    0    0 -0.22179620234E+02 -0.23557389290E+02  0.31448140542E+02  0.10317107272E+03  0.92781455898E+02 0.  0.
         23    2    1    2    0    0  0.70653381468E+01  0.48871329817E+02 -0.35447743577E+03  0.36900478402E+03  0.89844044190E+02 0.  0.
        -11    1    4    4    0    0  0.44491515327E+02  0.22367361897E+02 -0.11727388047E+03  0.12740862158E+03  0.00000000000E+00 0. -1.
         11    1    4    4    0    0 -0.37426177180E+02  0.26503967920E+02 -0.23720355530E+03  0.24159616243E+03  0.00000000000E+00 0.  1.
        -13    1    3    3    0    0 -0.47935307419E+02 -0.42688330807E+02  0.30519701350E+02  0.71074182760E+02  0.00000000000E+00 0. -1.
         13    1    3    3    0    0  0.25755687185E+02  0.19130941517E+02  0.92843919132E+00  0.32096889959E+02  0.00000000000E+00 0.  1.
          1    1    1    2  501    0  0.15114282087E+02 -0.25313940527E+02 -0.11526785867E+03  0.11897863821E+03  0.00000000000E+00 0. -1.
<scales pt_clust_5="13000.00000" pt_clust_6="13000.00000" pt_clust_7="13000.00000" pt_clust_8="13000.00000" pt_clust_9="29.48283"></scales>
<clustering>
<clus scale="   29.483">  2  9  1 -1</clus>
<clus scale="   89.844">  5  6 -1 -1</clus>
<clus scale="   92.781">  7  8 -1 -1</clus>
<clus scale="   95.776">  2  5  1 -1</clus>
<clus scale="   29.483">  2  5  1 -1</clus>
</clustering>
</event>
<event>
 9    1  0.1636528E-005  0.9724304E+02  0.7546771E-02  0.1287115E+00
          2   -1    0    0  502    0 -0.00000000000E+00  0.00000000000E+00  0.20507982891E+03  0.20507982891E+03  0.00000000000E+00 0. -1.
         21   -1    0    0  501  502  0.00000000000E+00 -0.00000000000E+00 -0.92584131692E+02  0.92584131692E+02  0.00000000000E+00 0. -1.
         23    2    1    2    0    0  0.23920750750E+02  0.18539890008E+02  0.11757679372E+03  0.15218141707E+03  0.91754844240E+02 0.  0.
         23    2    1    2    0    0  0.35469708532E+01 -0.29611361352E+02  0.27053441249E+02  0.10178263821E+03  0.93479425729E+02 0.  0.
        -11    1    3    3    0    0 -0.34212070826E+02  0.16444677864E+02  0.39087058807E+02  0.54485698917E+02  0.00000000000E+00 0.  1.
         11    1    3    3    0    0  0.58132821576E+02  0.20952121442E+01  0.78489734917E+02  0.97695718154E+02  0.00000000000E+00 0. -1.
        -13    1    4    4    0    0 -0.68735877174E+01 -0.62787421136E+02  0.20421184941E+02  0.66381708741E+02  0.00000000000E+00 0.  1.
         13    1    4    4    0    0  0.10420558571E+02  0.33176059784E+02  0.66322563076E+01  0.35400929471E+02  0.00000000000E+00 0. -1.
          2    1    1    2  501    0 -0.27467721603E+02  0.11071471344E+02 -0.32134537757E+02  0.43699905317E+02  0.00000000000E+00 0. -1.
<scales pt_clust_5="13000.00000" pt_clust_6="13000.00000" pt_clust_7="13000.00000" pt_clust_8="13000.00000" pt_clust_9="29.61508"></scales>
<clustering>
<clus scale="   29.615">  2  9  1 -1</clus>
<clus scale="   91.755">  5  6 -1 -1</clus>
<clus scale="   93.479">  7  8 -1 -1</clus>
<clus scale="   95.586">  1  5  2 -1</clus>
<clus scale="   29.615">  2  5  1 -1</clus>
</clustering>
</event>
<event>
 9    1  0.1636528E-005  0.1131007E+03  0.7546771E-02  0.1255275E+00
         21   -1    0    0  501  502  0.00000000000E+00  0.00000000000E+00  0.60450161772E+02  0.60450161772E+02  0.00000000000E+00 0.  1.
          1   -1    0    0  502    0 -0.00000000000E+00 -0.00000000000E+00 -0.52798389632E+03  0.52798389632E+03  0.00000000000E+00 0. -1.
         23    2    1    2    0    0  0.20179280138E+02 -0.57258413463E+02 -0.39053153763E+03  0.40556456709E+03  0.91005532431E+02 0.  0.
         23    2    1    2    0    0 -0.20221176692E+02  0.90595943710E+02 -0.71936895805E+02  0.14914931969E+03  0.91946079751E+02 0.  0.
        -13    1    3    3    0    0  0.24688205911E+02  0.97898530838E+01 -0.36089586808E+02  0.44808559568E+02  0.00000000000E+00 0.  1.
         13    1    3    3    0    0 -0.45089257732E+01 -0.67048266547E+02 -0.35444195082E+03  0.36075600752E+03  0.00000000000E+00 0. -1.
        -13    1    4    4    0    0 -0.31869296606E+02  0.68099103899E+02 -0.24928578310E+01  0.75228680423E+02  0.00000000000E+00 0.  1.
         13    1    4    4    0    0  0.11648119914E+02  0.22496839811E+02 -0.69444037974E+02  0.73920639264E+02  0.00000000000E+00 0. -1.
          1    1    1    2  501    0  0.41896554013E-01 -0.33337530248E+02 -0.50653011109E+01  0.33720171317E+02  0.00000000000E+00 0. -1.
<scales pt_clust_5="13000.00000" pt_clust_6="13000.00000" pt_clust_7="13000.00000" pt_clust_8="13000.00000" pt_clust_9="33.33756"></scales>
<clustering>
<clus scale="   33.338">  1  9  2 -1</clus>
<clus scale="   91.006">  5  6 -1 -1</clus>
<clus scale="   91.946">  7  8 -1 -1</clus>
<clus scale="  112.337">  2  5  1 -1</clus>
<clus scale="   33.338">  1  5  2 -1</clus>
</clustering>
</event>
<event>
 9    1  0.1636528E-005  0.1304397E+03  0.7546771E-02  0.1229149E+00
          2   -1    0    0  502    0 -0.00000000000E+00  0.00000000000E+00  0.37976620243E+03  0.37976620243E+03  0.00000000000E+00 0. -1.
         21   -1    0    0  501  502  0.00000000000E+00 -0.00000000000E+00 -0.11519589802E+03  0.11519589802E+03  0.00000000000E+00 0.  1.
         23    2    1    2    0    0  0.20567054442E+02  0.96507688080E+02  0.29764856464E+03  0.32877884395E+03  0.98813575015E+02 0.  0.
         23    2    1    2    0    0  0.24964871261E+01 -0.41569987332E+02 -0.35347074422E+01  0.99678373790E+02  0.90493025974E+02 0.  0.
        -11    1    4    4    0    0  0.16411515378E+02 -0.67869491368E+02 -0.37095432448E+01  0.69924004509E+02  0.00000000000E+00 0. -1.
         11    1    4    4    0    0 -0.13915028252E+02  0.26299504035E+02  0.17483580266E+00  0.29754369281E+02  0.00000000000E+00 0.  1.
        -11    1    3    3    0    0 -0.27377830561E+02  0.44781301478E+02  0.54737936667E+02  0.75836351962E+02  0.00000000000E+00 0.  1.
         11    1    3    3    0    0  0.47944885003E+02  0.51726386602E+02  0.24291062798E+03  0.25294249199E+03  0.00000000000E+00 0. -1.
          2    1    1    2  501    0 -0.23063541568E+02 -0.54937700748E+02 -0.29543552788E+02  0.66504882711E+02  0.00000000000E+00 0. -1.
<scales pt_clust_5="13000.00000" pt_clust_6="13000.00000" pt_clust_7="13000.00000" pt_clust_8="13000.00000" pt_clust_9="59.58253"></scales>
<clustering>
<clus scale="   59.583">  2  9  1 -1</clus>
<clus scale="   90.493">  5  6 -1 -1</clus>
<clus scale="   98.814">  7  8 -1 -1</clus>
<clus scale="  124.255">  2  5  1 -1</clus>
<clus scale="   59.583">  2  5  1 -1</clus>
</clustering>
</event>
<event>
 9    1  0.1636528E-005  0.1055127E+03  0.7546771E-02  0.1273659E+00
          2   -1    0    0  502    0 -0.00000000000E+00  0.00000000000E+00  0.41870585480E+03  0.41870585480E+03  0.00000000000E+00 0. -1.
         21   -1    0    0  501  502  0.00000000000E+00 -0.00000000000E+00 -0.51551664341E+02  0.51551664341E+02  0.00000000000E+00 0.  1.
         23    2    1    2    0    0 -0.19948766288E+02  0.12164415517E+02  0.32009642589E+03  0.33698808470E+03  0.10272935841E+03 0.  0.
         23    2    1    2    0    0  0.82533265158E+01 -0.33796014113E+02  0.34459564316E+02  0.10563930562E+03  0.93605092544E+02 0.  0.
        -11    1    4    4    0    0  0.21703956588E+02  0.16997482722E+02 -0.16758892091E+02  0.32261999544E+02  0.00000000000E+00 0. -1.
         11    1    4    4    0    0 -0.13450630072E+02 -0.50793496835E+02  0.51218456407E+02  0.73377306075E+02  0.00000000000E+00 0.  1.
        -11    1    3    3    0    0  0.10686089323E+02 -0.40292308307E+02  0.93144389136E+02  0.10204675321E+03  0.00000000000E+00 0.  1.
         11    1    3    3    0    0 -0.30634855611E+02  0.52456723824E+02  0.22695203676E+03  0.23494133149E+03  0.00000000000E+00 0. -1.
          2    1    1    2  501    0  0.11695439772E+02  0.21631598596E+02  0.12598200251E+02  0.27630128824E+02  0.00000000000E+00 0. -1.
<scales pt_clust_5="13000.00000" pt_clust_6="13000.00000" pt_clust_7="13000.00000" pt_clust_8="13000.00000" pt_clust_9="24.59084"></scales>
<clustering>
<clus scale="   24.591">  2  9  1 -1</clus>
<clus scale="   93.605">  5  6 -1 -1</clus>
<clus scale="   96.652">  2  5  1 -1</clus>
<clus scale="  102.729">  7  8 -1 -1</clus>
<clus scale="   24.591">  2  5  1 -1</clus>
</clustering>
</event>
<event>
 9    1  0.1636528E-005  0.9579356E+02  0.7546771E-02  0.1289675E+00
         21   -1    0    0  501  502  0.00000000000E+00  0.00000000000E+00  0.10727380631E+03  0.10727380631E+03  0.00000000000E+00 0. -1.
          2   -1    0    0  502    0 -0.00000000000E+00 -0.00000000000E+00 -0.27650791896E+03  0.27650791896E+03  0.00000000000E+00 0. -1.
         23    2    1    2    0    0  0.34516072697E+02 -0.42182015140E+02 -0.13949512969E+03  0.17463307190E+03  0.89817241765E+02 0.  0.
         23    2    1    2    0    0  0.85559972736E+01  0.17623465566E+02 -0.91908708664E+02  0.12962884223E+03  0.89289609589E+02 0.  0.
        -11    1    4    4    0    0  0.49493478382E+01 -0.31655354142E+02 -0.92854333414E+01  0.33358308743E+02  0.00000000000E+00 0.  1.
         11    1    4    4    0    0  0.36066494354E+01  0.49278819708E+02 -0.82623275323E+02  0.96270533483E+02  0.00000000000E+00 0. -1.
        -13    1    3    3    0    0  0.38652631585E+02 -0.15301189355E+02 -0.10601849329E+02  0.42901649541E+02  0.00000000000E+00 0.  1.
         13    1    3    3    0    0 -0.41365588887E+01 -0.26880825786E+02 -0.12889328036E+03  0.13173142236E+03  0.00000000000E+00 0. -1.
          2    1    1    2  501    0 -0.43072069970E+02  0.24558549575E+02  0.62169725714E+02  0.79519811142E+02  0.00000000000E+00 0. -1.
<scales pt_clust_5="13000.00000" pt_clust_6="13000.00000" pt_clust_7="13000.00000" pt_clust_8="13000.00000" pt_clust_9="49.58150"></scales>
<clustering>
<clus scale="   49.582">  1  9  2 -1</clus>
<clus scale="   89.290">  5  6 -1 -1</clus>
<clus scale="   89.817">  7  8 -1 -1</clus>
<clus scale="   95.299">  1  5  2 -1</clus>
<clus scale="   49.582">  1  5  2 -1</clus>
</clustering>
</event>
<event>
 9    1  0.1636528E-005  0.9646286E+02  0.7546771E-02  0.1292362E+00
         -1   -1    0    0    0  501 -0.00000000000E+00  0.00000000000E+00  0.97384123726E+02  0.97384123726E+02  0.00000000000E+00 0.  1.
         21   -1    0    0  501  502  0.00000000000E+00 -0.00000000000E+00 -0.26457024564E+03  0.26457024564E+03  0.00000000000E+00 0.  1.
         23    2    1    2    0    0 -0.34318272542E+02 -0.56030106648E+00  0.19672466310E+02  0.91460286629E+02  0.82461629453E+02 0.  0.
         23    2    1    2    0    0  0.26302004962E+02  0.25340272779E+02 -0.17736837968E+02  0.99378700746E+02  0.90706151122E+02 0.  0.
        -11    1    3    3    0    0 -0.57335596492E+02  0.89466266708E+01  0.28993878245E+02  0.64869543929E+02  0.00000000000E+00 0.  1.
         11    1    3    3    0    0  0.23017323950E+02 -0.95069277373E+01 -0.93214119356E+01  0.26590742699E+02  0.00000000000E+00 0. -1.
        -13    1    4    4    0    0 -0.14671981376E+02  0.27075033919E+02  0.25355861055E+02  0.39890402218E+02  0.00000000000E+00 0.  1.
         13    1    4    4    0    0  0.40973986338E+02 -0.17347611402E+01 -0.43092699023E+02  0.59488298528E+02  0.00000000000E+00 0. -1.
         -1    1    1    2    0  502  0.80162675800E+01 -0.24779971713E+02 -0.16912175026E+03  0.17111538200E+03  0.00000000000E+00 0.  1.
<scales pt_clust_5="13000.00000" pt_clust_6="13000.00000" pt_clust_7="13000.00000" pt_clust_8="13000.00000" pt_clust_9="26.04434"></scales>
<clustering>
<clus scale="   26.044">  2  9  1 -1</clus>
<clus scale="   82.462">  5  6 -1 -1</clus>
<clus scale="   88.755">  1  5  2 -1</clus>
<clus scale="   90.706">  7  8 -1 -1</clus>
<clus scale="   26.044">  2  5  1 -1</clus>
</clustering>
</event>
<event>
 9    1  0.1636528E-005  0.9509045E+02  0.7546771E-02  0.1290974E+00
         21   -1    0    0  501  502  0.00000000000E+00  0.00000000000E+00  0.11606768955E+03  0.11606768955E+03  0.00000000000E+00 0. -1.
          1   -1    0    0  502    0 -0.00000000000E+00 -0.00000000000E+00 -0.10998259218E+03  0.10998259218E+03  0.00000000000E+00 0. -1.
         23    2    1    2    0    0 -0.22997296760E+02 -0.83719031443E+01 -0.76135578261E+01  0.94942852763E+02  0.91417802465E+02 0.  0.
         23    2    1    2    0    0  0.72560332874E+01  0.35755218968E+02  0.60965618495E+01  0.98620120918E+02  0.91420317659E+02 0.  0.
        -11    1    3    3    0    0  0.29551947420E+02 -0.10686742291E+02  0.18237371682E+02  0.36333535239E+02  0.00000000000E+00 0.  1.
         11    1    3    3    0    0 -0.52549244180E+02  0.23148391467E+01 -0.25850929508E+02  0.58609317524E+02  0.00000000000E+00 0. -1.
        -13    1    4    4    0    0 -0.19764352869E+02 -0.23962013885E+02 -0.68506577559E+01  0.31807849117E+02  0.00000000000E+00 0.  1.
         13    1    4    4    0    0  0.27020386156E+02  0.59717232853E+02  0.12947219605E+02  0.66812271801E+02  0.00000000000E+00 0. -1.
          1    1    1    2  501    0  0.15741263472E+02 -0.27383315824E+02  0.76020933391E+01  0.32487308050E+02  0.00000000000E+00 0. -1.
<scales pt_clust_5="13000.00000" pt_clust_6="13000.00000" pt_clust_7="13000.00000" pt_clust_8="13000.00000" pt_clust_9="31.58533"></scales>
<clustering>
<clus scale="   31.585">  1  9  2 -1</clus>
<clus scale="   91.418">  5  6 -1 -1</clus>
<clus scale="   91.420">  7  8 -1 -1</clus>
<clus scale="   95.088">  2  5  1 -1</clus>
<clus scale="   31.585">  1  5  2 -1</clus>
</clustering>
</event>
<event>
 9    1  0.1636528E-005  0.9449080E+02  0.7546771E-02  0.1292587E+00
         21   -1    0    0  501  502  0.00000000000E+00  0.00000000000E+00  0.40306554790E+03  0.40306554790E+03  0.00000000000E+00 0.  1.
          3   -1    0    0  502    0 -0.00000000000E+00 -0.00000000000E+00 -0.29845622502E+02  0.29845622502E+02  0.00000000000E+00 0. -1.
         23    2    1    2    0    0  0.18669954142E+02 -0.21598455727E+02  0.11917257362E+03  0.15303175720E+03  0.91660001811E+02 0.  0.
         23    2    1    2    0    0 -0.17831857997E+02  0.16755281687E+00  0.22755379389E+03  0.24579283792E+03  0.91188742868E+02 0.  0.
        -11    1    4    4    0    0  0.25868588912E+02 -0.50091893268E+01  0.18593125338E+02  0.32248723693E+02  0.00000000000E+00 0. -1.
         11    1    4    4    0    0 -0.43700446910E+02  0.51767421436E+01  0.20896066855E+03  0.21354411423E+03  0.00000000000E+00 0.  1.
        -13    1    3    3    0    0 -0.21458048535E+02  0.23739178682E+02  0.23076962272E+02  0.39453043471E+02  0.00000000000E+00 0. -1.
         13    1    3    3    0    0  0.40128002677E+02 -0.45337634408E+02  0.96095611346E+02  0.11357871373E+03  0.00000000000E+00 0.  1.
          3    1    1    2  501    0 -0.83809614448E+00  0.21430902910E+02  0.26493557896E+02  0.34086575285E+02  0.00000000000E+00 0. -1.
<scales pt_clust_5="13000.00000" pt_clust_6="13000.00000" pt_clust_7="13000.00000" pt_clust_8="13000.00000" pt_clust_9="21.44730"></scales>
<clustering>
<clus scale="   21.447">  1  9  2 -1</clus>
<clus scale="   91.189">  5  6 -1 -1</clus>
<clus scale="   91.660">  7  8 -1 -1</clus>
<clus scale="   94.034">  1  5  2 -1</clus>
<clus scale="   21.447">  1  5  2 -1</clus>
</clustering>
</event>
<event>
 9    1  0.1636528E-005  0.1188458E+03  0.7546771E-02  0.1245341E+00
         21   -1    0    0  501  502  0.00000000000E+00  0.00000000000E+00  0.28262412292E+03  0.28262412292E+03  0.00000000000E+00 0. -1.
         -3   -1    0    0    0  501 -0.00000000000E+00 -0.00000000000E+00 -0.10815107762E+03  0.10815107762E+03  0.00000000000E+00 0.  1.
         23    2    1    2    0    0 -0.12377698751E+02 -0.77863088713E+02 -0.46497923779E+02  0.12928741828E+03  0.91308880183E+02 0.  0.
         23    2    1    2    0    0  0.28106810409E+02  0.52836296806E+02  0.16777772311E+03  0.20063331090E+03  0.92318438135E+02 0.  0.
        -11    1    4    4    0    0  0.16245029981E+02 -0.24026490143E+02  0.26123422612E+02  0.39033401551E+02  0.00000000000E+00 0.  1.
         11    1    4    4    0    0  0.11861780428E+02  0.76862786949E+02  0.14165430050E+03  0.16159990935E+03  0.00000000000E+00 0. -1.
        -13    1    3    3    0    0 -0.30610967122E+02 -0.10744609890E+02  0.15646143093E+02  0.36017769830E+02  0.00000000000E+00 0. -1.
         13    1    3    3    0    0  0.18233268372E+02 -0.67118478823E+02 -0.62144066873E+02  0.93269648453E+02  0.00000000000E+00 0.  1.
         -3    1    1    2    0  502 -0.15729111659E+02  0.25026791908E+02  0.53193245964E+02  0.60854471347E+02  0.00000000000E+00 0.  1.
<scales pt_clust_5="13000.00000" pt_clust_6="13000.00000" pt_clust_7="13000.00000" pt_clust_8="13000.00000" pt_clust_9="29.55918"></scales>
<clustering>
<clus scale="   29.559">  1  9  2 -1</clus>
<clus scale="   91.309">  7  8 -1 -1</clus>
<clus scale="   92.318">  5  6 -1 -1</clus>
<clus scale="  118.063">  2  7  1 -1</clus>
<clus scale="   29.559">  1  5  2 -1</clus>
</clustering>
</event>
<event>
 9    1  0.1636528E-005  0.9191390E+02  0.7546771E-02  0.1298595E+00
         21   -1    0    0  501  502  0.00000000000E+00  0.00000000000E+00  0.10271521170E+03  0.10271521170E+03  0.00000000000E+00 0. -1.
         -1   -1    0    0    0  501 -0.00000000000E+00 -0.00000000000E+00 -0.13543435661E+03  0.13543435661E+03  0.00000000000E+00 0.  1.
         23    2    1    2    0    0  0.10552953168E+02 -0.56023854950E+01 -0.71114059638E+02  0.11597341209E+03  0.90828802092E+02 0.  0.
         23    2    1    2    0    0 -0.87053645314E+01 -0.16230958004E+02  0.24999379361E+02  0.96494473248E+02  0.91361846684E+02 0.  0.
        -11    1    3    3    0    0 -0.37406886914E+02 -0.17194971998E+02 -0.23497997547E+02  0.47403566736E+02  0.00000000000E+00 0.  1.
         11    1    3    3    0    0  0.47959840082E+02  0.11592586503E+02 -0.47616062091E+02  0.68569845352E+02  0.00000000000E+00 0. -1.
        -13    1    4    4    0    0 -0.21468582564E+02  0.27491355837E+02 -0.12952411799E+02  0.37208058999E+02  0.00000000000E+00 0.  1.
         13    1    4    4    0    0  0.12763218032E+02 -0.43722313842E+02  0.37951791160E+02  0.59286414249E+02  0.00000000000E+00 0. -1.
         -1    1    1    2    0  502 -0.18475886364E+01  0.21833343499E+02  0.13395535369E+02  0.25681682966E+02  0.00000000000E+00 0.  1.
<scales pt_clust_5="13000.00000" pt_clust_6="13000.00000" pt_clust_7="13000.00000" pt_clust_8="13000.00000" pt_clust_9="21.91138"></scales>
<clustering>
<clus scale="   21.911">  1  9  2 -1</clus>
<clus scale="   90.829">  5  6 -1 -1</clus>
<clus scale="   91.362">  7  8 -1 -1</clus>
<clus scale="   91.384">  2  5  1 -1</clus>
<clus scale="   21.911">  1  5  2 -1</clus>
</clustering>
</event>
<event>
 9    1  0.1636528E-005  0.1029012E+03  0.7546771E-02  0.1278274E+00
          3   -1    0    0  502    0 -0.00000000000E+00  0.00000000000E+00  0.21319845956E+03  0.21319845956E+03  0.00000000000E+00 0. -1.
         21   -1    0    0  501  502  0.00000000000E+00 -0.00000000000E+00 -0.14856473838E+03  0.14856473838E+03  0.00000000000E+00 0. -1.
         23    2    1    2    0    0  0.41656945042E+01 -0.33743226739E+02  0.16041651746E+03  0.18603535453E+03  0.87862026481E+02 0.  0.
         23    2    1    2    0    0 -0.16705255782E+02  0.56514621417E+02 -0.50306836115E+02  0.12334616756E+03  0.95971512888E+02 0.  0.
        -13    1    4    4    0    0 -0.32428991004E+02  0.18108956352E+02  0.19639465011E+02  0.42015263222E+02  0.00000000000E+00 0. -1.
         13    1    4    4    0    0  0.15723735221E+02  0.38405665066E+02 -0.69946301126E+02  0.81330904333E+02  0.00000000000E+00 0.  1.
        -13    1    3    3    0    0  0.17723870429E+02  0.20684764598E+02  0.17172505314E+02  0.32200776515E+02  0.00000000000E+00 0.  1.
         13    1    3    3    0    0 -0.13558175925E+02 -0.54427991336E+02  0.14324401215E+03  0.15383457801E+03  0.00000000000E+00 0. -1.
          3    1    1    2  501    0  0.12539561278E+02 -0.22771394679E+02 -0.45475960166E+02  0.52381675858E+02  0.00000000000E+00 0. -1.
<scales pt_clust_5="13000.00000" pt_clust_6="13000.00000" pt_clust_7="13000.00000" pt_clust_8="13000.00000" pt_clust_9="25.99571"></scales>
<clustering>
<clus scale="   25.996">  2  9  1 -1</clus>
<clus scale="   87.862">  7  8 -1 -1</clus>
<clus scale="   95.383">  1  7  2 -1</clus>
<clus scale="   95.972">  5  6 -1 -1</clus>
<clus scale="   25.996">  2  5  1 -1</clus>
</clustering>
</event>
<event>
 9    1  0.1636528E-005  0.2515244E+03  0.7546771E-02  0.1152263E+00
         21   -1    0    0  501  502  0.00000000000E+00  0.00000000000E+00  0.52746240101E+02  0.52746240101E+02  0.00000000000E+00 0. -1.
          2   -1    0    0  502    0 -0.00000000000E+00 -0.00000000000E+00 -0.16575935230E+04  0.16575935230E+04  0.00000000000E+00 0. -1.
         23    2    1    2    0    0 -0.65215885421E+00  0.23132987706E+02 -0.17075218737E+03  0.19526582476E+03  0.91852449056E+02 0.  0.
         23    2    1    2    0    0  0.89257206134E+00 -0.24724480621E+03 -0.81759402696E+03  0.85910158180E+03  0.92004043637E+02 0.  0.
        -11    1    4    4    0    0 -0.31578160911E+02 -0.15561642594E+03 -0.60227022120E+03  0.62285076191E+03  0.00000000000E+00 0. -1.
         11    1    4    4    0    0  0.32470732972E+02 -0.91628380271E+02 -0.21532380576E+03  0.23625081989E+03  0.00000000000E+00 0.  1.
        -11    1    3    3    0    0  0.19798163433E+02  0.46451733762E+02 -0.14915752465E+03  0.15747284847E+03  0.00000000000E+00 0. -1.
         11    1    3    3    0    0 -0.20450322287E+02 -0.23318746057E+02 -0.21594662720E+02  0.37792976296E+02  0.00000000000E+00 0.  1.
          2    1    1    2  501    0 -0.24041320713E+00  0.22411181851E+03 -0.61650106857E+03  0.65597235654E+03  0.00000000000E+00 0. -1.
<scales pt_clust_5="13000.00000" pt_clust_6="13000.00000" pt_clust_7="13000.00000" pt_clust_8="13000.00000" pt_clust_9="234.09355"></scales>
<clustering>
<clus scale="   91.852">  7  8 -1 -1</clus>
<clus scale="   92.004">  5  6 -1 -1</clus>
<clus scale="   94.723">  2  7  1 -1</clus>
<clus scale="  234.094">  1  9  2 -1</clus>
<clus scale="  234.094">  1  5  2 -1</clus>
</clustering>
</event>
<event>
 9    1  0.1636528E-005  0.1620792E+03  0.7546771E-02  0.1187255E+00
         -1   -1    0    0    0  501 -0.00000000000E+00  0.00000000000E+00  0.12825715651E+03  0.12825715651E+03  0.00000000000E+00 0.  1.
         21   -1    0    0  501  502  0.00000000000E+00 -0.00000000000E+00 -0.26090852133E+03  0.26090852133E+03  0.00000000000E+00 0. -1.
         23    2    1    2    0    0  0.12309164861E+02  0.12673993358E+03 -0.22150546262E+02  0.15785463898E+03  0.90625129208E+02 0.  0.
         23    2    1    2    0    0 -0.34773597154E+02 -0.13127790801E+03 -0.61736622431E+02  0.17742977352E+03  0.96056346961E+02 0.  0.
        -11    1    3    3    0    0  0.47415343428E+02  0.52556255617E+02  0.61269027860E+01  0.71048671590E+02  0.00000000000E+00 0.  1.
         11    1    3    3    0    0 -0.35106178567E+02  0.74183677959E+02 -0.28277449048E+02  0.86805967386E+02  0.00000000000E+00 0. -1.
        -11    1    4    4    0    0  0.81274794345E+01 -0.11743260836E+03 -0.27660257276E+02  0.12091965622E+03  0.00000000000E+00 0. -1.
         11    1    4    4    0    0 -0.42901076588E+02 -0.13845299651E+02 -0.34076365155E+02  0.56510117298E+02  0.00000000000E+00 0.  1.
         -1    1    1    2    0  502  0.22464432292E+02  0.45379744382E+01 -0.48764196135E+02  0.53881265343E+02  0.00000000000E+00 0.  1.
<scales pt_clust_5="13000.00000" pt_clust_6="13000.00000" pt_clust_7="13000.00000" pt_clust_8="13000.00000" pt_clust_9="22.91820"></scales>
<clustering>
<clus scale="   22.918">  2  9  1 -1</clus>
<clus scale="   90.625">  5  6 -1 -1</clus>
<clus scale="   96.056">  7  8 -1 -1</clus>
<clus scale="  158.921">  1  5  2 -1</clus>
<clus scale="   22.918">  2  5  1 -1</clus>
</clustering>
</event>
<event>
 9    1  0.1636528E-005  0.1217571E+03  0.7546771E-02  0.1241846E+00
         21   -1    0    0  501  502  0.00000000000E+00  0.00000000000E+00  0.29247288879E+03  0.29247288879E+03  0.00000000000E+00 0. -1.
          3   -1    0    0  502    0 -0.00000000000E+00 -0.00000000000E+00 -0.88316320850E+02  0.88316320850E+02  0.00000000000E+00 0. -1.
         23    2    1    2    0    0 -0.79247966229E+02 -0.64420204708E+02  0.31540815952E+02  0.13740541613E+03  0.86343629664E+02 0.  0.
         23    2    1    2    0    0  0.21691156482E+02  0.36429487363E+02  0.13684591675E+03  0.17006430280E+03  0.91637592384E+02 0.  0.
        -11    1    4    4    0    0  0.36499591155E+02 -0.20213199027E+02  0.66966699870E+02  0.78900776047E+02  0.00000000000E+00 0.  1.
         11    1    4    4    0    0 -0.14808434673E+02  0.56642686390E+02  0.69879216878E+02  0.91163526755E+02  0.00000000000E+00 0. -1.
        -13    1    3    3    0    0 -0.43427496631E+02 -0.81421160259E+02  0.32241565311E+02  0.97749022170E+02  0.00000000000E+00 0.  1.
         13    1    3    3    0    0 -0.35820469597E+02  0.17000955551E+02 -0.70074935838E+00  0.39656393955E+02  0.00000000000E+00 0. -1.
          3    1    1    2  501    0  0.57556809747E+02  0.27990717345E+02  0.35769835244E+02  0.73319490718E+02  0.00000000000E+00 0. -1.
<scales pt_clust_5="13000.00000" pt_clust_6="13000.00000" pt_clust_7="13000.00000" pt_clust_8="13000.00000" pt_clust_9="64.00211"></scales>
<clustering>
<clus scale="   64.002">  1  9  2 -1</clus>
<clus scale="   86.344">  7  8 -1 -1</clus>
<clus scale="   91.638">  5  6 -1 -1</clus>
<clus scale="  117.824">  2  7  1 -1</clus>
<clus scale="   64.002">  1  5  2 -1</clus>
</clustering>
</event>
<event>
 9    1  0.1636528E-005  0.1843508E+03  0.7546771E-02  0.1164095E+00
         21   -1    0    0  501  502  0.00000000000E+00  0.00000000000E+00  0.60824505651E+02  0.60824505651E+02  0.00000000000E+00 0.  1.
          1   -1    0    0  502    0 -0.00000000000E+00 -0.00000000000E+00 -0.12481171029E+04  0.12481171029E+04  0.00000000000E+00 0. -1.
         23    2    1    2    0    0 -0.67890782132E+02 -0.17409997586E+03 -0.83139528420E+03  0.85666265084E+03  0.87936447828E+02 0.  0.
         23    2    1    2    0    0  0.11174632155E+03  0.65558970682E+02 -0.23841324156E+03  0.28642671866E+03  0.91728798079E+02 0.  0.
        -11    1    4    4    0    0  0.64665921075E+02 -0.10027457753E+02 -0.69383295725E+02  0.95374383265E+02  0.00000000000E+00 0.  1.
         11    1    4    4    0    0  0.47080400472E+02  0.75586428435E+02 -0.16902994584E+03  0.19105233540E+03  0.00000000000E+00 0. -1.
        -11    1    3    3    0    0 -0.14873720496E+02 -0.13539562139E+03 -0.63967842001E+03  0.65401963494E+03  0.00000000000E+00 0.  1.
         11    1    3    3    0    0 -0.53017061636E+02 -0.38704354467E+02 -0.19171686419E+03  0.20264301590E+03  0.00000000000E+00 0. -1.
          1    1    1    2  501    0 -0.43855539415E+02  0.10854100518E+03 -0.11748407147E+03  0.16585223903E+03  0.00000000000E+00 0. -1.
<scales pt_clust_5="13000.00000" pt_clust_6="13000.00000" pt_clust_7="13000.00000" pt_clust_8="13000.00000" pt_clust_9="117.06604"></scales>
<clustering>
<clus scale="   87.936">  7  8 -1 -1</clus>
<clus scale="   91.729">  5  6 -1 -1</clus>
<clus scale="  117.066">  1  9  2 -1</clus>
<clus scale="  182.493">  2  7  1 -1</clus>
<clus scale="  117.066">  1  5  2 -1</clus>
</clustering>
</event>
<event>
 9    1  0.1636528E-005  0.1730874E+03  0.7546771E-02  0.1174914E+00
         -1   -1    0    0    0  501 -0.00000000000E+00  0.00000000000E+00  0.83322040572E+02  0.83322040572E+02  0.00000000000E+00 0.  1.
         21   -1    0    0  501  502  0.00000000000E+00 -0.00000000000E+00 -0.13808422767E+04  0.13808422767E+04  0.00000000000E+00 0. -1.
         23    2    1    2    0    0 -0.13421184044E+03 -0.27115809491E+02 -0.63726552403E+02  0.17827468555E+03  0.94724362171E+02 0.  0.
         23    2    1    2    0    0  0.20230309113E+03 -0.71461455293E+02 -0.67358807796E+03  0.71301598398E+03  0.92938766753E+02 0.  0.
        -11    1    4    4    0    0  0.54788680826E+01 -0.32205369888E+02 -0.11058207025E+03  0.11530653973E+03  0.00000000000E+00 0.  1.
         11    1    4    4    0    0  0.19682422304E+03 -0.39256085405E+02 -0.56300600771E+03  0.59770944425E+03  0.00000000000E+00 0. -1.
        -11    1    3    3    0    0 -0.31674291436E+02  0.47376394375E+01 -0.63256950039E+02  0.70902381438E+02  0.00000000000E+00 0. -1.
         11    1    3    3    0    0 -0.10253754900E+03 -0.31853448929E+02 -0.46960236431E+00  0.10737230411E+03  0.00000000000E+00 0.  1.
         -1    1    1    2    0  502 -0.68091250691E+02  0.98577264784E+02 -0.56020560581E+03  0.57287364780E+03  0.00000000000E+00 0.  1.
<scales pt_clust_5="13000.00000" pt_clust_6="13000.00000" pt_clust_7="13000.00000" pt_clust_8="13000.00000" pt_clust_9="119.80774"></scales>
<clustering>
<clus scale="   92.939">  5  6 -1 -1</clus>
<clus scale="   94.724">  7  8 -1 -1</clus>
<clus scale="  119.808">  2  9  1 -1</clus>
<clus scale="  172.117">  2  5  1 -1</clus>
<clus scale="  119.808">  2  5  1 -1</clus>
</clustering>
</event>
<event>
 9    1  0.1636528E-005  0.9284039E+02  0.7546771E-02  0.1298383E+00
         -1   -1    0    0    0  501 -0.00000000000E+00  0.00000000000E+00  0.27613901692E+03  0.27613901692E+03  0.00000000000E+00 0.  1.
         21   -1    0    0  501  502  0.00000000000E+00 -0.00000000000E+00 -0.50174494916E+02  0.50174494916E+02  0.00000000000E+00 0. -1.
         23    2    1    2    0    0 -0.85386971509E+01  0.11311416067E+02  0.17765619263E+03  0.20083340857E+03  0.92582275479E+02 0.  0.
         23    2    1    2    0    0 -0.81335981438E+01  0.64973408999E+01  0.47195264183E+02  0.10105969850E+03  0.88754148304E+02 0.  0.
        -11    1    3    3    0    0  0.13234198364E+01  0.36678546672E+02  0.21947585555E+02  0.42764047256E+02  0.00000000000E+00 0. -1.
         11    1    3    3    0    0 -0.98621169873E+01 -0.25367130605E+02  0.15570860708E+03  0.15806936131E+03  0.00000000000E+00 0.  1.
        -13    1    4    4    0    0  0.37288749976E+02 -0.10416857186E+02  0.10066276791E+02  0.40003646294E+02  0.00000000000E+00 0.  1.
         13    1    4    4    0    0 -0.45422348120E+02  0.16914198086E+02  0.37128987393E+02  0.61056052201E+02  0.00000000000E+00 0. -1.
         -1    1    1    2    0  502  0.16672295295E+02 -0.17808756967E+02  0.11130651836E+01  0.24420404771E+02  0.00000000000E+00 0.  1.
<scales pt_clust_5="13000.00000" pt_clust_6="13000.00000" pt_clust_7="13000.00000" pt_clust_8="13000.00000" pt_clust_9="24.39503"></scales>
<clustering>
<clus scale="   24.395">  2  9  1 -1</clus>
<clus scale="   88.754">  7  8 -1 -1</clus>
<clus scale="   89.023">  2  7  1 -1</clus>
<clus scale="   92.582">  5  6 -1 -1</clus>
<clus scale="   24.395">  2  5  1 -1</clus>
</clustering>
</event>
<event>
 9    1  0.1636528E-005  0.1034913E+03  0.7546771E-02  0.1273550E+00
         -2   -1    0    0    0  501 -0.00000000000E+00  0.00000000000E+00  0.14642791763E+03  0.14642791763E+03  0.00000000000E+00 0.  1.
         21   -1    0    0  501  502  0.00000000000E+00 -0.00000000000E+00 -0.32781430419E+03  0.32781430419E+03  0.00000000000E+00 0.  1.
         23    2    1    2    0    0 -0.43142082543E+02 -0.42327494847E+02  0.90439467421E+02  0.14081012342E+03  0.89416651051E+02 0.  0.
         23    2    1    2    0    0 -0.38602933141E+02  0.32981742839E+02 -0.10575880686E+03  0.14810035581E+03  0.90392523782E+02 0.  0.
        -11    1    3    3    0    0 -0.30901081074E+02 -0.69997473933E+02  0.55111716091E+02  0.94296470873E+02  0.00000000000E+00 0.  1.
         11    1    3    3    0    0 -0.12241001469E+02  0.27669979087E+02  0.35327751330E+02  0.46513652551E+02  0.00000000000E+00 0. -1.
        -11    1    4    4    0    0 -0.64970051299E+02  0.26632595524E+02 -0.96704695827E+02  0.11950816250E+03  0.00000000000E+00 0.  1.
         11    1    4    4    0    0  0.26367118158E+02  0.63491473142E+01 -0.90541110320E+01  0.28592193308E+02  0.00000000000E+00 0. -1.
         -2    1    1    2    0  502  0.81745015684E+02  0.93457520079E+01 -0.16606704712E+03  0.18533174258E+03  0.00000000000E+00 0.  1.
<scales pt_clust_5="13000.00000" pt_clust_6="13000.00000" pt_clust_7="13000.00000" pt_clust_8="13000.00000" pt_clust_9="82.27752"></scales>
<clustering>
<clus scale="   82.278">  2  9  1 -1</clus>
<clus scale="   89.417">  5  6 -1 -1</clus>
<clus scale="   90.393">  7  8 -1 -1</clus>
<clus scale="  102.640">  1  5  2 -1</clus>
<clus scale="   82.278">  2  5  1 -1</clus>
</clustering>
</event>
<event>
 9    1  0.1636528E-005  0.1269114E+03  0.7546771E-02  0.1234618E+00
         -1   -1    0    0    0  501 -0.00000000000E+00  0.00000000000E+00  0.34226104036E+03  0.34226104036E+03  0.00000000000E+00 0.  1.
         21   -1    0    0  501  502  0.00000000000E+00 -0.00000000000E+00 -0.18749099183E+03  0.18749099183E+03  0.00000000000E+00 0.  1.
         23    2    1    2    0    0  0.59216147540E+02 -0.41607585604E+02  0.23796520578E+03  0.26599377086E+03  0.94273557618E+02 0.  0.
         23    2    1    2    0    0 -0.59707202348E+02  0.62090141025E+02  0.39441508446E+02  0.13942191112E+03  0.10228734568E+03 0.  0.
        -11    1    4    4    0    0 -0.79920242220E+02  0.63398428064E+02  0.53086732538E+02  0.11499916073E+03  0.00000000000E+00 0.  1.
         11    1    4    4    0    0  0.20213039872E+02 -0.13082870394E+01 -0.13645224093E+02  0.24422750385E+02  0.00000000000E+00 0. -1.
        -11    1    3    3    0    0  0.48028692663E+02  0.18656779793E+02  0.68013299102E+02  0.85326664097E+02  0.00000000000E+00 0.  1.
         11    1    3    3    0    0  0.11187454877E+02 -0.60264365397E+02  0.16995190667E+03  0.18066710676E+03  0.00000000000E+00 0. -1.
         -1    1    1    2    0  502  0.49105480773E+00 -0.20482555421E+02 -0.12263666569E+03  0.12433635021E+03  0.00000000000E+00 0.  1.
<scales pt_clust_5="13000.00000" pt_clust_6="13000.00000" pt_clust_7="13000.00000" pt_clust_8="13000.00000" pt_clust_9="20.48844"></scales>
<clustering>
<clus scale="   20.488">  2  9  1 -1</clus>
<clus scale="   94.274">  7  8 -1 -1</clus>
<clus scale="  102.287">  5  6 -1 -1</clus>
<clus scale="  120.546">  1  7  2 -1</clus>
<clus scale="   20.488">  2  5  1 -1</clus>
</clustering>
</event>
<event>
 9    1  0.1636528E-005  0.1060086E+03  0.7546771E-02  0.1270640E+00
         21   -1    0    0  501  502  0.00000000000E+00  0.00000000000E+00  0.52833985565E+02  0.52833985565E+02  0.00000000000E+00 0.  1.
         -3   -1    0    0    0  501 -0.00000000000E+00 -0.00000000000E+00 -0.49342593117E+03  0.49342593117E+03  0.00000000000E+00 0.  1.
         23    2    1    2    0    0  0.72929424639E+01 -0.62963389880E+02 -0.31271852778E+03  0.33382890697E+03  0.98139115723E+02 0.  0.
         23    2    1    2    0    0  0.12782045278E+02  0.42367722797E+01 -0.11622228859E+03  0.14928380429E+03  0.92718406683E+02 0.  0.
        -11    1    4    4    0    0 -0.43934100436E+01 -0.30423156286E+02 -0.45149067792E+01  0.31068551196E+02  0.00000000000E+00 0.  1.
         11    1    4    4    0    0  0.17175455321E+02  0.34659928565E+02 -0.11170738181E+03  0.11821525309E+03  0.00000000000E+00 0. -1.
        -13    1    3    3    0    0  0.46040569046E+02 -0.56772446521E+02 -0.24381182624E+03  0.25453300630E+03  0.00000000000E+00 0.  1.
         13    1    3    3    0    0 -0.38747626582E+02 -0.61909433598E+01 -0.68906701544E+02  0.79295900670E+02  0.00000000000E+00 0. -1.
         -3    1    1    2    0  502 -0.20074987742E+02  0.58726617601E+02 -0.11651129242E+02  0.63147205482E+02  0.00000000000E+00 0.  1.
<scales pt_clust_5="13000.00000" pt_clust_6="13000.00000" pt_clust_7="13000.00000" pt_clust_8="13000.00000" pt_clust_9="62.06304"></scales>
<clustering>
<clus scale="   62.063">  1  9  2 -1</clus>
<clus scale="   92.718">  5  6 -1 -1</clus>
<clus scale="   98.139">  7  8 -1 -1</clus>
<clus scale="  101.011">  1  5  2 -1</clus>
<clus scale="   62.063">  1  5  2 -1</clus>
</clustering>
</event>
<event>
 9    1  0.1636528E-005  0.9391563E+02  0.7546771E-02  0.1294704E+00
         21   -1    0    0  501  502  0.00000000000E+00  0.00000000000E+00  0.36959096282E+03  0.36959096282E+03  0.00000000000E+00 0.  1.
         -2   -1    0    0    0  501 -0.00000000000E+00 -0.00000000000E+00 -0.50755234508E+02  0.50755234508E+02  0.00000000000E+00 0.  1.
         23    2    1    2    0    0 -0.19334934162E+02 -0.18804251096E+02  0.47728285136E+02  0.10798044955E+03  0.93028752246E+02 0.  0.
         23    2    1    2    0    0 -0.42451283213E+01 -0.57055863659E+01  0.90751260220E+02  0.12883072603E+03  0.91164630789E+02 0.  0.
        -11    1    4    4    0    0 -0.37736262146E+02  0.78439482086E+01  0.91861188119E+01  0.39622440398E+02  0.00000000000E+00 0.  1.
         11    1    4    4    0    0  0.33491133825E+02 -0.13549534574E+02  0.81565141408E+02  0.89208285629E+02  0.00000000000E+00 0. -1.
        -13    1    3    3    0    0  0.11371336433E+02 -0.47748280485E+02  0.43475352942E+02  0.65569138282E+02  0.00000000000E+00 0.  1.
         13    1    3    3    0    0 -0.30706270595E+02  0.28944029390E+02  0.42529321943E+01  0.42411311267E+02  0.00000000000E+00 0. -1.
         -2    1    1    2    0  502  0.23580062483E+02  0.24509837461E+02  0.18035618296E+03  0.18353502175E+03  0.00000000000E+00 0.  1.
<scales pt_clust_5="13000.00000" pt_clust_6="13000.00000" pt_clust_7="13000.00000" pt_clust_8="13000.00000" pt_clust_9="34.01105"></scales>
<clustering>
<clus scale="   34.011">  1  9  2 -1</clus>
<clus scale="   91.165">  5  6 -1 -1</clus>
<clus scale="   92.069">  1  5  2 -1</clus>
<clus scale="   93.029">  7  8 -1 -1</clus>
<clus scale="   34.011">  1  5  2 -1</clus>
</clustering>
</event>
<event>
 9    1  0.1636528E-005  0.1450146E+03  0.7546771E-02  0.1209346E+00
          2   -1    0    0  502    0 -0.00000000000E+00  0.00000000000E+00  0.33682542570E+03  0.33682542570E+03  0.00000000000E+00 0. -1.
         21   -1    0    0  501  502  0.00000000000E+00 -0.00000000000E+00 -0.10784304491E+03  0.10784304491E+03  0.00000000000E+00 0. -1.
         23    2    1    2    0    0 -0.40528696441E+02 -0.11385983943E+03  0.19217657343E+03  0.24909309979E+03  0.10251291976E+03 0.  0.
         23    2    1    2    0    0  0.40504355534E+02  0.69952355215E+02  0.70100763437E+02  0.14047163352E+03  0.91017734388E+02 0.  0.
        -11    1    3    3    0    0  0.29022702496E+02 -0.12933561041E+02  0.65637285363E+02  0.72923572946E+02  0.00000000000E+00 0.  1.
         11    1    3    3    0    0 -0.69551398938E+02 -0.10092627839E+03  0.12653928807E+03  0.17616952685E+03  0.00000000000E+00 0. -1.
        -13    1    4    4    0    0  0.66564259436E+02  0.63064706957E+02  0.39924158669E+02  0.10000948127E+03  0.00000000000E+00 0. -1.
         13    1    4    4    0    0 -0.26059903903E+02  0.68876482583E+01  0.30176604768E+02  0.40462152257E+02  0.00000000000E+00 0.  1.
          2    1    1    2  501    0  0.24340907876E-01  0.43907484217E+02 -0.33294956089E+02  0.55103737294E+02  0.00000000000E+00 0. -1.
<scales pt_clust_5="13000.00000" pt_clust_6="13000.00000" pt_clust_7="13000.00000" pt_clust_8="13000.00000" pt_clust_9="43.90749"></scales>
<clustering>
<clus scale="   43.907">  2  9  1 -1</clus>
<clus scale="   91.018">  7  8 -1 -1</clus>
<clus scale="  102.513">  5  6 -1 -1</clus>
<clus scale="  137.130">  2  7  1 -1</clus>
<clus scale="   43.907">  2  5  1 -1</clus>
</clustering>
</event>
<event>
 9    1  0.1636528E-005  0.1459767E+03  0.7546771E-02  0.1205884E+00
         21   -1    0    0  501  502  0.00000000000E+00  0.00000000000E+00  0.12849483132E+03  0.12849483132E+03  0.00000000000E+00 0.  1.
         -2   -1    0    0    0  501 -0.00000000000E+00 -0.00000000000E+00 -0.50263118369E+03  0.50263118369E+03  0.00000000000E+00 0.  1.
         23    2    1    2    0    0  0.97005675339E+02  0.66971173577E+02 -0.41772785830E+03  0.44394501950E+03  0.93249008617E+02 0.  0.
         23    2    1    2    0    0 -0.61259620763E+02 -0.62951165173E+02 -0.48443303652E+01  0.12684882231E+03  0.91386901977E+02 0.  0.
        -11    1    3    3    0    0  0.58136853143E+02 -0.10827375173E+02 -0.22245993055E+03  0.23018589541E+03  0.00000000000E+00 0.  1.
         11    1    3    3    0    0  0.38868822196E+02  0.77798548750E+02 -0.19526792775E+03  0.21375912409E+03  0.00000000000E+00 0. -1.
        -11    1    4    4    0    0 -0.15014878765E+02 -0.76552790302E+02 -0.86806946101E+01  0.78492870671E+02  0.00000000000E+00 0.  1.
         11    1    4    4    0    0 -0.46244741998E+02  0.13601625129E+02  0.38363642449E+01  0.48355951642E+02  0.00000000000E+00 0. -1.
         -2    1    1    2    0  502 -0.35746054576E+02 -0.40200084037E+01  0.48435836292E+02  0.60332173197E+02  0.00000000000E+00 0.  1.
<scales pt_clust_5="13000.00000" pt_clust_6="13000.00000" pt_clust_7="13000.00000" pt_clust_8="13000.00000" pt_clust_9="35.97139"></scales>
<clustering>
<clus scale="   35.971">  1  9  2 -1</clus>
<clus scale="   91.387">  7  8 -1 -1</clus>
<clus scale="   93.249">  5  6 -1 -1</clus>
<clus scale="  144.794">  1  7  2 -1</clus>
<clus scale="   35.971">  1  5  2 -1</clus>
</clustering>
</event>
<event>
 9    1  0.1636528E-005  0.9995587E+02  0.7546771E-02  0.1280837E+00
         -1   -1    0    0    0  501 -0.00000000000E+00  0.00000000000E+00  0.26607550603E+02  0.26607550603E+02  0.00000000000E+00 0.  1.
         21   -1    0    0  501  502  0.00000000000E+00 -0.00000000000E+00 -0.94582785609E+03  0.94582785609E+03  0.00000000000E+00 0.  1.
         23    2    1    2    0    0  0.14139340622E+02 -0.25768137648E+00 -0.16176949199E+03  0.18690953567E+03  0.92551707885E+02 0.  0.
         23    2    1    2    0    0 -0.65116675237E+02 -0.41558929020E+02 -0.30370881714E+03  0.32701838274E+03  0.93459355177E+02 0.  0.
        -11    1    4    4    0    0 -0.57684744514E+02  0.72734236411E+01 -0.86226413022E+02  0.10399724392E+03  0.00000000000E+00 0.  1.
         11    1    4    4    0    0 -0.74319307232E+01 -0.48832352661E+02 -0.21748240412E+03  0.22302113882E+03  0.00000000000E+00 0. -1.
        -11    1    3    3    0    0 -0.85667138561E+01  0.42495377125E+02 -0.58058694378E+02  0.72457281595E+02  0.00000000000E+00 0.  1.
         11    1    3    3    0    0  0.22706054478E+02 -0.42753058502E+02 -0.10371079762E+03  0.11445225408E+03  0.00000000000E+00 0. -1.
         -1    1    1    2    0  502  0.50977334615E+02  0.41816610397E+02 -0.45374199636E+03  0.45850748828E+03  0.00000000000E+00 0.  1.
<scales pt_clust_5="13000.00000" pt_clust_6="13000.00000" pt_clust_7="13000.00000" pt_clust_8="13000.00000" pt_clust_9="65.93419"></scales>
<clustering>
<clus scale="   65.934">  2  9  1 -1</clus>
<clus scale="   92.552">  7  8 -1 -1</clus>
<clus scale="   93.459">  5  6 -1 -1</clus>
<clus scale="   99.108">  1  7  2 -1</clus>
<clus scale="   65.934">  2  5  1 -1</clus>
</clustering>
</event>
<event>
 9    1  0.1636528E-005  0.2399324E+03  0.7546771E-02  0.1120561E+00
         21   -1    0    0  501  502  0.00000000000E+00  0.00000000000E+00  0.26116889962E+03  0.26116889962E+03  0.00000000000E+00 0.  1.
         -3   -1    0    0    0  501 -0.00000000000E+00 -0.00000000000E+00 -0.58652683975E+03  0.58652683975E+03  0.00000000000E+00 0.  1.
         23    2    1    2    0    0  0.11010939514E+03  0.20029036103E+03 -0.48474849845E+03  0.54345283694E+03  0.90108665535E+02 0.  0.
         23    2    1    2    0    0 -0.72305259245E+02 -0.13635771535E+03  0.12224777305E+03  0.22120000767E+03  0.10081392923E+03 0.  0.
        -11    1    4    4    0    0 -0.39657704573E+02 -0.48421592358E+02  0.11005809310E+03  0.12661029972E+03  0.00000000000E+00 0.  1.
         11    1    4    4    0    0 -0.32647554672E+02 -0.87936122990E+02  0.12189679953E+02  0.94589707949E+02  0.00000000000E+00 0. -1.
        -11    1    3    3    0    0 -0.74537100902E+01  0.67450034630E+02 -0.14890308262E+03  0.16363738259E+03  0.00000000000E+00 0. -1.
         11    1    3    3    0    0  0.11756310523E+03  0.13284032640E+03 -0.33584541583E+03  0.37981545435E+03  0.00000000000E+00 0.  1.
         -3    1    1    2    0  502 -0.37804135894E+02 -0.63932645683E+02  0.37142785270E+02  0.83042894773E+02  0.00000000000E+00 0.  1.
<scales pt_clust_5="13000.00000" pt_clust_6="13000.00000" pt_clust_7="13000.00000" pt_clust_8="13000.00000" pt_clust_9="74.27339"></scales>
<clustering>
<clus scale="   74.273">  1  9  2 -1</clus>
<clus scale="   90.109">  7  8 -1 -1</clus>
<clus scale="  100.814">  5  6 -1 -1</clus>
<clus scale="  235.635">  2  7  1 -1</clus>
<clus scale="   74.273">  1  5  2 -1</clus>
</clustering>
</event>
<event>
 9    1  0.1636528E-005  0.1159498E+03  0.7546771E-02  0.1250317E+00
         -3   -1    0    0    0  501 -0.00000000000E+00  0.00000000000E+00  0.35071439190E+03  0.35071439190E+03  0.00000000000E+00 0.  1.
         21   -1    0    0  501  502  0.00000000000E+00 -0.00000000000E+00 -0.60438429200E+02  0.60438429200E+02  0.00000000000E+00 0. -1.
         23    2    1    2    0    0  0.17199171342E+02  0.81692989913E+02  0.21388712575E+03  0.24752952928E+03  0.92485724332E+02 0.  0.
         23    2    1    2    0    0  0.28025602898E+01 -0.48725010974E+02  0.68713737669E+02  0.12430581413E+03  0.91369451364E+02 0.  0.
        -11    1    4    4    0    0  0.31590976619E+02  0.11787626765E+02  0.37347306695E+02  0.50316590364E+02  0.00000000000E+00 0.  1.
         11    1    4    4    0    0 -0.28788416329E+02 -0.60512637740E+02  0.31366430973E+02  0.73989223762E+02  0.00000000000E+00 0. -1.
        -11    1    3    3    0    0 -0.88147190717E+00  0.63982554058E+02  0.21278277342E+03  0.22219597855E+03  0.00000000000E+00 0.  1.
         11    1    3    3    0    0  0.18080643249E+02  0.17710435854E+02  0.11043523280E+01  0.25333550728E+02  0.00000000000E+00 0. -1.
         -3    1    1    2    0  502 -0.20001731631E+02 -0.32967978938E+02  0.76750992771E+01  0.39317477697E+02  0.00000000000E+00 0.  1.
<scales pt_clust_5="13000.00000" pt_clust_6="13000.00000" pt_clust_7="13000.00000" pt_clust_8="13000.00000" pt_clust_9="38.56108"></scales>
<clustering>
<clus scale="   38.561">  2  9  1 -1</clus>
<clus scale="   91.369">  5  6 -1 -1</clus>
<clus scale="   92.486">  7  8 -1 -1</clus>
<clus scale="  115.061">  2  5  1 -1</clus>
<clus scale="   38.561">  2  5  1 -1</clus>
</clustering>
</event>
<event>
 9    1  0.1636528E-005  0.9655919E+02  0.7546771E-02  0.1289993E+00
         21   -1    0    0  501  502  0.00000000000E+00  0.00000000000E+00  0.13550096289E+03  0.13550096289E+03  0.00000000000E+00 0.  1.
          2   -1    0    0  502    0 -0.00000000000E+00 -0.00000000000E+00 -0.39597096069E+03  0.39597096069E+03  0.00000000000E+00 0. -1.
         23    2    1    2    0    0  0.27356433710E+02  0.14742187533E+02 -0.36111857306E+03  0.37371692691E+03  0.91060480378E+02 0.  0.
         23    2    1    2    0    0 -0.37751400145E+02 -0.31877133335E+02  0.73294287532E+02  0.12384454471E+03  0.86741563439E+02 0.  0.
        -11    1    4    4    0    0  0.19304250786E+02 -0.20621137173E+02 -0.24464824583E+01  0.28352613162E+02  0.00000000000E+00 0. -1.
         11    1    4    4    0    0 -0.57055650930E+02 -0.11255996163E+02  0.75740769990E+02  0.95491931552E+02  0.00000000000E+00 0.  1.
        -13    1    3    3    0    0  0.19319406700E+02 -0.37713356385E+02 -0.18418409564E+03  0.18899554971E+03  0.00000000000E+00 0.  1.
         13    1    3    3    0    0  0.80370270103E+01  0.52455543918E+02 -0.17693447743E+03  0.18472137720E+03  0.00000000000E+00 0. -1.
          2    1    1    2  501    0  0.10394966435E+02  0.17134945803E+02  0.27354287733E+02  0.33910451961E+02  0.00000000000E+00 0. -1.
<scales pt_clust_5="13000.00000" pt_clust_6="13000.00000" pt_clust_7="13000.00000" pt_clust_8="13000.00000" pt_clust_9="20.04150"></scales>
<clustering>
<clus scale="   20.041">  1  9  2 -1</clus>
<clus scale="   86.742">  5  6 -1 -1</clus>
<clus scale="   91.060">  7  8 -1 -1</clus>
<clus scale="   92.497">  1  5  2 -1</clus>
<clus scale="   20.041">  1  5  2 -1</clus>
</clustering>
</event>
<event>
 9    1  0.1636528E-005  0.9632428E+02  0.7546771E-02  0.1288295E+00
         21   -1    0    0  501  502  0.00000000000E+00  0.00000000000E+00  0.92257547019E+02  0.92257547019E+02  0.00000000000E+00 0.  1.
         -2   -1    0    0    0  501 -0.00000000000E+00 -0.00000000000E+00 -0.44336497176E+03  0.44336497176E+03  0.00000000000E+00 0.  1.
         23    2    1    2    0    0 -0.65995487905E+00  0.13052602573E+02 -0.22808422693E+03  0.24675741572E+03  0.93252354721E+02 0.  0.
         23    2    1    2    0    0 -0.57903418166E+02 -0.58578338732E+01 -0.17731415982E+03  0.20868442014E+03  0.93390341482E+02 0.  0.
        -11    1    4    4    0    0 -0.57657707459E+02  0.21848036955E+02 -0.16878477276E+03  0.17969431673E+03  0.00000000000E+00 0.  1.
         11    1    4    4    0    0 -0.24571070699E+00 -0.27705870828E+02 -0.85293870592E+01  0.28990103410E+02  0.00000000000E+00 0. -1.
        -13    1    3    3    0    0 -0.34052354999E+02  0.24592326164E+01 -0.19695665763E+03  0.19989381104E+03  0.00000000000E+00 0. -1.
         13    1    3    3    0    0  0.33392400120E+02  0.10593369957E+02 -0.31127569302E+02  0.46863604678E+02  0.00000000000E+00 0.  1.
         -2    1    1    2    0  502  0.58563373045E+02 -0.71947687003E+01  0.54290962009E+02  0.80180682929E+02  0.00000000000E+00 0.  1.
<scales pt_clust_5="13000.00000" pt_clust_6="13000.00000" pt_clust_7="13000.00000" pt_clust_8="13000.00000" pt_clust_9="59.00367"></scales>
<clustering>
<clus scale="   59.004">  1  9  2 -1</clus>
<clus scale="   93.252">  7  8 -1 -1</clus>
<clus scale="   93.390">  5  6 -1 -1</clus>
<clus scale="   96.190">  2  7  1 -1</clus>
<clus scale="   59.004">  1  5  2 -1</clus>
</clustering>
</event>
<event>
 9    1  0.1636528E-005  0.2780345E+03  0.7546771E-02  0.1120124E+00
          3   -1    0    0  502    0 -0.00000000000E+00  0.00000000000E+00  0.38136624708E+03  0.38136624708E+03  0.00000000000E+00 0. -1.
         21   -1    0    0  501  502  0.00000000000E+00 -0.00000000000E+00 -0.37402052654E+03  0.37402052654E+03  0.00000000000E+00 0.  1.
         23    2    1    2    0    0  0.23149067616E+02 -0.12294606700E+03  0.11262012811E+03  0.19005225789E+03  0.88232379285E+02 0.  0.
         23    2    1    2    0    0 -0.16783414134E+03  0.27684694692E+03 -0.11110822195E+03  0.35402127718E+03  0.90407392915E+02 0.  0.
        -11    1    4    4    0    0 -0.87510651822E+02  0.68689969479E+02 -0.54258147012E+02  0.12377549275E+03  0.00000000000E+00 0. -1.
         11    1    4    4    0    0 -0.80323489513E+02  0.20815697744E+03 -0.56850074935E+02  0.23024578442E+03  0.00000000000E+00 0.  1.
        -13    1    3    3    0    0  0.16984609633E+02 -0.27035089361E+02 -0.10728133467E+02  0.33681832920E+02  0.00000000000E+00 0.  1.
         13    1    3    3    0    0  0.61644579831E+01 -0.95910977639E+02  0.12334826157E+03  0.15637042498E+03  0.00000000000E+00 0. -1.
          3    1    1    2  501    0  0.14468507372E+03 -0.15390087992E+03  0.58338143760E+01  0.21131323855E+03  0.00000000000E+00 0. -1.
<scales pt_clust_5="13000.00000" pt_clust_6="13000.00000" pt_clust_7="13000.00000" pt_clust_8="13000.00000" pt_clust_9="262.92523"></scales>
<clustering>
<clus scale="   88.232">  7  8 -1 -1</clus>
<clus scale="   90.407">  5  6 -1 -1</clus>
<clus scale="  153.090">  1  7  2 -1</clus>
<clus scale="  262.925">  2  9  1 -1</clus>
<clus scale="  262.925">  2  5  1 -1</clus>
</clustering>
</event>
<event>
 9    1  0.1636528E-005  0.1051164E+03  0.7546771E-02  0.1270745E+00
          2   -1    0    0  502    0 -0.00000000000E+00  0.00000000000E+00  0.59864122943E+02  0.59864122943E+02  0.00000000000E+00 0. -1.
         21   -1    0    0  501  502  0.00000000000E+00 -0.00000000000E+00 -0.27154958830E+03  0.27154958830E+03  0.00000000000E+00 0.  1.
         23    2    1    2    0    0  0.59968103100E+02 -0.38925682317E+02 -0.70126089082E+02  0.13348572241E+03  0.88257507232E+02 0.  0.
         23    2    1    2    0    0 -0.23424543132E+02  0.28347876473E+02 -0.82619680324E+02  0.12777665592E+03  0.90269324241E+02 0.  0.
        -11    1    3    3    0    0 -0.35269806071E+01  0.23274049382E+02 -0.73229470751E+01  0.24652515504E+02  0.00000000000E+00 0. -1.
         11    1    3    3    0    0  0.63495083707E+02 -0.62199731699E+02 -0.62803142007E+02  0.10883320690E+03  0.00000000000E+00 0.  1.
        -13    1    4    4    0    0 -0.21822186601E+02  0.54402184941E+02 -0.83071198279E+02  0.10166921627E+03  0.00000000000E+00 0.  1.
         13    1    4    4    0    0 -0.16023565315E+01 -0.26054308468E+02  0.45151795526E+00  0.26107439642E+02  0.00000000000E+00 0. -1.
          2    1    1    2  501    0 -0.36543559968E+02  0.10577805845E+02 -0.58939695947E+02  0.70151332917E+02  0.00000000000E+00 0. -1.
<scales pt_clust_5="13000.00000" pt_clust_6="13000.00000" pt_clust_7="13000.00000" pt_clust_8="13000.00000" pt_clust_9="38.04368"></scales>
<clustering>
<clus scale="   38.044">  2  9  1 -1</clus>
<clus scale="   88.258">  5  6 -1 -1</clus>
<clus scale="   90.269">  7  8 -1 -1</clus>
<clus scale="  103.394">  1  5  2 -1</clus>
<clus scale="   38.044">  2  5  1 -1</clus>
</clustering>
</event>
<event>
 9    1  0.1636528E-005  0.1095159E+03  0.7546771E-02  0.1268577E+00
          1   -1    0    0  502    0 -0.00000000000E+00  0.00000000000E+00  0.60323746980E+03  0.60323746980E+03  0.00000000000E+00 0. -1.
         21   -1    0    0  501  502  0.00000000000E+00 -0.00000000000E+00 -0.32121041769E+02  0.32121041769E+02  0.00000000000E+00 0. -1.
         23    2    1    2    0    0 -0.38742336085E+02  0.38489767392E+02  0.38044060055E+03  0.39144972455E+03  0.74265776128E+02 0.  0.
         23    2    1    2    0    0  0.63632413413E+02 -0.44792052246E+02  0.17907072398E+03  0.21573232218E+03  0.91753466772E+02 0.  0.
        -11    1    4    4    0    0  0.84462014097E+02 -0.24595339647E+02  0.15415137454E+03  0.17748636238E+03  0.00000000000E+00 0. -1.
         11    1    4    4    0    0 -0.20829600685E+02 -0.20196712598E+02  0.24919349436E+02  0.38245959797E+02  0.00000000000E+00 0.  1.
        -13    1    3    3    0    0 -0.35833438652E+02 -0.13171927748E+02  0.20554217435E+03  0.20905769644E+03  0.00000000000E+00 0.  1.
         13    1    3    3    0    0 -0.29088974331E+01  0.51661695140E+02  0.17489842620E+03  0.18239202811E+03  0.00000000000E+00 0. -1.
          1    1    1    2  501    0 -0.24890077328E+02  0.63022848536E+01  0.11605103504E+02  0.28176464844E+02  0.00000000000E+00 0. -1.
<scales pt_clust_5="13000.00000" pt_clust_6="13000.00000" pt_clust_7="13000.00000" pt_clust_8="13000.00000" pt_clust_9="25.67557"></scales>
<clustering>
<clus scale="   25.676">  2  9  1 -1</clus>
<clus scale="   74.266">  7  8 -1 -1</clus>
<clus scale="   91.753">  5  6 -1 -1</clus>
<clus scale="   95.344">  1  7  2 -1</clus>
<clus scale="   25.676">  2  5  1 -1</clus>
</clustering>
</event>
<event>
 9    1  0.1636528E-005  0.1179919E+03  0.7546771E-02  0.1246542E+00
         -2   -1    0    0    0  501 -0.00000000000E+00  0.00000000000E+00  0.96900243457E+03  0.96900243457E+03  0.00000000000E+00 0.  1.
         21   -1    0    0  501  502  0.00000000000E+00 -0.00000000000E+00 -0.58508546049E+02  0.58508546049E+02  0.00000000000E+00 0.  1.
         23    2    1    2    0    0  0.32495692402E+02 -0.72117729811E+02  0.62743627570E+03  0.63892578156E+03  0.91065565913E+02 0.  0.
         23    2    1    2    0    0 -0.66070919587E+02  0.37749559147E+02  0.31103588238E+03  0.33298618285E+03  0.91356894708E+02 0.  0.
        -11    1    4    4    0    0 -0.70932492744E+01  0.48832008383E+02  0.77597843842E+02  0.91958167646E+02  0.00000000000E+00 0.  1.
         11    1    4    4    0    0 -0.58977670312E+02 -0.11082449236E+02  0.23343803854E+03  0.24102801520E+03  0.00000000000E+00 0. -1.
        -13    1    3    3    0    0 -0.19882297039E+02 -0.64643961063E+02  0.34030403717E+03  0.34695963043E+03  0.00000000000E+00 0. -1.
         13    1    3    3    0    0  0.52377989442E+02 -0.74737687485E+01  0.28713223854E+03  0.29196615113E+03  0.00000000000E+00 0.  1.
         -2    1    1    2    0  502  0.33575227184E+02  0.34368170664E+02 -0.27978269565E+02  0.55599016206E+02  0.00000000000E+00 0.  1.
<scales pt_clust_5="13000.00000" pt_clust_6="13000.00000" pt_clust_7="13000.00000" pt_clust_8="13000.00000" pt_clust_9="48.04651"></scales>
<clustering>
<clus scale="   48.047">  2  9  1 -1</clus>
<clus scale="   91.066">  7  8 -1 -1</clus>
<clus scale="   91.357">  5  6 -1 -1</clus>
<clus scale="  117.766">  1  7  2 -1</clus>
<clus scale="   48.047">  2  5  1 -1</clus>
</clustering>
</event>
<event>
 9    1  0.1636528E-005  0.9545824E+02  0.7546771E-02  0.1290271E+00
          1   -1    0    0  502    0 -0.00000000000E+00  0.00000000000E+00  0.38094980582E+03  0.38094980582E+03  0.00000000000E+00 0. -1.
         21   -1    0    0  501  502  0.00000000000E+00 -0.00000000000E+00 -0.45941575618E+02  0.45941575618E+02  0.00000000000E+00 0.  1.
         23    2    1    2    0    0 -0.83283470568E+01  0.38780794363E+02  0.22528075705E+03  0.24619972083E+03  0.91047084884E+02 0.  0.
         23    2    1    2    0    0  0.11616520003E+01 -0.12471614962E+02  0.12046948562E+03  0.15138423373E+03  0.90815189486E+02 0.  0.
        -11    1    3    3    0    0  0.24666730927E+02  0.38016004736E+02  0.48549697345E+02  0.66413382258E+02  0.00000000000E+00 0.  1.
         11    1    3    3    0    0 -0.32995077984E+02  0.76478962763E+00  0.17673105970E+03  0.17978633857E+03  0.00000000000E+00 0. -1.
        -13    1    4    4    0    0  0.10754750999E+02 -0.50219981569E+02  0.55359813688E+02  0.75514370748E+02  0.00000000000E+00 0. -1.
         13    1    4    4    0    0 -0.95930989985E+01  0.37748366608E+02  0.65109671927E+02  0.75869862979E+02  0.00000000000E+00 0.  1.
          1    1    1    2  501    0  0.71666950565E+01 -0.26309179402E+02 -0.10742012458E+02  0.29307426882E+02  0.00000000000E+00 0. -1.
<scales pt_clust_5="13000.00000" pt_clust_6="13000.00000" pt_clust_7="13000.00000" pt_clust_8="13000.00000" pt_clust_9="27.26783"></scales>
<clustering>
<clus scale="   27.268">  2  9  1 -1</clus>
<clus scale="   90.815">  7  8 -1 -1</clus>
<clus scale="   91.047">  5  6 -1 -1</clus>
<clus scale="   95.237">  2  7  1 -1</clus>
<clus scale="   27.268">  2  5  1 -1</clus>
</clustering>
</event>
<event>
 9    1  0.1636528E-005  0.9314043E+02  0.7546771E-02  0.1296660E+00
         21   -1    0    0  501  502  0.00000000000E+00  0.00000000000E+00  0.24653636059E+03  0.24653636059E+03  0.00000000000E+00 0.  1.
          1   -1    0    0  502    0 -0.00000000000E+00 -0.00000000000E+00 -0.76472736469E+02  0.76472736469E+02  0.00000000000E+00 0. -1.
         23    2    1    2    0    0  0.15763602696E+02  0.58823796987E+01  0.59974069672E+00  0.91716564445E+02  0.90158055346E+02 0.  0.
         23    2    1    2    0    0  0.85526205588E+01 -0.18501071435E+02  0.46545797172E+02  0.10535855776E+03  0.92295598466E+02 0.  0.
        -11    1    4    4    0    0 -0.20671567276E+02 -0.63930591959E+01 -0.21385932583E+02  0.30422738404E+02  0.00000000000E+00 0. -1.
         11    1    4    4    0    0  0.29224187835E+02 -0.12108012239E+02  0.67931729755E+02  0.74935819355E+02  0.00000000000E+00 0.  1.
        -11    1    3    3    0    0 -0.13501341869E+02 -0.23607253735E+02  0.30248392173E+02  0.40676207914E+02  0.00000000000E+00 0.  1.
         11    1    3    3    0    0  0.29264944565E+02  0.29489633434E+02 -0.29648651476E+02  0.51040356531E+02  0.00000000000E+00 0. -1.
          1    1    1    2  501    0 -0.24316223255E+02  0.12618691736E+02  0.12291808625E+03  0.12593397485E+03  0.00000000000E+00 0. -1.
<scales pt_clust_5="13000.00000" pt_clust_6="13000.00000" pt_clust_7="13000.00000" pt_clust_8="13000.00000" pt_clust_9="27.39544"></scales>
<clustering>
<clus scale="   27.395">  1  9  2 -1</clus>
<clus scale="   90.158">  7  8 -1 -1</clus>
<clus scale="   91.023">  2  7  1 -1</clus>
<clus scale="   92.296">  5  6 -1 -1</clus>
<clus scale="   27.395">  1  5  2 -1</clus>
</clustering>
</event>
<event>
 9    1  0.1636528E-005  0.1514335E+03  0.7546771E-02  0.1198988E+00
          2   -1    0    0  502    0 -0.00000000000E+00  0.00000000000E+00  0.63501854047E+03  0.63501854047E+03  0.00000000000E+00 0. -1.
         21   -1    0    0  501  502  0.00000000000E+00 -0.00000000000E+00 -0.57666459520E+02  0.57666459520E+02  0.00000000000E+00 0.  1.
         23    2    1    2    0    0  0.49177050806E+02  0.10794781651E+03  0.41622809642E+03  0.44138895191E+03  0.86644475864E+02 0.  0.
         23    2    1    2    0    0 -0.40996019228E+02 -0.12960458973E+03  0.16062162083E+03  0.22814010990E+03  0.88150901276E+02 0.  0.
        -11    1    4    4    0    0  0.27653050551E+02 -0.39118898996E+02  0.39446193326E+02  0.62056277937E+02  0.00000000000E+00 0. -1.
         11    1    4    4    0    0 -0.68649069779E+02 -0.90485690732E+02  0.12117542750E+03  0.16608383196E+03  0.00000000000E+00 0.  1.
        -13    1    3    3    0    0  0.69521619005E+01  0.88303800227E+02  0.17999665026E+03  0.20061078683E+03  0.00000000000E+00 0.  1.
         13    1    3    3    0    0  0.42224888906E+02  0.19644016283E+02  0.23623144617E+03  0.24077816508E+03  0.00000000000E+00 0. -1.
          2    1    1    2  501    0 -0.81810315783E+01  0.21656773218E+02  0.50236369734E+00  0.23155938184E+02  0.00000000000E+00 0. -1.
<scales pt_clust_5="13000.00000" pt_clust_6="13000.00000" pt_clust_7="13000.00000" pt_clust_8="13000.00000" pt_clust_9="23.15049"></scales>
<clustering>
<clus scale="   23.150">  2  9  1 -1</clus>
<clus scale="   86.644">  7  8 -1 -1</clus>
<clus scale="   88.151">  5  6 -1 -1</clus>
<clus scale="  150.562">  1  7  2 -1</clus>
<clus scale="   23.150">  2  5  1 -1</clus>
</clustering>
</event>
<event>
 9    1  0.1636528E-005  0.1064715E+03  0.7546771E-02  0.1267676E+00
         21   -1    0    0  501  502  0.00000000000E+00  0.00000000000E+00  0.79000750513E+02  0.79000750513E+02  0.00000000000E+00 0.  1.
          2   -1    0    0  502    0 -0.00000000000E+00 -0.00000000000E+00 -0.39132968700E+03  0.39132968700E+03  0.00000000000E+00 0. -1.
         23    2    1    2    0    0 -0.57204782694E+02 -0.73437318262E+01 -0.27669737027E+03  0.29713818501E+03  0.91669780808E+02 0.  0.
         23    2    1    2    0    0  0.42122692340E+02  0.22038749037E+02 -0.76120125047E+02  0.12755524585E+03  0.90642372196E+02 0.  0.
        -13    1    3    3    0    0 -0.25601872373E+02  0.36654071418E+02 -0.66936093412E+02  0.80494828540E+02  0.00000000000E+00 0.  1.
         13    1    3    3    0    0 -0.31602910322E+02 -0.43997803244E+02 -0.20976127686E+03  0.21664335647E+03  0.00000000000E+00 0. -1.
        -13    1    4    4    0    0  0.44238077500E+02 -0.27890969323E+02 -0.41470647874E+02  0.66743751062E+02  0.00000000000E+00 0. -1.
         13    1    4    4    0    0 -0.21153851601E+01  0.49929718360E+02 -0.34649477173E+02  0.60811494787E+02  0.00000000000E+00 0.  1.
          2    1    1    2  501    0  0.15082090354E+02 -0.14695017211E+02  0.40488558832E+02  0.45637006656E+02  0.00000000000E+00 0. -1.
<scales pt_clust_5="13000.00000" pt_clust_6="13000.00000" pt_clust_7="13000.00000" pt_clust_8="13000.00000" pt_clust_9="21.05737"></scales>
<clustering>
<clus scale="   21.057">  1  9  2 -1</clus>
<clus scale="   90.642">  7  8 -1 -1</clus>
<clus scale="   91.670">  5  6 -1 -1</clus>
<clus scale="  105.588">  1  7  2 -1</clus>
<clus scale="   21.057">  1  5  2 -1</clus>
</clustering>
</event>
<event>
 9    1  0.1636528E-005  0.1433874E+03  0.7546771E-02  0.1209001E+00
          3   -1    0    0  502    0 -0.00000000000E+00  0.00000000000E+00  0.13508151003E+03  0.13508151003E+03  0.00000000000E+00 0. -1.
         21   -1    0    0  501  502  0.00000000000E+00 -0.00000000000E+00 -0.26075119010E+03  0.26075119010E+03  0.00000000000E+00 0.  1.
         23    2    1    2    0    0 -0.11104297327E+03 -0.91301807158E+01  0.17941328169E+02  0.14262611196E+03  0.87214760469E+02 0.  0.
         23    2    1    2    0    0  0.10823150439E+03  0.63571786773E+02 -0.96406216883E+02  0.18109497223E+03  0.88010224944E+02 0.  0.
        -11    1    4    4    0    0  0.39874849998E+02  0.25527159337E+02 -0.91119505252E+02  0.10268594725E+03  0.00000000000E+00 0.  1.
         11    1    4    4    0    0  0.68356654396E+02  0.38044627436E+02 -0.52867116309E+01  0.78409024970E+02  0.00000000000E+00 0. -1.
        -13    1    3    3    0    0 -0.69541567919E+02 -0.48098589709E+02  0.11532226991E+02  0.85337543086E+02  0.00000000000E+00 0.  1.
         13    1    3    3    0    0 -0.41501405350E+02  0.38968408994E+02  0.64091011786E+01  0.57288568873E+02  0.00000000000E+00 0. -1.
          3    1    1    2  501    0  0.28114688754E+01 -0.54441606057E+02 -0.47204791359E+02  0.72111615948E+02  0.00000000000E+00 0. -1.
<scales pt_clust_5="13000.00000" pt_clust_6="13000.00000" pt_clust_7="13000.00000" pt_clust_8="13000.00000" pt_clust_9="54.51415"></scales>
<clustering>
<clus scale="   54.514">  2  9  1 -1</clus>
<clus scale="   87.215">  7  8 -1 -1</clus>
<clus scale="   88.010">  5  6 -1 -1</clus>
<clus scale="  142.901">  1  7  2 -1</clus>
<clus scale="   54.514">  2  5  1 -1</clus>
</clustering>
</event>
<event>
 9    1  0.1636528E-005  0.1605619E+03  0.7546771E-02  0.1194572E+00
          2   -1    0    0  502    0 -0.00000000000E+00  0.00000000000E+00  0.38744154993E+03  0.38744154993E+03  0.00000000000E+00 0. -1.
         21   -1    0    0  501  502  0.00000000000E+00 -0.00000000000E+00 -0.94876786114E+02  0.94876786114E+02  0.00000000000E+00 0. -1.
         23    2    1    2    0    0  0.56079955904E+00 -0.98856616526E+02  0.13588121569E+03  0.20903670426E+03  0.12433701711E+03 0.  0.
         23    2    1    2    0    0  0.50631594227E+02  0.10043195555E+03  0.50962192638E+02  0.15580760111E+03  0.95019616169E+02 0.  0.
        -11    1    4    4    0    0  0.63088238204E+02  0.30124415140E+02  0.33598717307E+01  0.69992106164E+02  0.00000000000E+00 0.  1.
         11    1    4    4    0    0 -0.12456643977E+02  0.70307540412E+02  0.47602320907E+02  0.85815494951E+02  0.00000000000E+00 0. -1.
        -13    1    3    3    0    0  0.50311569941E+02 -0.69837283910E+01  0.66249073486E+02  0.83480334629E+02  0.00000000000E+00 0. -1.
         13    1    3    3    0    0 -0.49750770381E+02 -0.91872888135E+02  0.69632142203E+02  0.12555636963E+03  0.00000000000E+00 0.  1.
          2    1    1    2  501    0 -0.51192393786E+02 -0.15753390257E+01  0.10572135549E+03  0.11747403066E+03  0.00000000000E+00 0. -1.
<scales pt_clust_5="13000.00000" pt_clust_6="13000.00000" pt_clust_7="13000.00000" pt_clust_8="13000.00000" pt_clust_9="51.21665"></scales>
<clustering>
<clus scale="   51.217">  2  9  1 -1</clus>
<clus scale="   95.020">  5  6 -1 -1</clus>
<clus scale="  124.337">  7  8 -1 -1</clus>
<clus scale="  139.101">  2  5  1 -1</clus>
<clus scale="   51.217">  2  5  1 -1</clus>
</clustering>
</event>
<event>
 9    1  0.1636528E-005  0.9868499E+02  0.7546771E-02  0.1287693E+00
         21   -1    0    0  501  502  0.00000000000E+00  0.00000000000E+00  0.11851708695E+03  0.11851708695E+03  0.00000000000E+00 0.  1.
          1   -1    0    0  502    0 -0.00000000000E+00 -0.00000000000E+00 -0.19114934946E+03  0.19114934946E+03  0.00000000000E+00 0. -1.
         23    2    1    2    0    0  0.68743948332E+01 -0.32228222492E+02 -0.10306327520E+03  0.13488254658E+03  0.80531652456E+02 0.  0.
         23    2    1    2    0    0 -0.69620306836E+01  0.81763504164E+02  0.30232132745E+02  0.12524813140E+03  0.89662545608E+02 0.  0.
        -11    1    4    4    0    0  0.18631991864E+02  0.62267100826E+02  0.54602054316E+02  0.84886555482E+02  0.00000000000E+00 0. -1.
         11    1    4    4    0    0 -0.25594022547E+02  0.19496403338E+02 -0.24369921572E+02  0.40361575919E+02  0.00000000000E+00 0.  1.
        -11    1    3    3    0    0  0.16262072549E+02  0.22606827234E+02 -0.17720717151E+02  0.33008293769E+02  0.00000000000E+00 0.  1.
         11    1    3    3    0    0 -0.93876777157E+01 -0.54835049726E+02 -0.85342558051E+02  0.10187425281E+03  0.00000000000E+00 0. -1.
          1    1    1    2  501    0  0.87635850466E-01 -0.49535281672E+02  0.19887994752E+00  0.49535758433E+02  0.00000000000E+00 0. -1.
<scales pt_clust_5="13000.00000" pt_clust_6="13000.00000" pt_clust_7="13000.00000" pt_clust_8="13000.00000" pt_clust_9="49.53536"></scales>
<clustering>
<clus scale="   49.535">  1  9  2 -1</clus>
<clus scale="   80.532">  7  8 -1 -1</clus>
<clus scale="   89.663">  5  6 -1 -1</clus>
<clus scale="   90.469">  2  7  1 -1</clus>
<clus scale="   49.535">  1  5  2 -1</clus>
</clustering>
</event>
<event>
 9    1  0.1636528E-005  0.1159856E+03  0.7546771E-02  0.1251668E+00
         21   -1    0    0  501  502  0.00000000000E+00  0.00000000000E+00  0.41216423549E+03  0.41216423549E+03  0.00000000000E+00 0. -1.
          3   -1    0    0  502    0 -0.00000000000E+00 -0.00000000000E+00 -0.20800564582E+03  0.20800564582E+03  0.00000000000E+00 0. -1.
         23    2    1    2    0    0  0.64702002900E+02  0.10516555301E+02 -0.17371224988E+03  0.20707713997E+03  0.91695414417E+02 0.  0.
         23    2    1    2    0    0 -0.45913802755E+02  0.38639602302E+02  0.27323869142E+03  0.29597224478E+03  0.96638972693E+02 0.  0.
        -13    1    3    3    0    0  0.84222859389E+02  0.22696605499E+02 -0.15300325298E+03  0.17612104180E+03  0.00000000000E+00 0. -1.
         13    1    3    3    0    0 -0.19520856489E+02 -0.12180050197E+02 -0.20708996901E+02  0.30956098164E+02  0.00000000000E+00 0.  1.
        -13    1    4    4    0    0  0.26455996152E+02  0.15138274804E+02  0.13271646022E+03  0.13617175151E+03  0.00000000000E+00 0. -1.
         13    1    4    4    0    0 -0.72369798908E+02  0.23501327498E+02  0.14052223120E+03  0.15980049327E+03  0.00000000000E+00 0.  1.
          3    1    1    2  501    0 -0.18788200145E+02 -0.49156157603E+02  0.10463214812E+03  0.11712049656E+03  0.00000000000E+00 0. -1.
<scales pt_clust_5="13000.00000" pt_clust_6="13000.00000" pt_clust_7="13000.00000" pt_clust_8="13000.00000" pt_clust_9="52.62437"></scales>
<clustering>
<clus scale="   52.624">  1  9  2 -1</clus>
<clus scale="   91.695">  5  6 -1 -1</clus>
<clus scale="   96.639">  7  8 -1 -1</clus>
<clus scale="  111.900">  2  5  1 -1</clus>
<clus scale="   52.624">  1  5  2 -1</clus>
</clustering>
</event>
<event>
 9    1  0.1636528E-005  0.1191850E+03  0.7546771E-02  0.1245213E+00
          1   -1    0    0  502    0 -0.00000000000E+00  0.00000000000E+00  0.36273187469E+02  0.36273187469E+02  0.00000000000E+00 0. -1.
         21   -1    0    0  501  502  0.00000000000E+00 -0.00000000000E+00 -0.88392914123E+03  0.88392914123E+03  0.00000000000E+00 0. -1.
         23    2    1    2    0    0  0.75376171372E+02 -0.45791722526E+02 -0.12240180816E+03  0.17653854289E+03  0.91679907412E+02 0.  0.
         23    2    1    2    0    0 -0.29955825541E+02  0.26155513048E+02 -0.33274695249E+03  0.34804972491E+03  0.94003267333E+02 0.  0.
        -11    1    3    3    0    0 -0.11106531404E+02 -0.30566552787E+02 -0.61830011856E+02  0.69861431099E+02  0.00000000000E+00 0.  1.
         11    1    3    3    0    0  0.86482702776E+02 -0.15225169739E+02 -0.60571796302E+02  0.10667711179E+03  0.00000000000E+00 0. -1.
        -13    1    4    4    0    0  0.11678556943E+02  0.51809191189E+02 -0.16743883944E+03  0.17565974478E+03  0.00000000000E+00 0.  1.
         13    1    4    4    0    0 -0.41634382484E+02 -0.25653678141E+02 -0.16530811305E+03  0.17238998012E+03  0.00000000000E+00 0. -1.
          1    1    1    2  501    0 -0.45420345831E+02  0.19636209478E+02 -0.39250719311E+03  0.39561406090E+03  0.00000000000E+00 0. -1.
<scales pt_clust_5="13000.00000" pt_clust_6="13000.00000" pt_clust_7="13000.00000" pt_clust_8="13000.00000" pt_clust_9="49.48321"></scales>
<clustering>
<clus scale="   49.483">  2  9  1 -1</clus>
<clus scale="   91.680">  5  6 -1 -1</clus>
<clus scale="   94.003">  7  8 -1 -1</clus>
<clus scale="  117.361">  1  5  2 -1</clus>
<clus scale="   49.483">  2  5  1 -1</clus>
</clustering>
</event>
<event>
 9    1  0.1636528E-005  0.9755411E+02  0.7546771E-02  0.1287821E+00
         21   -1    0    0  501  502  0.00000000000E+00  0.00000000000E+00  0.24369584648E+02  0.24369584648E+02  0.00000000000E+00 0. -1.
         -1   -1    0    0    0  501 -0.00000000000E+00 -0.00000000000E+00 -0.56776449674E+03  0.56776449674E+03  0.00000000000E+00 0.  1.
         23    2    1    2    0    0 -0.14579869765E+02  0.15042774578E+01 -0.26699771806E+03  0.28375692617E+03  0.94949335177E+02 0.  0.
         23    2    1    2    0    0  0.17955078596E+02 -0.37208293767E+02 -0.18392598382E+03  0.20919503216E+03  0.90702546728E+02 0.  0.
        -13    1    4    4    0    0  0.32533090328E+01 -0.52114109878E+02 -0.18059924807E+03  0.18799615122E+03  0.00000000000E+00 0. -1.
         13    1    4    4    0    0  0.14701769564E+02  0.14905816112E+02 -0.33267357425E+01  0.21198880936E+02  0.00000000000E+00 0.  1.
        -13    1    3    3    0    0  0.34459991127E+02  0.47856301395E+00 -0.18520272264E+03  0.18838197495E+03  0.00000000000E+00 0.  1.
         13    1    3    3    0    0 -0.49039860892E+02  0.10257144439E+01 -0.81794995417E+02  0.95374951228E+02  0.00000000000E+00 0. -1.
         -1    1    1    2    0  502 -0.33752088313E+01  0.35704016309E+02 -0.92471210219E+02  0.99182123060E+02  0.00000000000E+00 0.  1.
<scales pt_clust_5="13000.00000" pt_clust_6="13000.00000" pt_clust_7="13000.00000" pt_clust_8="13000.00000" pt_clust_9="35.86321"></scales>
<clustering>
<clus scale="   35.863">  1  9  2 -1</clus>
<clus scale="   90.703">  5  6 -1 -1</clus>
<clus scale="   93.426">  1  5  2 -1</clus>
<clus scale="   94.949">  7  8 -1 -1</clus>
<clus scale="   35.863">  1  5  2 -1</clus>
</clustering>
</event>
<event>
 9    1  0.1636528E-005  0.1016531E+03  0.7546771E-02  0.1277598E+00
         21   -1    0    0  501  502  0.00000000000E+00  0.00000000000E+00  0.52222803217E+02  0.52222803217E+02  0.00000000000E+00 0. -1.
         -1   -1    0    0    0  501 -0.00000000000E+00 -0.00000000000E+00 -0.28788983743E+03  0.28788983743E+03  0.00000000000E+00 0.  1.
         23    2    1    2    0    0  0.30242528311E+02  0.42973809104E+02 -0.14188137104E+03  0.17788378907E+03  0.93546566898E+02 0.  0.
         23    2    1    2    0    0  0.25221674568E+01 -0.26903525093E+02 -0.67898788115E+02  0.11748614695E+03  0.91992327430E+02 0.  0.
        -11    1    4    4    0    0 -0.43818190056E+02 -0.20019189028E+02 -0.26587025631E+02  0.55024282286E+02  0.00000000000E+00 0.  1.
         11    1    4    4    0    0  0.46340357513E+02 -0.68843360646E+01 -0.41311762485E+02  0.62461864662E+02  0.00000000000E+00 0. -1.
        -11    1    3    3    0    0 -0.26230376156E+02  0.62472458331E+01 -0.81917593581E+01  0.28180944540E+02  0.00000000000E+00 0.  1.
         11    1    3    3    0    0  0.56472904468E+02  0.36726563271E+02 -0.13368961169E+03  0.14970284453E+03  0.00000000000E+00 0. -1.
         -1    1    1    2    0  502 -0.32764695768E+02 -0.16070284011E+02 -0.25886875052E+02  0.44742704622E+02  0.00000000000E+00 0.  1.
<scales pt_clust_5="13000.00000" pt_clust_6="13000.00000" pt_clust_7="13000.00000" pt_clust_8="13000.00000" pt_clust_9="36.49355"></scales>
<clustering>
<clus scale="   36.494">  1  9  2 -1</clus>
<clus scale="   91.992">  5  6 -1 -1</clus>
<clus scale="   93.547">  7  8 -1 -1</clus>
<clus scale="  100.225">  1  5  2 -1</clus>
<clus scale="   36.494">  1  5  2 -1</clus>
</clustering>
</event>
<event>
 9    1  0.1636528E-005  0.9499756E+02  0.7546771E-02  0.1292672E+00
          1   -1    0    0  502    0 -0.00000000000E+00  0.00000000000E+00  0.55114546632E+02  0.55114546632E+02  0.00000000000E+00 0. -1.
         21   -1    0    0  501  502  0.00000000000E+00 -0.00000000000E+00 -0.27765170911E+03  0.27765170911E+03  0.00000000000E+00 0.  1.
         23    2    1    2    0    0 -0.26183513729E+02  0.15624819912E+02 -0.54632372306E+02  0.11090852613E+03  0.91576709241E+02 0.  0.
         23    2    1    2    0    0 -0.11549611517E+02  0.84643630945E+00 -0.77563829246E+02  0.12257741816E+03  0.94207037179E+02 0.  0.
        -11    1    4    4    0    0  0.20404985240E+02 -0.12913451462E+02 -0.83819183398E+02  0.87228299060E+02  0.00000000000E+00 0.  1.
         11    1    4    4    0    0 -0.31954596757E+02  0.13759887771E+02  0.62553541519E+01  0.35349119097E+02  0.00000000000E+00 0. -1.
        -13    1    3    3    0    0  0.15197643341E+02  0.23582561201E+02 -0.62071675045E+02  0.68117533710E+02  0.00000000000E+00 0. -1.
         13    1    3    3    0    0 -0.41381157069E+02 -0.79577412893E+01  0.74393027382E+01  0.42790992417E+02  0.00000000000E+00 0.  1.
          1    1    1    2  501    0  0.37733125246E+02 -0.16471256221E+02 -0.90340960927E+02  0.99280311460E+02  0.00000000000E+00 0. -1.
<scales pt_clust_5="13000.00000" pt_clust_6="13000.00000" pt_clust_7="13000.00000" pt_clust_8="13000.00000" pt_clust_9="41.17148"></scales>
<clustering>
<clus scale="   41.171">  2  9  1 -1</clus>
<clus scale="   91.577">  7  8 -1 -1</clus>
<clus scale="   92.390">  1  7  2 -1</clus>
<clus scale="   94.207">  5  6 -1 -1</clus>
<clus scale="   41.171">  2  5  1 -1</clus>
</clustering>
</event>
<event>
 9    1  0.1636528E-005  0.1739928E+03  0.7546771E-02  0.1189244E+00
         21   -1    0    0  501  502  0.00000000000E+00  0.00000000000E+00  0.35574817789E+03  0.35574817789E+03  0.00000000000E+00 0. -1.
         -1   -1    0    0    0  501 -0.00000000000E+00 -0.00000000000E+00 -0.27384888538E+03  0.27384888538E+03  0.00000000000E+00 0.  1.
         23    2    1    2    0    0 -0.97915868765E+01  0.59026348987E+02 -0.10285347076E+03  0.16027652792E+03  0.10737664507E+03 0.  0.
         23    2    1    2    0    0  0.13145086927E+03  0.59440405825E+02  0.23641153396E+03  0.29182692538E+03  0.91978519853E+02 0.  0.
        -11    1    3    3    0    0 -0.36314165113E+02  0.20111127350E+02 -0.10523090977E+03  0.11312259015E+03  0.00000000000E+00 0. -1.
         11    1    3    3    0    0  0.26522578236E+02  0.38915221637E+02  0.23774390078E+01  0.47153937774E+02  0.00000000000E+00 0.  1.
        -13    1    4    4    0    0  0.37353887760E+02  0.31155288690E+02  0.17183814676E+02  0.51587289432E+02  0.00000000000E+00 0.  1.
         13    1    4    4    0    0  0.94096981506E+02  0.28285117135E+02  0.21922771928E+03  0.24023963595E+03  0.00000000000E+00 0. -1.
         -1    1    1    2    0  502 -0.12165928239E+03 -0.11846675481E+03 -0.51658770688E+02  0.17749360996E+03  0.00000000000E+00 0.  1.
<scales pt_clust_5="13000.00000" pt_clust_6="13000.00000" pt_clust_7="13000.00000" pt_clust_8="13000.00000" pt_clust_9="147.69380"></scales>
<clustering>
<clus scale="   91.979">  7  8 -1 -1</clus>
<clus scale="  107.377">  5  6 -1 -1</clus>
<clus scale="  122.922">  2  5  1 -1</clus>
<clus scale="  147.694">  1  9  2 -1</clus>
<clus scale="  147.694">  1  5  2 -1</clus>
</clustering>
</event>
<event>
 9    1  0.1636528E-005  0.1118971E+03  0.7546771E-02  0.1257907E+00
          1   -1    0    0  502    0 -0.00000000000E+00  0.00000000000E+00  0.48998647275E+02  0.48998647275E+02  0.00000000000E+00 0. -1.
         21   -1    0    0  501  502  0.00000000000E+00 -0.00000000000E+00 -0.42895511113E+03  0.42895511113E+03  0.00000000000E+00 0. -1.
         23    2    1    2    0    0 -0.23497186533E+02  0.66072279858E+02 -0.74638888764E+02  0.13569024376E+03  0.89012440679E+02 0.  0.
         23    2    1    2    0    0  0.51139368592E+02 -0.36076422605E+02 -0.18882336729E+03  0.21883441705E+03  0.91200300239E+02 0.  0.
        -13    1    3    3    0    0 -0.41700966473E+02  0.44059816798E+02 -0.55368255224E+01  0.60917111700E+02  0.00000000000E+00 0.  1.
         13    1    3    3    0    0  0.18203779939E+02  0.22012463060E+02 -0.69102063242E+02  0.74773132062E+02  0.00000000000E+00 0. -1.
        -13    1    4    4    0    0  0.91754739888E+01 -0.43162586755E+02 -0.16341635995E+03  0.16926932657E+03  0.00000000000E+00 0.  1.
         13    1    4    4    0    0  0.41963894603E+02  0.70861641501E+01 -0.25407007344E+02  0.49565090485E+02  0.00000000000E+00 0. -1.
          1    1    1    2  501    0 -0.27642182059E+02 -0.29995857253E+02 -0.11649420780E+03  0.12342909759E+03  0.00000000000E+00 0. -1.
<scales pt_clust_5="13000.00000" pt_clust_6="13000.00000" pt_clust_7="13000.00000" pt_clust_8="13000.00000" pt_clust_9="40.79022"></scales>
<clustering>
<clus scale="   40.790">  2  9  1 -1</clus>
<clus scale="   89.012">  5  6 -1 -1</clus>
<clus scale="   91.200">  7  8 -1 -1</clus>
<clus scale="  110.121">  1  5  2 -1</clus>
<clus scale="   40.790">  2  5  1 -1</clus>
</clustering>
</event>
<event>
 9    1  0.1636528E-005  0.1614378E+03  0.7546771E-02  0.1205780E+00
         21   -1    0    0  501  502  0.00000000000E+00  0.00000000000E+00  0.40375329884E+03  0.40375329884E+03  0.00000000000E+00 0. -1.
          2   -1    0    0  502    0 -0.00000000000E+00 -0.00000000000E+00 -0.40890757224E+03  0.40890757224E+03  0.00000000000E+00 0. -1.
         23    2    1    2    0    0 -0.45872629376E+02 -0.32992278936E+02 -0.25557283241E+03  0.27717926667E+03  0.91203533988E+02 0.  0.
         23    2    1    2    0    0  0.67580455241E+02 -0.10338846873E+03 -0.84439673790E+02  0.17326485423E+03  0.87374812192E+02 0.  0.
        -13    1    4    4    0    0  0.13249181661E+02 -0.87849116947E+02 -0.74377078930E+02  0.11586612116E+03  0.00000000000E+00 0. -1.
         13    1    4    4    0    0  0.54331273580E+02 -0.15539351780E+02 -0.10062594860E+02  0.57398733069E+02  0.00000000000E+00 0.  1.
        -13    1    3    3    0    0  0.22824005774E+02  0.10291494594E+01 -0.23512018481E+02  0.32784285889E+02  0.00000000000E+00 0.  1.
         13    1    3    3    0    0 -0.68696635150E+02 -0.34021428396E+02 -0.23206081393E+03  0.24439498078E+03  0.00000000000E+00 0. -1.
          2    1    1    2  501    0 -0.21707825866E+02  0.13638074766E+03  0.33485823279E+03  0.36221675017E+03  0.00000000000E+00 0. -1.
<scales pt_clust_5="13000.00000" pt_clust_6="13000.00000" pt_clust_7="13000.00000" pt_clust_8="13000.00000" pt_clust_9="135.74910"></scales>
<clustering>
<clus scale="   87.375">  5  6 -1 -1</clus>
<clus scale="   91.204">  7  8 -1 -1</clus>
<clus scale="  107.289">  2  7  1 -1</clus>
<clus scale="  135.749">  1  9  2 -1</clus>
<clus scale="  135.749">  1  5  2 -1</clus>
</clustering>
</event>
<event>
 9    1  0.1636528E-005  0.1001906E+03  0.7546771E-02  0.1282862E+00
         21   -1    0    0  501  502  0.00000000000E+00  0.00000000000E+00  0.23123362626E+03  0.23123362626E+03  0.00000000000E+00 0. -1.
          2   -1    0    0  502    0 -0.00000000000E+00 -0.00000000000E+00 -0.75025906991E+02  0.75025906991E+02  0.00000000000E+00 0. -1.
         23    2    1    2    0    0  0.34593775728E+02  0.26890389713E+02 -0.10744971311E+02  0.10126297809E+03  0.90658226016E+02 0.  0.
         23    2    1    2    0    0 -0.41599213580E+02 -0.74070076265E+01  0.15361776782E+03  0.18036936486E+03  0.84553715821E+02 0.  0.
        -11    1    4    4    0    0 -0.36184104326E+02 -0.40729818602E+02  0.60984682604E+02  0.81776152034E+02  0.00000000000E+00 0.  1.
         11    1    4    4    0    0 -0.54151092538E+01  0.33322810976E+02  0.92633085212E+02  0.98593212827E+02  0.00000000000E+00 0. -1.
        -11    1    3    3    0    0  0.48922502968E+02  0.50973373669E+02 -0.16734604212E+02  0.72606770332E+02  0.00000000000E+00 0. -1.
         11    1    3    3    0    0 -0.14328727240E+02 -0.24082983957E+02  0.59896329011E+01  0.28656207755E+02  0.00000000000E+00 0.  1.
          2    1    1    2  501    0  0.70054378521E+01 -0.19483382086E+02  0.13334922759E+02  0.24627190299E+02  0.00000000000E+00 0. -1.
<scales pt_clust_5="13000.00000" pt_clust_6="13000.00000" pt_clust_7="13000.00000" pt_clust_8="13000.00000" pt_clust_9="20.70455"></scales>
<clustering>
<clus scale="   20.705">  1  9  2 -1</clus>
<clus scale="   84.554">  5  6 -1 -1</clus>
<clus scale="   90.658">  7  8 -1 -1</clus>
<clus scale="   94.703">  1  5  2 -1</clus>
<clus scale="   20.705">  1  5  2 -1</clus>
</clustering>
</event>
<event>
 9    1  0.1636528E-005  0.9885169E+02  0.7546771E-02  0.1298908E+00
          1   -1    0    0  502    0 -0.00000000000E+00  0.00000000000E+00  0.70350227088E+02  0.70350227088E+02  0.00000000000E+00 0. -1.
         21   -1    0    0  501  502  0.00000000000E+00 -0.00000000000E+00 -0.44889932635E+03  0.44889932635E+03  0.00000000000E+00 0.  1.
         23    2    1    2    0    0 -0.33549390578E+02  0.17906849758E+02  0.33041448576E+02  0.79307982343E+02  0.61251953952E+02 0.  0.
         23    2    1    2    0    0  0.53082107770E+02 -0.45069184445E+02 -0.36596362968E+03  0.38336299629E+03  0.90492359472E+02 0.  0.
        -11    1    3    3    0    0 -0.10632323416E+02  0.23883612836E+02 -0.11733084346E+02  0.28655514855E+02  0.00000000000E+00 0. -1.
         11    1    3    3    0    0 -0.22917067162E+02 -0.59767630784E+01  0.44774532922E+02  0.50652467488E+02  0.00000000000E+00 0.  1.
        -11    1    4    4    0    0  0.53143338556E+02 -0.70747973785E+02 -0.28660454635E+03  0.29995275664E+03  0.00000000000E+00 0. -1.
         11    1    4    4    0    0 -0.61230786188E-01  0.25678789340E+02 -0.79359083335E+02  0.83410239653E+02  0.00000000000E+00 0.  1.
          1    1    1    2  501    0 -0.19532717192E+02  0.27162334687E+02 -0.45626918154E+02  0.56578574803E+02  0.00000000000E+00 0. -1.
<scales pt_clust_5="13000.00000" pt_clust_6="13000.00000" pt_clust_7="13000.00000" pt_clust_8="13000.00000" pt_clust_9="33.45623"></scales>
<clustering>
<clus scale="   33.456">  2  9  1 -1</clus>
<clus scale="   61.252">  5  6 -1 -1</clus>
<clus scale="   73.038">  1  5  2 -1</clus>
<clus scale="   90.492">  7  8 -1 -1</clus>
<clus scale="   33.456">  2  5  1 -1</clus>
</clustering>
</event>
<event>
 9    1  0.1636528E-005  0.1186005E+03  0.7546771E-02  0.1250506E+00
         21   -1    0    0  501  502  0.00000000000E+00  0.00000000000E+00  0.22472338074E+03  0.22472338074E+03  0.00000000000E+00 0. -1.
         -1   -1    0    0    0  501 -0.00000000000E+00 -0.00000000000E+00 -0.12691522891E+03  0.12691522891E+03  0.00000000000E+00 0.  1.
         23    2    1    2    0    0  0.57825001492E+02 -0.13038159755E+02 -0.58899766523E+02  0.13061080829E+03  0.10038065719E+03 0.  0.
         23    2    1    2    0    0 -0.69254675772E+02  0.31052296669E+02  0.76884137835E+02  0.13840224526E+03  0.86507546486E+02 0.  0.
        -11    1    3    3    0    0  0.36038826164E+02 -0.46338107688E+02 -0.67955811517E+02  0.89799830369E+02  0.00000000000E+00 0.  1.
         11    1    3    3    0    0  0.21786175328E+02  0.33299947933E+02  0.90560449940E+01  0.40810977919E+02  0.00000000000E+00 0. -1.
        -13    1    4    4    0    0 -0.15340208614E+02  0.38849063770E+02  0.72601468766E+02  0.83758850417E+02  0.00000000000E+00 0. -1.
         13    1    4    4    0    0 -0.53914467158E+02 -0.77967671011E+01  0.42826690685E+01  0.54643394848E+02  0.00000000000E+00 0.  1.
         -1    1    1    2    0  502  0.11429674280E+02 -0.18014136913E+02  0.79823780522E+02  0.82625556093E+02  0.00000000000E+00 0.  1.
<scales pt_clust_5="13000.00000" pt_clust_6="13000.00000" pt_clust_7="13000.00000" pt_clust_8="13000.00000" pt_clust_9="21.33416"></scales>
<clustering>
<clus scale="   21.334">  1  9  2 -1</clus>
<clus scale="   86.508">  7  8 -1 -1</clus>
<clus scale="  100.381">  5  6 -1 -1</clus>
<clus scale="  107.114">  1  7  2 -1</clus>
<clus scale="   21.334">  1  5  2 -1</clus>
</clustering>
</event>
<event>
 9    1  0.1636528E-005  0.9393462E+02  0.7546771E-02  0.1294418E+00
         -1   -1    0    0    0  501 -0.00000000000E+00  0.00000000000E+00  0.43488898931E+02  0.43488898931E+02  0.00000000000E+00 0.  1.
         21   -1    0    0  501  502  0.00000000000E+00 -0.00000000000E+00 -0.52071301241E+03  0.52071301241E+03  0.00000000000E+00 0.  1.
         23    2    1    2    0    0 -0.20267113283E+01  0.18855053852E+02 -0.53718332453E+02  0.10820670088E+03  0.91996794832E+02 0.  0.
         23    2    1    2    0    0 -0.34895755526E+02 -0.99734029184E+01 -0.14402227984E+03  0.17394347812E+03  0.90535815951E+02 0.  0.
        -11    1    4    4    0    0 -0.62965651190E+02  0.66044880644E+01 -0.10932711556E+03  0.12633570631E+03  0.00000000000E+00 0.  1.
         11    1    4    4    0    0  0.28069895664E+02 -0.16577890983E+02 -0.34695164280E+02  0.47607771807E+02  0.00000000000E+00 0. -1.
        -13    1    3    3    0    0  0.34100351876E+02  0.38339415155E+02 -0.39549889867E+02  0.64783783010E+02  0.00000000000E+00 0.  1.
         13    1    3    3    0    0 -0.36127063204E+02 -0.19484361303E+02 -0.14168442585E+02  0.43422917871E+02  0.00000000000E+00 0. -1.
         -1    1    1    2    0  502  0.36922466855E+02 -0.88816509339E+01 -0.27948350119E+03  0.28205173235E+03  0.00000000000E+00 0.  1.
<scales pt_clust_5="13000.00000" pt_clust_6="13000.00000" pt_clust_7="13000.00000" pt_clust_8="13000.00000" pt_clust_9="37.97568"></scales>
<clustering>
<clus scale="   37.976">  2  9  1 -1</clus>
<clus scale="   90.536">  5  6 -1 -1</clus>
<clus scale="   91.997">  7  8 -1 -1</clus>
<clus scale="   92.504">  2  5  1 -1</clus>
<clus scale="   37.976">  2  5  1 -1</clus>
</clustering>
</event>
<event>
 9    1  0.1636528E-005  0.1447448E+03  0.7546771E-02  0.1208450E+00
         21   -1    0    0  501  502  0.00000000000E+00  0.00000000000E+00  0.27220870843E+03  0.27220870843E+03  0.00000000000E+00 0. -1.
          2   -1    0    0  502    0 -0.00000000000E+00 -0.00000000000E+00 -0.38298225796E+03  0.38298225796E+03  0.00000000000E+00 0.  1.
         23    2    1    2    0    0  0.11964415906E+03 -0.50973520337E+02 -0.25115502273E+03  0.30126324092E+03  0.10376738562E+03 0.  0.
         23    2    1    2    0    0 -0.45468082418E+02  0.45871149621E+02 -0.66009959647E+02  0.13455236659E+03  0.97854564003E+02 0.  0.
        -13    1    4    4    0    0  0.56313718786E+01 -0.24463996560E+02  0.47189211279E+00  0.25108208998E+02  0.00000000000E+00 0. -1.
         13    1    4    4    0    0 -0.51099454297E+02  0.70335146181E+02 -0.66481851759E+02  0.10944415759E+03  0.00000000000E+00 0.  1.
        -13    1    3    3    0    0  0.13723145562E+03 -0.36478104512E+02 -0.22917421991E+03  0.26959960607E+03  0.00000000000E+00 0. -1.
         13    1    3    3    0    0 -0.17587296554E+02 -0.14495415825E+02 -0.21980802814E+02  0.31663634858E+02  0.00000000000E+00 0.  1.
          2    1    1    2  501    0 -0.74176076643E+02  0.51023707160E+01  0.20639143284E+03  0.21937535888E+03  0.00000000000E+00 0.  1.
<scales pt_clust_5="13000.00000" pt_clust_6="13000.00000" pt_clust_7="13000.00000" pt_clust_8="13000.00000" pt_clust_9="74.35136"></scales>
<clustering>
<clus scale="   74.351">  1  9  2 -1</clus>
<clus scale="   97.855">  5  6 -1 -1</clus>
<clus scale="  103.767">  7  8 -1 -1</clus>
<clus scale="  140.566">  1  5  2 -1</clus>
<clus scale="   74.351">  1  5  2 -1</clus>
</clustering>
</event>
<event>
 9    1  0.1636528E-005  0.1479203E+03  0.7546771E-02  0.1203081E+00
          2   -1    0    0  502    0 -0.00000000000E+00  0.00000000000E+00  0.53898830012E+03  0.53898830012E+03  0.00000000000E+00 0. -1.
         21   -1    0    0  501  502  0.00000000000E+00 -0.00000000000E+00 -0.82719924905E+03  0.82719924905E+03  0.00000000000E+00 0. -1.
         23    2    1    2    0    0 -0.94921529238E+02  0.50498401547E+02  0.41199904783E+03  0.43544671953E+03  0.91161641436E+02 0.  0.
         23    2    1    2    0    0  0.16253298425E+03 -0.13096948018E+03 -0.51409000099E+01  0.22777002470E+03  0.91009777448E+02 0.  0.
        -11    1    3    3    0    0 -0.71786768859E+02  0.76968968280E+02  0.32481537714E+03  0.34144192989E+03  0.00000000000E+00 0. -1.
         11    1    3    3    0    0 -0.23134760380E+02 -0.26470566733E+02  0.87183670691E+02  0.94004789644E+02  0.00000000000E+00 0.  1.
        -11    1    4    4    0    0  0.44317474645E+02 -0.68752842470E+02  0.33973695861E+02  0.88573155736E+02  0.00000000000E+00 0. -1.
         11    1    4    4    0    0  0.11821550960E+03 -0.62216637705E+02 -0.39114595871E+02  0.13919686896E+03  0.00000000000E+00 0.  1.
          2    1    1    2  501    0 -0.67611455009E+02  0.80471078628E+02 -0.69506909674E+03  0.70297080494E+03  0.00000000000E+00 0. -1.
<scales pt_clust_5="13000.00000" pt_clust_6="13000.00000" pt_clust_7="13000.00000" pt_clust_8="13000.00000" pt_clust_9="105.10425"></scales>
<clustering>
<clus scale="   91.010">  7  8 -1 -1</clus>
<clus scale="   91.162">  5  6 -1 -1</clus>
<clus scale="  105.104">  2  9  1 -1</clus>
<clus scale="  147.827">  2  7  1 -1</clus>
<clus scale="  105.104">  2  5  1 -1</clus>
</clustering>
</event>
<event>
 9    1  0.1636528E-005  0.1050476E+03  0.7546771E-02  0.1274774E+00
         21   -1    0    0  501  502  0.00000000000E+00  0.00000000000E+00  0.33051181730E+02  0.33051181730E+02  0.00000000000E+00 0. -1.
         -1   -1    0    0    0  501 -0.00000000000E+00 -0.00000000000E+00 -0.46096443434E+03  0.46096443434E+03  0.00000000000E+00 0.  1.
         23    2    1    2    0    0  0.29544996646E+02 -0.29984986775E+02 -0.22403393063E+03  0.24520146055E+03  0.90335751082E+02 0.  0.
         23    2    1    2    0    0 -0.11150544963E+02  0.17694267216E+02 -0.20228742630E+03  0.22663416968E+03  0.10002710774E+03 0.  0.
        -11    1    3    3    0    0 -0.16658006275E+02 -0.14988944892E+02 -0.80318995108E+01  0.23804811526E+02  0.00000000000E+00 0.  1.
         11    1    3    3    0    0  0.46203002921E+02 -0.14996041883E+02 -0.21600203112E+03  0.22139664903E+03  0.00000000000E+00 0. -1.
        -13    1    4    4    0    0  0.44650313465E+02  0.10487894445E+02 -0.94734189621E+02  0.10525309072E+03  0.00000000000E+00 0. -1.
         13    1    4    4    0    0 -0.55800858428E+02  0.72063727708E+01 -0.10755323668E+03  0.12138107896E+03  0.00000000000E+00 0.  1.
         -1    1    1    2    0  502 -0.18394451683E+02  0.12290719559E+02 -0.15918956781E+01  0.22179985840E+02  0.00000000000E+00 0.  1.
<scales pt_clust_5="13000.00000" pt_clust_6="13000.00000" pt_clust_7="13000.00000" pt_clust_8="13000.00000" pt_clust_9="22.12279"></scales>
<clustering>
<clus scale="   22.123">  1  9  2 -1</clus>
<clus scale="   90.336">  5  6 -1 -1</clus>
<clus scale="   95.865">  2  5  1 -1</clus>
<clus scale="  100.027">  7  8 -1 -1</clus>
<clus scale="   22.123">  1  5  2 -1</clus>
</clustering>
</event>
<event>
 9    1  0.1636528E-005  0.1154827E+03  0.7546771E-02  0.1250992E+00
          2   -1    0    0  502    0 -0.00000000000E+00  0.00000000000E+00  0.33982672808E+03  0.33982672808E+03  0.00000000000E+00 0. -1.
         21   -1    0    0  501  502  0.00000000000E+00 -0.00000000000E+00 -0.54909153926E+02  0.54909153926E+02  0.00000000000E+00 0.  1.
         23    2    1    2    0    0 -0.36146020581E+02  0.71824473416E+02  0.17354239601E+03  0.21202735015E+03  0.91505979116E+02 0.  0.
         23    2    1    2    0    0  0.32246532603E+02 -0.50164151689E+02  0.11735480757E+03  0.15990213995E+03  0.90775891733E+02 0.  0.
        -13    1    4    4    0    0  0.41684409759E+02 -0.72904139906E+02  0.91711789739E+02  0.12435294934E+03  0.00000000000E+00 0.  1.
         13    1    4    4    0    0 -0.94378771560E+01  0.22739988216E+02  0.25643017830E+02  0.35549190605E+02  0.00000000000E+00 0. -1.
        -13    1    3    3    0    0 -0.65692210599E+02  0.59456981548E+02  0.13971674005E+03  0.16544294073E+03  0.00000000000E+00 0. -1.
         13    1    3    3    0    0  0.29546190018E+02  0.12367491868E+02  0.33825655958E+02  0.46584409416E+02  0.00000000000E+00 0.  1.
          2    1    1    2  501    0  0.38994879779E+01 -0.21660321727E+02 -0.59796294252E+01  0.22806391908E+02  0.00000000000E+00 0. -1.
<scales pt_clust_5="13000.00000" pt_clust_6="13000.00000" pt_clust_7="13000.00000" pt_clust_8="13000.00000" pt_clust_9="22.00853"></scales>
<clustering>
<clus scale="   22.009">  2  9  1 -1</clus>
<clus scale="   90.776">  5  6 -1 -1</clus>
<clus scale="   91.506">  7  8 -1 -1</clus>
<clus scale="  114.905">  2  5  1 -1</clus>
<clus scale="   22.009">  2  5  1 -1</clus>
</clustering>
</event>
<event>
 9    1  0.1636528E-005  0.2204527E+03  0.7546771E-02  0.1152384E+00
          1   -1    0    0  502    0 -0.00000000000E+00  0.00000000000E+00  0.13027664430E+04  0.13027664430E+04  0.00000000000E+00 0. -1.
         21   -1    0    0  501  502  0.00000000000E+00 -0.00000000000E+00 -0.76858992043E+02  0.76858992043E+02  0.00000000000E+00 0. -1.
         23    2    1    2    0    0  0.57943156176E+02  0.80159829207E+02  0.22190055757E+03  0.26252533372E+03  0.99482087972E+02 0.  0.
         23    2    1    2    0    0 -0.80221084197E+01 -0.25870667195E+03  0.77774931389E+03  0.82458757452E+03  0.89761776126E+02 0.  0.
        -11    1    4    4    0    0 -0.21178980328E+02 -0.24167048237E+02  0.46420914427E+02  0.56457919945E+02  0.00000000000E+00 0.  1.
         11    1    4    4    0    0  0.13156871908E+02 -0.23453962372E+03  0.73132839947E+03  0.76812965458E+03  0.00000000000E+00 0. -1.
        -11    1    3    3    0    0  0.58707302692E+02  0.17466014480E+02  0.48467599925E+02  0.78107088626E+02  0.00000000000E+00 0. -1.
         11    1    3    3    0    0 -0.76414651566E+00  0.62693814727E+02  0.17343295765E+03  0.18441824509E+03  0.00000000000E+00 0.  1.
          1    1    1    2  501    0 -0.49921047756E+02  0.17854684275E+03  0.22625757952E+03  0.29251252683E+03  0.00000000000E+00 0. -1.
<scales pt_clust_5="13000.00000" pt_clust_6="13000.00000" pt_clust_7="13000.00000" pt_clust_8="13000.00000" pt_clust_9="201.35100"></scales>
<clustering>
<clus scale="   89.762">  5  6 -1 -1</clus>
<clus scale="   99.482">  7  8 -1 -1</clus>
<clus scale="  140.284">  1  7  2 -1</clus>
<clus scale="  201.351">  2  9  1 -1</clus>
<clus scale="  201.351">  2  5  1 -1</clus>
</clustering>
</event>
<event>
 9    1  0.1636528E-005  0.1044386E+03  0.7546771E-02  0.1272158E+00
          4   -1    0    0  502    0 -0.00000000000E+00  0.00000000000E+00  0.20335387994E+03  0.20335387994E+03  0.00000000000E+00 0. -1.
         21   -1    0    0  501  502  0.00000000000E+00 -0.00000000000E+00 -0.87637262279E+02  0.87637262279E+02  0.00000000000E+00 0.  1.
         23    2    1    2    0    0 -0.34242030306E+01 -0.18639668518E+02  0.70215363666E+02  0.12101349506E+03  0.96720764486E+02 0.  0.
         23    2    1    2    0    0 -0.11091977749E+02  0.54824369085E+02  0.60068251055E+02  0.12835734607E+03  0.98684700384E+02 0.  0.
        -11    1    4    4    0    0 -0.48847585055E+02  0.26097360750E+02  0.58975646348E+02  0.80902939786E+02  0.00000000000E+00 0. -1.
         11    1    4    4    0    0  0.37755607306E+02  0.28727008335E+02  0.10926047067E+01  0.47454406286E+02  0.00000000000E+00 0.  1.
        -13    1    3    3    0    0  0.30289157200E+02 -0.11888889904E+02 -0.97512080800E+01  0.33968585577E+02  0.00000000000E+00 0.  1.
         13    1    3    3    0    0 -0.33713360231E+02 -0.67507786139E+01  0.79966571746E+02  0.87044909482E+02  0.00000000000E+00 0. -1.
          4    1    1    2  501    0  0.14516180779E+02 -0.36184700567E+02 -0.14566997058E+02  0.41620301090E+02  0.00000000000E+00 0. -1.
<scales pt_clust_5="13000.00000" pt_clust_6="13000.00000" pt_clust_7="13000.00000" pt_clust_8="13000.00000" pt_clust_9="38.98785"></scales>
<clustering>
<clus scale="   38.988">  2  9  1 -1</clus>
<clus scale="   96.721">  7  8 -1 -1</clus>
<clus scale="   98.685">  5  6 -1 -1</clus>
<clus scale="  102.585">  1  7  2 -1</clus>
<clus scale="   38.988">  2  5  1 -1</clus>
</clustering>
</event>
<event>
 9    1  0.1636528E-005  0.1276559E+03  0.7546771E-02  0.1232105E+00
         21   -1    0    0  501  502  0.00000000000E+00  0.00000000000E+00  0.84676803258E+02  0.84676803258E+02  0.00000000000E+00 0.  1.
          3   -1    0    0  502    0 -0.00000000000E+00 -0.00000000000E+00 -0.27640139236E+03  0.27640139236E+03  0.00000000000E+00 0. -1.
         23    2    1    2    0    0 -0.83786079929E+02 -0.13621146868E+02 -0.13032721262E+03  0.17951837034E+03  0.89643851473E+02 0.  0.
         23    2    1    2    0    0  0.92298982019E+02 -0.22783560814E+02 -0.47444475672E+02  0.14165424065E+03  0.93684325787E+02 0.  0.
        -11    1    3    3    0    0 -0.41094384092E+02  0.32002825600E+02 -0.93393424399E+02  0.10693577966E+03  0.00000000000E+00 0. -1.
         11    1    3    3    0    0 -0.42691695837E+02 -0.45623972468E+02 -0.36933788225E+02  0.72582590680E+02  0.00000000000E+00 0.  1.
        -13    1    4    4    0    0  0.29654701565E+02 -0.78348780365E+01  0.28644813986E+02  0.41967987884E+02  0.00000000000E+00 0.  1.
         13    1    4    4    0    0  0.62644280454E+02 -0.14948682778E+02 -0.76089289658E+02  0.99686252769E+02  0.00000000000E+00 0. -1.
          3    1    1    2  501    0 -0.85129020902E+01  0.36404707682E+02 -0.13952900807E+02  0.39905584626E+02  0.00000000000E+00 0. -1.
<scales pt_clust_5="13000.00000" pt_clust_6="13000.00000" pt_clust_7="13000.00000" pt_clust_8="13000.00000" pt_clust_9="37.38679"></scales>
<clustering>
<clus scale="   37.387">  1  9  2 -1</clus>
<clus scale="   89.644">  5  6 -1 -1</clus>
<clus scale="   93.684">  7  8 -1 -1</clus>
<clus scale="  124.721">  2  5  1 -1</clus>
<clus scale="   37.387">  1  5  2 -1</clus>
</clustering>
</event>
<event>
 9    1  0.1636528E-005  0.2105438E+03  0.7546771E-02  0.1165658E+00
         21   -1    0    0  501  502  0.00000000000E+00  0.00000000000E+00  0.67698336696E+03  0.67698336696E+03  0.00000000000E+00 0. -1.
          1   -1    0    0  502    0 -0.00000000000E+00 -0.00000000000E+00 -0.19867418171E+03  0.19867418171E+03  0.00000000000E+00 0. -1.
         23    2    1    2    0    0 -0.35139773406E+02  0.65572751608E+02  0.12389528581E+03  0.17121076408E+03  0.91806832331E+02 0.  0.
         23    2    1    2    0    0 -0.12291127896E+03 -0.17235336859E+03 -0.69901252387E+02  0.23923115352E+03  0.86789939331E+02 0.  0.
        -11    1    3    3    0    0  0.23947842763E+02  0.12282747193E+02  0.38474218333E+01  0.27187638852E+02  0.00000000000E+00 0.  1.
         11    1    3    3    0    0 -0.59087616169E+02  0.53290004415E+02  0.12004786398E+03  0.14402312523E+03  0.00000000000E+00 0. -1.
        -11    1    4    4    0    0  0.13167077594E+02 -0.18658809921E+02 -0.16201698916E+01  0.22894280301E+02  0.00000000000E+00 0.  1.
         11    1    4    4    0    0 -0.13607835656E+03 -0.15369455866E+03 -0.68281082496E+02  0.21633687322E+03  0.00000000000E+00 0. -1.
          1    1    1    2  501    0  0.15805105237E+03  0.10678061698E+03  0.42431515183E+03  0.46521563107E+03  0.00000000000E+00 0. -1.
<scales pt_clust_5="13000.00000" pt_clust_6="13000.00000" pt_clust_7="13000.00000" pt_clust_8="13000.00000" pt_clust_9="191.82335"></scales>
<clustering>
<clus scale="   86.790">  7  8 -1 -1</clus>
<clus scale="   91.807">  5  6 -1 -1</clus>
<clus scale="  118.166">  2  5  1 -1</clus>
<clus scale="  191.823">  1  9  2 -1</clus>
<clus scale="  191.823">  1  5  2 -1</clus>
</clustering>
</event>
<event>
 9    1  0.1636528E-005  0.3938031E+03  0.7546771E-02  0.1045978E+00
         -1   -1    0    0    0  501 -0.00000000000E+00  0.00000000000E+00  0.89641200990E+03  0.89641200990E+03  0.00000000000E+00 0.  1.
         21   -1    0    0  501  502  0.00000000000E+00 -0.00000000000E+00 -0.19285918008E+03  0.19285918008E+03  0.00000000000E+00 0.  1.
         23    2    1    2    0    0  0.83207951346E+02  0.36667550966E+03  0.41902751661E+03  0.57027501492E+03  0.90857252953E+02 0.  0.
         23    2    1    2    0    0 -0.73893904449E+02 -0.38719206446E+03  0.24258252210E+03  0.47138443054E+03  0.89325234047E+02 0.  0.
        -11    1    3    3    0    0  0.45236845573E+02  0.10887048374E+03  0.79160395882E+02  0.14200536153E+03  0.00000000000E+00 0. -1.
         11    1    3    3    0    0  0.37971105773E+02  0.25780502592E+03  0.33986712073E+03  0.42826965339E+03  0.00000000000E+00 0.  1.
        -13    1    4    4    0    0 -0.14966703145E+02 -0.88520501112E+02  0.14383701205E+02  0.90921791560E+02  0.00000000000E+00 0. -1.
         13    1    4    4    0    0 -0.58927201304E+02 -0.29867156335E+03  0.22819882090E+03  0.38046263898E+03  0.00000000000E+00 0.  1.
         -1    1    1    2    0  502 -0.93140468967E+01  0.20516554802E+02  0.41942791113E+02  0.47611744527E+02  0.00000000000E+00 0.  1.
<scales pt_clust_5="13000.00000" pt_clust_6="13000.00000" pt_clust_7="13000.00000" pt_clust_8="13000.00000" pt_clust_9="22.53178"></scales>
<clustering>
<clus scale="   22.532">  2  9  1 -1</clus>
<clus scale="   89.325">  7  8 -1 -1</clus>
<clus scale="   90.857">  5  6 -1 -1</clus>
<clus scale="  393.452">  2  7  1 -1</clus>
<clus scale="   22.532">  2  5  1 -1</clus>
</clustering>
</event>
<event>
 9    1  0.1636528E-005  0.1163868E+03  0.7546771E-02  0.1250120E+00
          1   -1    0    0  502    0 -0.00000000000E+00  0.00000000000E+00  0.24833153523E+03  0.24833153523E+03  0.00000000000E+00 0. -1.
         21   -1    0    0  501  502  0.00000000000E+00 -0.00000000000E+00 -0.18293647143E+03  0.18293647143E+03  0.00000000000E+00 0. -1.
         23    2    1    2    0    0  0.77884666090E+02  0.13876817962E+02  0.11864269894E+03  0.16850108266E+03  0.89766015593E+02 0.  0.
         23    2    1    2    0    0 -0.61700553996E+02  0.13873413381E+02  0.72178430473E+02  0.13329222084E+03  0.92507623199E+02 0.  0.
        -11    1    3    3    0    0  0.34725388605E+02  0.13398893637E+02  0.11967223743E+03  0.12532688210E+03  0.00000000000E+00 0.  1.
         11    1    3    3    0    0  0.43159277484E+02  0.47792432409E+00 -0.10295384859E+01  0.43174200562E+02  0.00000000000E+00 0. -1.
        -11    1    4    4    0    0 -0.45623348811E+02 -0.10831182558E+02 -0.82690881980E+01  0.47614937698E+02  0.00000000000E+00 0.  1.
         11    1    4    4    0    0 -0.16077205185E+02  0.24704595940E+02  0.80447518671E+02  0.85677283147E+02  0.00000000000E+00 0. -1.
          1    1    1    2  501    0 -0.16184112093E+02 -0.27750231343E+02 -0.12542606561E+03  0.12947470316E+03  0.00000000000E+00 0. -1.
<scales pt_clust_5="13000.00000" pt_clust_6="13000.00000" pt_clust_7="13000.00000" pt_clust_8="13000.00000" pt_clust_9="32.12477"></scales>
<clustering>
<clus scale="   32.125">  2  9  1 -1</clus>
<clus scale="   89.766">  5  6 -1 -1</clus>
<clus scale="   92.508">  7  8 -1 -1</clus>
<clus scale="  114.220">  1  5  2 -1</clus>
<clus scale="   32.125">  2  5  1 -1</clus>
</clustering>
</event>
<event>
 9    1  0.1636528E-005  0.9698494E+02  0.7546771E-02  0.1288721E+00
         -2   -1    0    0    0  501 -0.00000000000E+00  0.00000000000E+00  0.25892117762E+03  0.25892117762E+03  0.00000000000E+00 0.  1.
         21   -1    0    0  501  502  0.00000000000E+00 -0.00000000000E+00 -0.58086609051E+02  0.58086609051E+02  0.00000000000E+00 0. -1.
         23    2    1    2    0    0 -0.18645120587E+01  0.42756742106E+02  0.10321962989E+03  0.14380339705E+03  0.90518007096E+02 0.  0.
         23    2    1    2    0    0  0.13023713575E+02  0.37336955251E+01  0.60922866049E+02  0.11293668049E+03  0.94125132641E+02 0.  0.
        -13    1    4    4    0    0  0.23012591142E+02  0.42708390268E+02  0.12729398133E+02  0.50155991937E+02  0.00000000000E+00 0. -1.
         13    1    4    4    0    0 -0.99888775667E+01 -0.38974694743E+02  0.48193467916E+02  0.62780688553E+02  0.00000000000E+00 0.  1.
        -13    1    3    3    0    0 -0.25698514764E+02 -0.15752988038E+02  0.11142961737E+02  0.32136208387E+02  0.00000000000E+00 0.  1.
         13    1    3    3    0    0  0.23834002705E+02  0.58509730144E+02  0.92076668153E+02  0.11166718867E+03  0.00000000000E+00 0. -1.
         -2    1    1    2    0  502 -0.11159201516E+02 -0.46490437631E+02  0.36692072628E+02  0.60267709127E+02  0.00000000000E+00 0.  1.
<scales pt_clust_5="13000.00000" pt_clust_6="13000.00000" pt_clust_7="13000.00000" pt_clust_8="13000.00000" pt_clust_9="47.81097"></scales>
<clustering>
<clus scale="   47.811">  2  9  1 -1</clus>
<clus scale="   90.518">  7  8 -1 -1</clus>
<clus scale="   93.488">  1  7  2 -1</clus>
<clus scale="   94.125">  5  6 -1 -1</clus>
<clus scale="   47.811">  2  5  1 -1</clus>
</clustering>
</event>
<event>
 9    1  0.1636528E-005  0.1648784E+03  0.7546771E-02  0.1183772E+00
          2   -1    0    0  502    0 -0.00000000000E+00  0.00000000000E+00  0.74290939220E+03  0.74290939220E+03  0.00000000000E+00 0. -1.
         21   -1    0    0  501  502  0.00000000000E+00 -0.00000000000E+00 -0.54853742238E+02  0.54853742238E+02  0.00000000000E+00 0.  1.
         23    2    1    2    0    0  0.19790831168E+02 -0.13960324695E+03  0.37182616445E+03  0.40746042230E+03  0.88817541157E+02 0.  0.
         23    2    1    2    0    0 -0.37937211161E+02  0.12768575909E+03  0.32788261961E+03  0.36566304577E+03  0.91975897568E+02 0.  0.
        -11    1    3    3    0    0  0.20386553308E+02  0.58309809249E+01  0.47934154907E+02  0.52414645863E+02  0.00000000000E+00 0. -1.
         11    1    3    3    0    0 -0.59572214003E+00 -0.14543422788E+03  0.32389200954E+03  0.35504577644E+03  0.00000000000E+00 0.  1.
        -11    1    4    4    0    0  0.82254283281E+01  0.66686739142E+02  0.23962449265E+03  0.24886678430E+03  0.00000000000E+00 0. -1.
         11    1    4    4    0    0 -0.46162639489E+02  0.60999019953E+02  0.88258126965E+02  0.11679626148E+03  0.00000000000E+00 0.  1.
          2    1    1    2  501    0  0.18146379993E+02  0.11917487859E+02 -0.11653134104E+02  0.24639666357E+02  0.00000000000E+00 0. -1.
<scales pt_clust_5="13000.00000" pt_clust_6="13000.00000" pt_clust_7="13000.00000" pt_clust_8="13000.00000" pt_clust_9="21.70985"></scales>
<clustering>
<clus scale="   21.710">  2  9  1 -1</clus>
<clus scale="   88.818">  5  6 -1 -1</clus>
<clus scale="   91.976">  7  8 -1 -1</clus>
<clus scale="  163.138">  1  5  2 -1</clus>
<clus scale="   21.710">  2  5  1 -1</clus>
</clustering>
</event>
<event>
 9    1  0.1636528E-005  0.9476738E+02  0.7546771E-02  0.1307772E+00
          2   -1    0    0  502    0 -0.00000000000E+00  0.00000000000E+00  0.14656939131E+03  0.14656939131E+03  0.00000000000E+00 0. -1.
         21   -1    0    0  501  502  0.00000000000E+00 -0.00000000000E+00 -0.10766418059E+03  0.10766418059E+03  0.00000000000E+00 0. -1.
         23    2    1    2    0    0 -0.65930014919E+01  0.61160599345E+01  0.41999276386E+02  0.80975381271E+02  0.68645460864E+02 0.  0.
         23    2    1    2    0    0  0.29826764176E+02  0.68867924448E+01  0.52618322539E+02  0.11151070406E+03  0.93428504651E+02 0.  0.
        -13    1    4    4    0    0 -0.48990063000E+01  0.34502382503E+02  0.57124115748E+02  0.66914716326E+02  0.00000000000E+00 0. -1.
         13    1    4    4    0    0  0.34725770476E+02 -0.27615590058E+02 -0.45057932084E+01  0.44595987732E+02  0.00000000000E+00 0.  1.
        -13    1    3    3    0    0 -0.12970242371E+02 -0.17121631851E+02 -0.99779398868E+01  0.23684103293E+02  0.00000000000E+00 0.  1.
         13    1    3    3    0    0  0.63772408794E+01  0.23237691786E+02  0.51977216273E+02  0.57291277977E+02  0.00000000000E+00 0. -1.
          2    1    1    2  501    0 -0.23233762684E+02 -0.13002852379E+02 -0.55712388201E+02  0.61747486568E+02  0.00000000000E+00 0. -1.
<scales pt_clust_5="13000.00000" pt_clust_6="13000.00000" pt_clust_7="13000.00000" pt_clust_8="13000.00000" pt_clust_9="26.62484"></scales>
<clustering>
<clus scale="   26.625">  2  9  1 -1</clus>
<clus scale="   68.645">  7  8 -1 -1</clus>
<clus scale="   70.457">  1  7  2 -1</clus>
<clus scale="   93.429">  5  6 -1 -1</clus>
<clus scale="   26.625">  2  5  1 -1</clus>
</clustering>
</event>
<event>
 9    1  0.1636528E-005  0.1246863E+03  0.7546771E-02  0.1235688E+00
          1   -1    0    0  502    0 -0.00000000000E+00  0.00000000000E+00  0.61504219404E+02  0.61504219404E+02  0.00000000000E+00 0. -1.
         21   -1    0    0  501  502  0.00000000000E+00 -0.00000000000E+00 -0.45850017263E+03  0.45850017263E+03  0.00000000000E+00 0. -1.
         23    2    1    2    0    0 -0.78801281007E+02 -0.14134212544E+01 -0.41233814195E+02  0.12758106330E+03  0.91460705400E+02 0.  0.
         23    2    1    2    0    0  0.10247326193E+03  0.25069505391E-01 -0.26502620781E+03  0.29864007108E+03  0.91903379632E+02 0.  0.
        -11    1    4    4    0    0  0.52861644502E+02 -0.45842184253E+02 -0.12880385358E+03  0.14658203169E+03  0.00000000000E+00 0. -1.
         11    1    4    4    0    0  0.49611617431E+02  0.45867253758E+02 -0.13622235423E+03  0.15205803939E+03  0.00000000000E+00 0.  1.
        -13    1    3    3    0    0 -0.27546872379E+02 -0.33466529611E+02 -0.50358980181E+02  0.66444455502E+02  0.00000000000E+00 0. -1.
         13    1    3    3    0    0 -0.51254408627E+02  0.32053108357E+02  0.91251659856E+01  0.61136607800E+02  0.00000000000E+00 0.  1.
          1    1    1    2  501    0 -0.23671980926E+02  0.13883517490E+01 -0.90735931216E+02  0.93783257648E+02  0.00000000000E+00 0. -1.
<scales pt_clust_5="13000.00000" pt_clust_6="13000.00000" pt_clust_7="13000.00000" pt_clust_8="13000.00000" pt_clust_9="23.71266"></scales>
<clustering>
<clus scale="   23.713">  2  9  1 -1</clus>
<clus scale="   91.461">  7  8 -1 -1</clus>
<clus scale="   91.903">  5  6 -1 -1</clus>
<clus scale="  124.360">  1  7  2 -1</clus>
<clus scale="   23.713">  2  5  1 -1</clus>
</clustering>
</event>
<event>
 9    1  0.1636528E-005  0.1937796E+03  0.7546771E-02  0.1155255E+00
         -1   -1    0    0    0  501 -0.00000000000E+00  0.00000000000E+00  0.37065707882E+03  0.37065707882E+03  0.00000000000E+00 0.  1.
         21   -1    0    0  501  502  0.00000000000E+00 -0.00000000000E+00 -0.15441441893E+03  0.15441441893E+03  0.00000000000E+00 0. -1.
         23    2    1    2    0    0 -0.15109749564E+03  0.97851902175E+02  0.17121197183E+03  0.26473102079E+03  0.91452316100E+02 0.  0.
         23    2    1    2    0    0  0.13590004450E+03 -0.80825703766E+02  0.94151310864E+02  0.20617693259E+03  0.92966885026E+02 0.  0.
        -13    1    3    3    0    0 -0.35694535287E+02 -0.15896404766E+02  0.43017966550E+02  0.58114894648E+02  0.00000000000E+00 0.  1.
         13    1    3    3    0    0 -0.11540296035E+03  0.11374830694E+03  0.12819400528E+03  0.20661612614E+03  0.00000000000E+00 0. -1.
        -13    1    4    4    0    0  0.10507326898E+03 -0.94625241674E+02  0.98207212374E+02  0.17215976527E+03  0.00000000000E+00 0.  1.
         13    1    4    4    0    0  0.30826775520E+02  0.13799537909E+02 -0.40559015102E+01  0.34017167320E+02  0.00000000000E+00 0. -1.
         -1    1    1    2    0  502  0.15197451136E+02 -0.17026198409E+02 -0.49120622808E+02  0.54163544367E+02  0.00000000000E+00 0.  1.
<scales pt_clust_5="13000.00000" pt_clust_6="13000.00000" pt_clust_7="13000.00000" pt_clust_8="13000.00000" pt_clust_9="22.82222"></scales>
<clustering>
<clus scale="   22.822">  2  9  1 -1</clus>
<clus scale="   91.452">  5  6 -1 -1</clus>
<clus scale="   92.967">  7  8 -1 -1</clus>
<clus scale="  193.058">  1  5  2 -1</clus>
<clus scale="   22.822">  2  5  1 -1</clus>
</clustering>
</event>
<event>
 9    1  0.1636528E-005  0.1054988E+03  0.7546771E-02  0.1269524E+00
         -1   -1    0    0    0  501 -0.00000000000E+00  0.00000000000E+00  0.16460441045E+03  0.16460441045E+03  0.00000000000E+00 0.  1.
         21   -1    0    0  501  502  0.00000000000E+00 -0.00000000000E+00 -0.22226358434E+03  0.22226358434E+03  0.00000000000E+00 0.  1.
         23    2    1    2    0    0  0.70173832430E+02  0.26523380677E+01  0.73930207667E+02  0.13680466839E+03  0.91205482468E+02 0.  0.
         23    2    1    2    0    0 -0.30905291564E+02 -0.31185267712E+01  0.16452785324E+02  0.96900932820E+02  0.90300799446E+02 0.  0.
        -13    1    3    3    0    0  0.88734452471E+02  0.13374926434E+02  0.43874301115E+02  0.99888167522E+02  0.00000000000E+00 0.  1.
         13    1    3    3    0    0 -0.18560620042E+02 -0.10722588366E+02  0.30055906553E+02  0.36916500868E+02  0.00000000000E+00 0. -1.
        -13    1    4    4    0    0 -0.61411736242E+02  0.40513538906E+01  0.21432035998E+02  0.65170138741E+02  0.00000000000E+00 0. -1.
         13    1    4    4    0    0  0.30506444678E+02 -0.71698806619E+01 -0.49792506743E+01  0.31730794079E+02  0.00000000000E+00 0.  1.
         -1    1    1    2    0  502 -0.39268540866E+02  0.46618870358E+00 -0.14804216688E+03  0.15316239358E+03  0.00000000000E+00 0.  1.
<scales pt_clust_5="13000.00000" pt_clust_6="13000.00000" pt_clust_7="13000.00000" pt_clust_8="13000.00000" pt_clust_9="39.27131"></scales>
<clustering>
<clus scale="   39.271">  2  9  1 -1</clus>
<clus scale="   90.301">  7  8 -1 -1</clus>
<clus scale="   91.205">  5  6 -1 -1</clus>
<clus scale="  104.718">  2  7  1 -1</clus>
<clus scale="   39.271">  2  5  1 -1</clus>
</clustering>
</event>
<event>
 9    1  0.1636528E-005  0.1110674E+03  0.7546771E-02  0.1259234E+00
         -2   -1    0    0    0  501 -0.00000000000E+00  0.00000000000E+00  0.13109990870E+03  0.13109990870E+03  0.00000000000E+00 0.  1.
         21   -1    0    0  501  502  0.00000000000E+00 -0.00000000000E+00 -0.23713710303E+03  0.23713710303E+03  0.00000000000E+00 0. -1.
         23    2    1    2    0    0  0.55997943061E+02  0.16183703319E+02  0.65870642500E+02  0.12642776596E+03  0.90814957925E+02 0.  0.
         23    2    1    2    0    0 -0.85147999890E+02  0.12348771639E+02 -0.14785930346E+03  0.19445779491E+03  0.92459647071E+02 0.  0.
        -11    1    3    3    0    0  0.37286239967E+02  0.39696999191E+02  0.77059334648E+02  0.94362367987E+02  0.00000000000E+00 0.  1.
         11    1    3    3    0    0  0.18711703094E+02 -0.23513295872E+02 -0.11188692148E+02  0.32065397977E+02  0.00000000000E+00 0. -1.
        -11    1    4    4    0    0 -0.55207919242E+02  0.32838864165E+02 -0.29543493613E+02  0.70704479077E+02  0.00000000000E+00 0. -1.
         11    1    4    4    0    0 -0.29940080648E+02 -0.20490092525E+02 -0.11831580984E+03  0.12375331583E+03  0.00000000000E+00 0.  1.
         -2    1    1    2    0  502  0.29150056829E+02 -0.28532474958E+02 -0.24048533379E+02  0.47351450854E+02  0.00000000000E+00 0.  1.
<scales pt_clust_5="13000.00000" pt_clust_6="13000.00000" pt_clust_7="13000.00000" pt_clust_8="13000.00000" pt_clust_9="40.79005"></scales>
<clustering>
<clus scale="   40.790">  2  9  1 -1</clus>
<clus scale="   90.815">  5  6 -1 -1</clus>
<clus scale="   92.460">  7  8 -1 -1</clus>
<clus scale="  109.702">  1  5  2 -1</clus>
<clus scale="   40.790">  2  5  1 -1</clus>
</clustering>
</event>
<event>
 9    1  0.1636528E-005  0.9893585E+02  0.7546771E-02  0.1285241E+00
         21   -1    0    0  501  502  0.00000000000E+00  0.00000000000E+00  0.21855373713E+03  0.21855373713E+03  0.00000000000E+00 0. -1.
         -3   -1    0    0    0  501 -0.00000000000E+00 -0.00000000000E+00 -0.83400132519E+02  0.83400132519E+02  0.00000000000E+00 0.  1.
         23    2    1    2    0    0  0.11929419303E+02  0.19670782769E+02 -0.39933990903E+01  0.98022998098E+02  0.95201419003E+02 0.  0.
         23    2    1    2    0    0  0.16857850732E+02 -0.40218359258E+02  0.58648423303E+02  0.11600515710E+03  0.90088042300E+02 0.  0.
        -11    1    3    3    0    0  0.31138138720E+02  0.92637190090E+00  0.37409696161E+02  0.48681898224E+02  0.00000000000E+00 0. -1.
         11    1    3    3    0    0 -0.19208719416E+02  0.18744410868E+02 -0.41403095251E+02  0.49341099874E+02  0.00000000000E+00 0.  1.
        -11    1    4    4    0    0  0.13969236895E+02  0.23180703222E+02  0.42720703478E+02  0.50572157231E+02  0.00000000000E+00 0.  1.
         11    1    4    4    0    0  0.28886138371E+01 -0.63399062479E+02  0.15927719824E+02  0.65432999870E+02  0.00000000000E+00 0. -1.
         -3    1    1    2    0  502 -0.28787270035E+02  0.20547576489E+02  0.80498580401E+02  0.87925714454E+02  0.00000000000E+00 0.  1.
<scales pt_clust_5="13000.00000" pt_clust_6="13000.00000" pt_clust_7="13000.00000" pt_clust_8="13000.00000" pt_clust_9="35.36820"></scales>
<clustering>
<clus scale="   35.368">  1  9  2 -1</clus>
<clus scale="   90.088">  7  8 -1 -1</clus>
<clus scale="   94.026">  1  7  2 -1</clus>
<clus scale="   95.201">  5  6 -1 -1</clus>
<clus scale="   35.368">  1  5  2 -1</clus>
</clustering>
</event>
<event>
 9    1  0.1636528E-005  0.1574296E+03  0.7546771E-02  0.1191901E+00
          3   -1    0    0  502    0 -0.00000000000E+00  0.00000000000E+00  0.10387172177E+03  0.10387172177E+03  0.00000000000E+00 0. -1.
         21   -1    0    0  501  502  0.00000000000E+00 -0.00000000000E+00 -0.36550231333E+03  0.36550231333E+03  0.00000000000E+00 0.  1.
         23    2    1    2    0    0  0.10957475634E+03 -0.76702751051E+02 -0.10439847294E+02  0.16193050906E+03  0.90678333179E+02 0.  0.
         23    2    1    2    0    0 -0.96455059759E+02  0.59348952702E+02 -0.17375372062E+03  0.22700862449E+03  0.92285878780E+02 0.  0.
        -11    1    4    4    0    0 -0.68430101574E+02  0.55999065789E+02 -0.53195887334E+02  0.10319097150E+03  0.00000000000E+00 0. -1.
         11    1    4    4    0    0 -0.28024958184E+02  0.33498869134E+01 -0.12055783329E+03  0.12381765298E+03  0.00000000000E+00 0.  1.
        -11    1    3    3    0    0  0.10219141491E+03 -0.46395098761E+02 -0.39814072784E+02  0.11908295790E+03  0.00000000000E+00 0. -1.
         11    1    3    3    0    0  0.73833414363E+01 -0.30307652289E+02  0.29374225490E+02  0.42847551169E+02  0.00000000000E+00 0.  1.
          3    1    1    2  501    0 -0.13119696583E+02  0.17353798348E+02 -0.77437023651E+02  0.80434901551E+02  0.00000000000E+00 0. -1.
<scales pt_clust_5="13000.00000" pt_clust_6="13000.00000" pt_clust_7="13000.00000" pt_clust_8="13000.00000" pt_clust_9="21.75502"></scales>
<clustering>
<clus scale="   21.755">  2  9  1 -1</clus>
<clus scale="   90.678">  7  8 -1 -1</clus>
<clus scale="   92.286">  5  6 -1 -1</clus>
<clus scale="  156.493">  1  7  2 -1</clus>
<clus scale="   21.755">  2  5  1 -1</clus>
</clustering>
</event>
<event>
 9    1  0.1636528E-005  0.9788195E+02  0.7546771E-02  0.1285180E+00
          1   -1    0    0  502    0 -0.00000000000E+00  0.00000000000E+00  0.27432615028E+03  0.27432615028E+03  0.00000000000E+00 0. -1.
         21   -1    0    0  501  502  0.00000000000E+00 -0.00000000000E+00 -0.88730075728E+02  0.88730075728E+02  0.00000000000E+00 0. -1.
         23    2    1    2    0    0 -0.27189014575E+02  0.38907983390E+02  0.13144953276E+03  0.16775688867E+03  0.92791811866E+02 0.  0.
         23    2    1    2    0    0 -0.22356890807E+02 -0.21374874698E+02  0.89399636313E+02  0.13201436824E+03  0.92080305242E+02 0.  0.
        -13    1    3    3    0    0 -0.12066070771E+02  0.24874682999E+02  0.14194318297E+03  0.14461053596E+03  0.00000000000E+00 0. -1.
         13    1    3    3    0    0 -0.15122943803E+02  0.14033300391E+02 -0.10493650212E+02  0.23146352713E+02  0.00000000000E+00 0.  1.
        -13    1    4    4    0    0 -0.39194912923E+02 -0.38866055682E+02  0.20365067588E+02  0.58834917023E+02  0.00000000000E+00 0.  1.
         13    1    4    4    0    0  0.16838022116E+02  0.17491180984E+02  0.69034568726E+02  0.73179451215E+02  0.00000000000E+00 0. -1.
          1    1    1    2  501    0  0.49545905382E+02 -0.17533108692E+02 -0.35253094520E+02  0.63284969098E+02  0.00000000000E+00 0. -1.
<scales pt_clust_5="13000.00000" pt_clust_6="13000.00000" pt_clust_7="13000.00000" pt_clust_8="13000.00000" pt_clust_9="52.55670"></scales>
<clustering>
<clus scale="   52.557">  2  9  1 -1</clus>
<clus scale="   92.080">  7  8 -1 -1</clus>
<clus scale="   92.792">  5  6 -1 -1</clus>
<clus scale="   97.208">  2  7  1 -1</clus>
<clus scale="   52.557">  2  5  1 -1</clus>
</clustering>
</event>
<event>
 9    1  0.1636528E-005  0.9168491E+02  0.7546771E-02  0.1299679E+00
         -2   -1    0    0    0  501 -0.00000000000E+00  0.00000000000E+00  0.46238777451E+02  0.46238777451E+02  0.00000000000E+00 0.  1.
         21   -1    0    0  501  502  0.00000000000E+00 -0.00000000000E+00 -0.25218139215E+03  0.25218139215E+03  0.00000000000E+00 0. -1.
         23    2    1    2    0    0  0.18338693399E+02 -0.48386809812E+01 -0.57642365953E+02  0.10879523954E+03  0.90299730259E+02 0.  0.
         23    2    1    2    0    0 -0.11305695394E+02 -0.16119634323E+02 -0.93196348387E+02  0.13025192377E+03  0.88838859367E+02 0.  0.
        -11    1    3    3    0    0  0.42747011089E+02  0.37150783681E+01  0.28530882871E+01  0.43002893822E+02  0.00000000000E+00 0.  1.
         11    1    3    3    0    0 -0.24408317690E+02 -0.85537593493E+01 -0.60495454240E+02  0.65792345718E+02  0.00000000000E+00 0. -1.
        -11    1    4    4    0    0 -0.20926495857E+02 -0.50415103334E+02 -0.47854469231E+02  0.72592362535E+02  0.00000000000E+00 0.  1.
         11    1    4    4    0    0  0.96208004632E+01  0.34295469011E+02 -0.45341879155E+02  0.57659561233E+02  0.00000000000E+00 0. -1.
         -2    1    1    2    0  502 -0.70329980051E+01  0.20958315304E+02 -0.55103900361E+02  0.59373006294E+02  0.00000000000E+00 0.  1.
<scales pt_clust_5="13000.00000" pt_clust_6="13000.00000" pt_clust_7="13000.00000" pt_clust_8="13000.00000" pt_clust_9="22.10688"></scales>
<clustering>
<clus scale="   22.107">  2  9  1 -1</clus>
<clus scale="   88.839">  7  8 -1 -1</clus>
<clus scale="   90.246">  2  7  1 -1</clus>
<clus scale="   90.300">  5  6 -1 -1</clus>
<clus scale="   22.107">  2  5  1 -1</clus>
</clustering>
</event>
<event>
 9    1  0.1636528E-005  0.1726350E+03  0.7546771E-02  0.1178174E+00
         21   -1    0    0  501  502  0.00000000000E+00  0.00000000000E+00  0.16913080210E+03  0.16913080210E+03  0.00000000000E+00 0.  1.
          1   -1    0    0  502    0 -0.00000000000E+00 -0.00000000000E+00 -0.31703993524E+03  0.31703993524E+03  0.00000000000E+00 0. -1.
         23    2    1    2    0    0  0.49716668052E+02  0.13206575359E+03 -0.20148917577E+03  0.26353176822E+03  0.94540967612E+02 0.  0.
         23    2    1    2    0    0 -0.37648391915E+02 -0.97862669885E+02 -0.44182570646E+01  0.15423358197E+03  0.11302200335E+03 0.  0.
        -11    1    3    3    0    0  0.29067181429E+02  0.14132796506E+03 -0.18868198401E+03  0.23752765278E+03  0.00000000000E+00 0. -1.
         11    1    3    3    0    0  0.20649486622E+02 -0.92622114731E+01 -0.12807191753E+02  0.26004115438E+02  0.00000000000E+00 0.  1.
        -13    1    4    4    0    0 -0.70489835548E+02 -0.97266637170E+02 -0.11366398904E+02  0.12065989659E+03  0.00000000000E+00 0.  1.
         13    1    4    4    0    0  0.32841443633E+02 -0.59603271445E+00  0.69481418391E+01  0.33573685379E+02  0.00000000000E+00 0. -1.
          1    1    1    2  501    0 -0.12068276137E+02 -0.34203083701E+02  0.57998299696E+02  0.68405387151E+02  0.00000000000E+00 0. -1.
<scales pt_clust_5="13000.00000" pt_clust_6="13000.00000" pt_clust_7="13000.00000" pt_clust_8="13000.00000" pt_clust_9="36.26974"></scales>
<clustering>
<clus scale="   36.270">  1  9  2 -1</clus>
<clus scale="   94.541">  5  6 -1 -1</clus>
<clus scale="  113.022">  7  8 -1 -1</clus>
<clus scale="  161.142">  2  5  1 -1</clus>
<clus scale="   36.270">  1  5  2 -1</clus>
</clustering>
</event>
<event>
 9    1  0.1636528E-005  0.1514892E+03  0.7546771E-02  0.1217487E+00
          2   -1    0    0  502    0 -0.00000000000E+00  0.00000000000E+00  0.10043198897E+04  0.10043198897E+04  0.00000000000E+00 0. -1.
         21   -1    0    0  501  502  0.00000000000E+00 -0.00000000000E+00 -0.53515321600E+02  0.53515321600E+02  0.00000000000E+00 0. -1.
         23    2    1    2    0    0 -0.28078346212E+02  0.33720985082E+02  0.20349669400E+03  0.22726907511E+03  0.91185687868E+02 0.  0.
         23    2    1    2    0    0  0.13778669619E+03 -0.57110675193E+02  0.67291417369E+03  0.69596516174E+03  0.96473925651E+02 0.  0.
        -13    1    4    4    0    0 -0.79472062991E+01 -0.24751054623E+02  0.14669752146E+03  0.14898300438E+03  0.00000000000E+00 0.  1.
         13    1    4    4    0    0  0.14573390249E+03 -0.32359620570E+02  0.52621665224E+03  0.54698215736E+03  0.00000000000E+00 0. -1.
        -13    1    3    3    0    0 -0.20766451502E+02  0.64951061163E+02  0.15208464498E+03  0.16667220852E+03  0.00000000000E+00 0.  1.
         13    1    3    3    0    0 -0.73118947094E+01 -0.31230076081E+02  0.51412049017E+02  0.60596866589E+02  0.00000000000E+00 0. -1.
          2    1    1    2  501    0 -0.10970834997E+03  0.23389690111E+02  0.74393700368E+02  0.13460097441E+03  0.00000000000E+00 0. -1.
<scales pt_clust_5="13000.00000" pt_clust_6="13000.00000" pt_clust_7="13000.00000" pt_clust_8="13000.00000" pt_clust_9="116.79788"></scales>
<clustering>
<clus scale="   91.186">  7  8 -1 -1</clus>
<clus scale="   96.474">  5  6 -1 -1</clus>
<clus scale="  101.195">  1  7  2 -1</clus>
<clus scale="  116.798">  2  9  1 -1</clus>
<clus scale="  116.798">  2  5  1 -1</clus>
</clustering>
</event>
<event>
 9    1  0.1636528E-005  0.1007514E+03  0.7546771E-02  0.1279349E+00
         21   -1    0    0  501  502  0.00000000000E+00  0.00000000000E+00  0.14903262474E+03  0.14903262474E+03  0.00000000000E+00 0. -1.
          2   -1    0    0  502    0 -0.00000000000E+00 -0.00000000000E+00 -0.16719681893E+03  0.16719681893E+03  0.00000000000E+00 0. -1.
         23    2    1    2    0    0  0.20669747860E+02 -0.49874149330E+02 -0.87312183438E+02  0.13855067658E+03  0.93049467248E+02 0.  0.
         23    2    1    2    0    0 -0.27280625661E+02 -0.10900354962E+02  0.18089205317E+02  0.98028007571E+02  0.91756311198E+02 0.  0.
        -11    1    4    4    0    0  0.19613620255E+02  0.25255790093E+02 -0.85451652931E+01  0.33099378885E+02  0.00000000000E+00 0.  1.
         11    1    4    4    0    0 -0.46894245916E+02 -0.36156145055E+02  0.26634370610E+02  0.64928628686E+02  0.00000000000E+00 0. -1.
        -13    1    3    3    0    0  0.20031220671E+02  0.15924430498E+02  0.41022267343E+01  0.25916511194E+02  0.00000000000E+00 0.  1.
         13    1    3    3    0    0  0.63852718837E+00 -0.65798579828E+02 -0.91414410172E+02  0.11263416538E+03  0.00000000000E+00 0. -1.
          2    1    1    2  501    0  0.66108778016E+01  0.60774504292E+02  0.51058783927E+02  0.79650759528E+02  0.00000000000E+00 0. -1.
<scales pt_clust_5="13000.00000" pt_clust_6="13000.00000" pt_clust_7="13000.00000" pt_clust_8="13000.00000" pt_clust_9="61.13300"></scales>
<clustering>
<clus scale="   61.133">  1  9  2 -1</clus>
<clus scale="   91.756">  5  6 -1 -1</clus>
<clus scale="   93.049">  7  8 -1 -1</clus>
<clus scale="   99.558">  1  5  2 -1</clus>
<clus scale="   61.133">  1  5  2 -1</clus>
</clustering>
</event>
<event>
 9    1  0.1636528E-005  0.2679406E+03  0.7546771E-02  0.1102493E+00
         21   -1    0    0  501  502  0.00000000000E+00  0.00000000000E+00  0.52483402012E+03  0.52483402012E+03  0.00000000000E+00 0. -1.
          1   -1    0    0  502    0 -0.00000000000E+00 -0.00000000000E+00 -0.27830004130E+03  0.27830004130E+03  0.00000000000E+00 0. -1.
         23    2    1    2    0    0  0.22146726678E+03  0.17792662285E+03 -0.79620886952E+02  0.30892701164E+03  0.91601198187E+02 0.  0.
         23    2    1    2    0    0 -0.19931214386E+03 -0.29758429138E+02  0.20515005438E+03  0.30162764412E+03  0.91004374049E+02 0.  0.
        -13    1    4    4    0    0 -0.78565167280E+02 -0.57333906151E+02  0.90523235733E+02  0.13286880188E+03  0.00000000000E+00 0.  1.
         13    1    4    4    0    0 -0.12074697658E+03  0.27575477013E+02  0.11462681864E+03  0.16875884225E+03  0.00000000000E+00 0. -1.
        -13    1    3    3    0    0  0.84307167406E+02  0.25515691798E+02 -0.51314862899E+02  0.10194098370E+03  0.00000000000E+00 0.  1.
         13    1    3    3    0    0  0.13716009937E+03  0.15241093105E+03 -0.28306024053E+02  0.20698602794E+03  0.00000000000E+00 0. -1.
          1    1    1    2  501    0 -0.22155122924E+02 -0.14816819371E+03  0.12100481140E+03  0.19257940565E+03  0.00000000000E+00 0. -1.
<scales pt_clust_5="13000.00000" pt_clust_6="13000.00000" pt_clust_7="13000.00000" pt_clust_8="13000.00000" pt_clust_9="149.81543"></scales>
<clustering>
<clus scale="   91.004">  5  6 -1 -1</clus>
<clus scale="   91.601">  7  8 -1 -1</clus>
<clus scale="  149.815">  1  9  2 -1</clus>
<clus scale="  267.737">  1  5  2 -1</clus>
<clus scale="  149.815">  1  5  2 -1</clus>
</clustering>
</event>
<event>
 9    1  0.1636528E-005  0.1306326E+03  0.7546771E-02  0.1227096E+00
         21   -1    0    0  501  502  0.00000000000E+00  0.00000000000E+00  0.92447796664E+03  0.92447796664E+03  0.00000000000E+00 0.  1.
         -4   -1    0    0    0  501 -0.00000000000E+00 -0.00000000000E+00 -0.53478073287E+02  0.53478073287E+02  0.00000000000E+00 0.  1.
         23    2    1    2    0    0  0.51891136658E+02  0.88595804636E+02  0.68792353787E+02  0.15335441348E+03  0.90792519140E+02 0.  0.
         23    2    1    2    0    0 -0.65250478034E+02 -0.15927701467E+02  0.42385329125E+03  0.43910057270E+03  0.92985933802E+02 0.  0.
        -11    1    4    4    0    0 -0.64105726877E+02  0.26044283699E+02  0.31311703284E+03  0.32067136634E+03  0.00000000000E+00 0.  1.
         11    1    4    4    0    0 -0.11447511573E+01 -0.41971985166E+02  0.11073625840E+03  0.11842920636E+03  0.00000000000E+00 0. -1.
        -13    1    3    3    0    0 -0.14084480001E+02  0.63422763856E+02  0.21779806898E+02  0.68521380171E+02  0.00000000000E+00 0.  1.
         13    1    3    3    0    0  0.65975616658E+02  0.25173040780E+02  0.47012546889E+02  0.84833033310E+02  0.00000000000E+00 0. -1.
         -4    1    1    2    0  502  0.13359341376E+02 -0.72668103169E+02  0.37835424832E+03  0.38550105375E+03  0.00000000000E+00 0.  1.
<scales pt_clust_5="13000.00000" pt_clust_6="13000.00000" pt_clust_7="13000.00000" pt_clust_8="13000.00000" pt_clust_9="73.88589"></scales>
<clustering>
<clus scale="   73.886">  1  9  2 -1</clus>
<clus scale="   90.793">  7  8 -1 -1</clus>
<clus scale="   92.986">  5  6 -1 -1</clus>
<clus scale="  129.080">  2  7  1 -1</clus>
<clus scale="   73.886">  1  5  2 -1</clus>
</clustering>
</event>
<event>
 9    1  0.1636528E-005  0.1614064E+03  0.7546771E-02  0.1187669E+00
          2   -1    0    0  502    0 -0.00000000000E+00  0.00000000000E+00  0.94003690406E+03  0.94003690406E+03  0.00000000000E+00 0. -1.
         21   -1    0    0  501  502  0.00000000000E+00 -0.00000000000E+00 -0.51617834582E+02  0.51617834582E+02  0.00000000000E+00 0. -1.
         23    2    1    2    0    0  0.20472058636E+01 -0.13293660624E+03  0.48080214374E+03  0.50741314074E+03  0.92849672251E+02 0.  0.
         23    2    1    2    0    0 -0.29624012579E+02  0.12918747808E+03  0.42316892966E+03  0.45236055249E+03  0.89393175429E+02 0.  0.
        -11    1    3    3    0    0  0.46033494295E+02 -0.68640342355E+02  0.28306489627E+03  0.29488356125E+03  0.00000000000E+00 0.  1.
         11    1    3    3    0    0 -0.43986288431E+02 -0.64296263887E+02  0.19773724747E+03  0.21252957948E+03  0.00000000000E+00 0. -1.
        -13    1    4    4    0    0 -0.30574716567E+02  0.15769196842E+02  0.40008740774E+02  0.52765331426E+02  0.00000000000E+00 0.  1.
         13    1    4    4    0    0  0.95070398786E+00  0.11341828123E+03  0.38316018888E+03  0.39959522107E+03  0.00000000000E+00 0. -1.
          2    1    1    2  501    0  0.27576806715E+02  0.37491281647E+01 -0.15552003918E+02  0.31881045411E+02  0.00000000000E+00 0. -1.
<scales pt_clust_5="13000.00000" pt_clust_6="13000.00000" pt_clust_7="13000.00000" pt_clust_8="13000.00000" pt_clust_9="27.83049"></scales>
<clustering>
<clus scale="   27.830">  2  9  1 -1</clus>
<clus scale="   89.393">  7  8 -1 -1</clus>
<clus scale="   92.850">  5  6 -1 -1</clus>
<clus scale="  159.443">  2  7  1 -1</clus>
<clus scale="   27.830">  2  5  1 -1</clus>
</clustering>
</event>
<event>
 9    1  0.1636528E-005  0.9123386E+02  0.7546771E-02  0.1303144E+00
          2   -1    0    0  502    0 -0.00000000000E+00  0.00000000000E+00  0.10393329511E+03  0.10393329511E+03  0.00000000000E+00 0. -1.
         21   -1    0    0  501  502  0.00000000000E+00 -0.00000000000E+00 -0.25361724955E+03  0.25361724955E+03  0.00000000000E+00 0. -1.
         23    2    1    2    0    0 -0.15142748145E+01  0.24384144936E+01  0.60745975819E+02  0.10944324415E+03  0.90991819513E+02 0.  0.
         23    2    1    2    0    0 -0.42918824771E+00 -0.25568065674E+02 -0.95367299179E+02  0.13072686396E+03  0.85677774388E+02 0.  0.
        -11    1    3    3    0    0 -0.13472800821E+02  0.32491666424E+02  0.67760780593E+02  0.76346238516E+02  0.00000000000E+00 0. -1.
         11    1    3    3    0    0  0.11958526007E+02 -0.30053251930E+02 -0.70148047745E+01  0.33097005633E+02  0.00000000000E+00 0.  1.
        -11    1    4    4    0    0 -0.29647320113E+02 -0.40683535733E+02 -0.32931214729E+02  0.60154622209E+02  0.00000000000E+00 0. -1.
         11    1    4    4    0    0  0.29218131865E+02  0.15115470058E+02 -0.62436084450E+02  0.70572241754E+02  0.00000000000E+00 0.  1.
          2    1    1    2  501    0  0.19434630622E+01  0.23129651181E+02 -0.11506263108E+03  0.11738043655E+03  0.00000000000E+00 0. -1.
<scales pt_clust_5="13000.00000" pt_clust_6="13000.00000" pt_clust_7="13000.00000" pt_clust_8="13000.00000" pt_clust_9="23.21116"></scales>
<clustering>
<clus scale="   23.211">  2  9  1 -1</clus>
<clus scale="   85.678">  7  8 -1 -1</clus>
<clus scale="   85.935">  2  7  1 -1</clus>
<clus scale="   90.992">  5  6 -1 -1</clus>
<clus scale="   23.211">  2  5  1 -1</clus>
</clustering>
</event>
<event>
 9    1  0.1636528E-005  0.1796698E+03  0.7546771E-02  0.1190811E+00
          2   -1    0    0  502    0 -0.00000000000E+00  0.00000000000E+00  0.45732780429E+03  0.45732780429E+03  0.00000000000E+00 0. -1.
         21   -1    0    0  501  502  0.00000000000E+00 -0.00000000000E+00 -0.12886929457E+03  0.12886929457E+03  0.00000000000E+00 0. -1.
         23    2    1    2    0    0  0.20382604983E+02 -0.54482894247E+02  0.19502213077E+03  0.22284918443E+03  0.90798079054E+02 0.  0.
         23    2    1    2    0    0  0.17440796432E+02  0.18050548249E+03  0.61016034863E+02  0.21315800572E+03  0.93951946775E+02 0.  0.
        -11    1    3    3    0    0 -0.11509319928E+02 -0.68237296272E+02  0.99411804836E+02  0.12112596744E+03  0.00000000000E+00 0. -1.
         11    1    3    3    0    0  0.31891924911E+02  0.13754402025E+02  0.95610325932E+02  0.10172321699E+03  0.00000000000E+00 0.  1.
        -13    1    4    4    0    0 -0.26079105489E+02  0.76114272299E+02  0.59464823059E+02  0.10004782542E+03  0.00000000000E+00 0.  1.
         13    1    4    4    0    0  0.43519901921E+02  0.10439121019E+03  0.15512118037E+01  0.11311018029E+03  0.00000000000E+00 0. -1.
          2    1    1    2  501    0 -0.37823401415E+02 -0.12602258824E+03  0.72420344081E+02  0.15018990871E+03  0.00000000000E+00 0. -1.
<scales pt_clust_5="13000.00000" pt_clust_6="13000.00000" pt_clust_7="13000.00000" pt_clust_8="13000.00000" pt_clust_9="153.14781"></scales>
<clustering>
<clus scale="   90.798">  5  6 -1 -1</clus>
<clus scale="   93.952">  7  8 -1 -1</clus>
<clus scale="  107.834">  1  5  2 -1</clus>
<clus scale="  153.148">  2  9  1 -1</clus>
<clus scale="  153.148">  2  5  1 -1</clus>
</clustering>
</event>
<event>
 9    1  0.1636528E-005  0.1011103E+03  0.7546771E-02  0.1279285E+00
          2   -1    0    0  502    0 -0.00000000000E+00  0.00000000000E+00  0.35349165783E+03  0.35349165783E+03  0.00000000000E+00 0. -1.
         21   -1    0    0  501  502  0.00000000000E+00 -0.00000000000E+00 -0.38141308748E+02  0.38141308748E+02  0.00000000000E+00 0.  1.
         23    2    1    2    0    0  0.31266700967E+02  0.25779332742E+02  0.16488656469E+03  0.19128480262E+03  0.88091520101E+02 0.  0.
         23    2    1    2    0    0 -0.39640977452E+02 -0.50010209787E+02  0.12529921312E+03  0.16442436187E+03  0.85223528388E+02 0.  0.
        -13    1    3    3    0    0  0.52080577552E+02  0.72275479982E+00  0.51249636663E+02  0.73071432111E+02  0.00000000000E+00 0.  1.
         13    1    3    3    0    0 -0.20813876585E+02  0.25056577942E+02  0.11363692803E+03  0.11821337051E+03  0.00000000000E+00 0. -1.
        -13    1    4    4    0    0 -0.14676615064E+02 -0.57796867480E+02  0.32297434842E+02  0.67815965802E+02  0.00000000000E+00 0.  1.
         13    1    4    4    0    0 -0.24964362388E+02  0.77866576931E+01  0.93001778282E+02  0.96608396069E+02  0.00000000000E+00 0. -1.
          2    1    1    2  501    0  0.83742764848E+01  0.24230877046E+02  0.25164571269E+02  0.35923802084E+02  0.00000000000E+00 0. -1.
<scales pt_clust_5="13000.00000" pt_clust_6="13000.00000" pt_clust_7="13000.00000" pt_clust_8="13000.00000" pt_clust_9="25.63716"></scales>
<clustering>
<clus scale="   25.637">  2  9  1 -1</clus>
<clus scale="   85.224">  7  8 -1 -1</clus>
<clus scale="   88.092">  5  6 -1 -1</clus>
<clus scale="   98.622">  2  7  1 -1</clus>
<clus scale="   25.637">  2  5  1 -1</clus>
</clustering>
</event>
<event>
 9    1  0.1636528E-005  0.1239470E+03  0.7546771E-02  0.1236753E+00
          3   -1    0    0  502    0 -0.00000000000E+00  0.00000000000E+00  0.66621242681E+02  0.66621242681E+02  0.00000000000E+00 0.  1.
         21   -1    0    0  501  502  0.00000000000E+00 -0.00000000000E+00 -0.36676733582E+03  0.36676733582E+03  0.00000000000E+00 0. -1.
         23    2    1    2    0    0 -0.74232067487E+02  0.42650908534E+02 -0.56522166134E+02  0.13787950605E+03  0.92122218182E+02 0.  0.
         23    2    1    2    0    0  0.58353268878E+02 -0.54991520337E+02 -0.12322231355E+03  0.17343952069E+03  0.92023678918E+02 0.  0.
        -11    1    4    4    0    0  0.22254531224E+02 -0.35859171937E+02  0.14653956358E+01  0.42229039255E+02  0.00000000000E+00 0. -1.
         11    1    4    4    0    0  0.36098737654E+02 -0.19132348399E+02 -0.12468770919E+03  0.13121048143E+03  0.00000000000E+00 0.  1.
        -11    1    3    3    0    0 -0.64184121469E+02  0.67798485254E+02 -0.25664736442E+02  0.96824143416E+02  0.00000000000E+00 0. -1.
         11    1    3    3    0    0 -0.10047946018E+02 -0.25147576720E+02 -0.30857429692E+02  0.41055362637E+02  0.00000000000E+00 0.  1.
          3    1    1    2  501    0  0.15878798609E+02  0.12340611802E+02 -0.12040161345E+03  0.12206955176E+03  0.00000000000E+00 0.  1.
<scales pt_clust_5="13000.00000" pt_clust_6="13000.00000" pt_clust_7="13000.00000" pt_clust_8="13000.00000" pt_clust_9="20.11037"></scales>
<clustering>
<clus scale="   20.110">  2  9  1 -1</clus>
<clus scale="   92.024">  5  6 -1 -1</clus>
<clus scale="   92.122">  7  8 -1 -1</clus>
<clus scale="  123.874">  2  5  1 -1</clus>
<clus scale="   20.110">  2  5  1 -1</clus>
</clustering>
</event>
<event>
 9    1  0.1636528E-005  0.1257940E+03  0.7546771E-02  0.1234296E+00
          1   -1    0    0  502    0 -0.00000000000E+00  0.00000000000E+00  0.71698489539E+03  0.71698489539E+03  0.00000000000E+00 0. -1.
         21   -1    0    0  501  502  0.00000000000E+00 -0.00000000000E+00 -0.38520294369E+02  0.38520294369E+02  0.00000000000E+00 0. -1.
         23    2    1    2    0    0  0.62177268128E+02  0.35482786882E+02  0.37349620451E+03  0.39133059992E+03  0.92277748208E+02 0.  0.
         23    2    1    2    0    0 -0.92614396246E+02 -0.50221402348E+02  0.29789220107E+03  0.32962436414E+03  0.93876740107E+02 0.  0.
        -13    1    3    3    0    0  0.80068503915E+02  0.74989443136E+01  0.30152491604E+03  0.31206485620E+03  0.00000000000E+00 0.  1.
         13    1    3    3    0    0 -0.17891235788E+02  0.27983842568E+02  0.71971288469E+02  0.79265743716E+02  0.00000000000E+00 0. -1.
        -13    1    4    4    0    0  0.30627924654E+01 -0.31066443491E+02  0.25582610137E+02  0.40360556863E+02  0.00000000000E+00 0.  1.
         13    1    4    4    0    0 -0.95677188712E+02 -0.19154958857E+02  0.27230959093E+03  0.28926380728E+03  0.00000000000E+00 0. -1.
          1    1    1    2  501    0  0.30437128119E+02  0.14738615466E+02  0.70761954480E+01  0.34550225701E+02  0.00000000000E+00 0. -1.
<scales pt_clust_5="13000.00000" pt_clust_6="13000.00000" pt_clust_7="13000.00000" pt_clust_8="13000.00000" pt_clust_9="33.81783"></scales>
<clustering>
<clus scale="   33.818">  2  9  1 -1</clus>
<clus scale="   92.278">  5  6 -1 -1</clus>
<clus scale="   93.877">  7  8 -1 -1</clus>
<clus scale="  124.605">  1  5  2 -1</clus>
<clus scale="   33.818">  2  5  1 -1</clus>
</clustering>
</event>
<event>
 9    1  0.1636528E-005  0.1271381E+03  0.7546771E-02  0.1232197E+00
         21   -1    0    0  501  502  0.00000000000E+00  0.00000000000E+00  0.51810721202E+02  0.51810721202E+02  0.00000000000E+00 0.  1.
          1   -1    0    0  502    0 -0.00000000000E+00 -0.00000000000E+00 -0.48087760071E+03  0.48087760071E+03  0.00000000000E+00 0. -1.
         23    2    1    2    0    0  0.58891753456E+02 -0.53516884029E+02 -0.28683027615E+03  0.31199689535E+03  0.93478125210E+02 0.  0.
         23    2    1    2    0    0 -0.83259939094E+02  0.54628112088E+02 -0.94069034581E+02  0.16669922359E+03  0.94990524748E+02 0.  0.
        -13    1    4    4    0    0 -0.77839273911E+02  0.15421547754E+01 -0.30285466815E+02  0.83537658003E+02  0.00000000000E+00 0.  1.
         13    1    4    4    0    0 -0.54206651829E+01  0.53085957313E+02 -0.63783567765E+02  0.83161565592E+02  0.00000000000E+00 0. -1.
        -13    1    3    3    0    0  0.67787977627E+01  0.24796430998E+02 -0.93908948151E+02  0.97363779878E+02  0.00000000000E+00 0.  1.
         13    1    3    3    0    0  0.52112955694E+02 -0.78313315028E+02 -0.19292132800E+03  0.21463311547E+03  0.00000000000E+00 0. -1.
          1    1    1    2  501    0  0.24368185637E+02 -0.11112280591E+01 -0.48167568783E+02  0.53992202970E+02  0.00000000000E+00 0. -1.
<scales pt_clust_5="13000.00000" pt_clust_6="13000.00000" pt_clust_7="13000.00000" pt_clust_8="13000.00000" pt_clust_9="24.39352"></scales>
<clustering>
<clus scale="   24.394">  1  9  2 -1</clus>
<clus scale="   93.478">  7  8 -1 -1</clus>
<clus scale="   94.991">  5  6 -1 -1</clus>
<clus scale="  126.012">  2  7  1 -1</clus>
<clus scale="   24.394">  1  5  2 -1</clus>
</clustering>
</event>
<event>
 9    1  0.1636528E-005  0.1059438E+03  0.7546771E-02  0.1269440E+00
         -3   -1    0    0    0  501 -0.00000000000E+00  0.00000000000E+00  0.16431036737E+03  0.16431036737E+03  0.00000000000E+00 0.  1.
         21   -1    0    0  501  502  0.00000000000E+00 -0.00000000000E+00 -0.12625481842E+03  0.12625481842E+03  0.00000000000E+00 0.  1.
         23    2    1    2    0    0  0.51816320169E+01 -0.42532752527E+02  0.68634323599E+02  0.12270107031E+03  0.92244229798E+02 0.  0.
         23    2    1    2    0    0 -0.25647463983E+02  0.66017220166E+02  0.12368764445E+02  0.11480884607E+03  0.89509882336E+02 0.  0.
        -11    1    4    4    0    0 -0.55642813534E+02  0.20857788625E+02  0.11846092195E+02  0.60592903418E+02  0.00000000000E+00 0.  1.
         11    1    4    4    0    0  0.29995349551E+02  0.45159431541E+02  0.52267224941E+00  0.54215942656E+02  0.00000000000E+00 0. -1.
        -13    1    3    3    0    0  0.38786884436E+02 -0.34353436956E+02  0.73512627648E+01  0.52331845937E+02  0.00000000000E+00 0. -1.
         13    1    3    3    0    0 -0.33605252419E+02 -0.81793155706E+01  0.61283060834E+02  0.70369224371E+02  0.00000000000E+00 0.  1.
         -3    1    1    2    0  502  0.20465831966E+02 -0.23484467639E+02 -0.42947539086E+02  0.53055269407E+02  0.00000000000E+00 0.  1.
<scales pt_clust_5="13000.00000" pt_clust_6="13000.00000" pt_clust_7="13000.00000" pt_clust_8="13000.00000" pt_clust_9="31.15077"></scales>
<clustering>
<clus scale="   31.151">  2  9  1 -1</clus>
<clus scale="   89.510">  5  6 -1 -1</clus>
<clus scale="   92.244">  7  8 -1 -1</clus>
<clus scale="  103.572">  2  5  1 -1</clus>
<clus scale="   31.151">  2  5  1 -1</clus>
</clustering>
</event>
<event>
 9    1  0.1636528E-005  0.1027215E+03  0.7546771E-02  0.1275799E+00
          2   -1    0    0  502    0 -0.00000000000E+00  0.00000000000E+00  0.26639553167E+03  0.26639553167E+03  0.00000000000E+00 0. -1.
         21   -1    0    0  501  502  0.00000000000E+00 -0.00000000000E+00 -0.65543430886E+02  0.65543430886E+02  0.00000000000E+00 0.  1.
         23    2    1    2    0    0 -0.29483485127E+02 -0.18232665558E+02  0.17049136097E+03  0.19698460508E+03  0.92379242707E+02 0.  0.
         23    2    1    2    0    0  0.45461065426E+02  0.32327596199E+02  0.28344639290E+02  0.11355307707E+03  0.94758117272E+02 0.  0.
        -11    1    4    4    0    0  0.13126469855E+02  0.61676221751E+02  0.31451258984E+01  0.63135983062E+02  0.00000000000E+00 0. -1.
         11    1    4    4    0    0  0.32334595571E+02 -0.29348625552E+02  0.25199513392E+02  0.50417094003E+02  0.00000000000E+00 0.  1.
        -13    1    3    3    0    0  0.23129215490E+02  0.12895981815E+02  0.16248130550E+02  0.31068773752E+02  0.00000000000E+00 0.  1.
         13    1    3    3    0    0 -0.52612700617E+02 -0.31128647372E+02  0.15424323042E+03  0.16591583132E+03  0.00000000000E+00 0. -1.
          2    1    1    2  501    0 -0.15977580299E+02 -0.14094930641E+02  0.20161005226E+01  0.21401280413E+02  0.00000000000E+00 0. -1.
<scales pt_clust_5="13000.00000" pt_clust_6="13000.00000" pt_clust_7="13000.00000" pt_clust_8="13000.00000" pt_clust_9="21.30611"></scales>
<clustering>
<clus scale="   21.306">  2  9  1 -1</clus>
<clus scale="   92.379">  7  8 -1 -1</clus>
<clus scale="   94.758">  5  6 -1 -1</clus>
<clus scale="  100.531">  1  7  2 -1</clus>
<clus scale="   21.306">  2  5  1 -1</clus>
</clustering>
</event>
<event>
 9    1  0.1636528E-005  0.9942463E+02  0.7546771E-02  0.1285375E+00
          4   -1    0    0  502    0 -0.00000000000E+00  0.00000000000E+00  0.94679404270E+02  0.94679404270E+02  0.00000000000E+00 0. -1.
         21   -1    0    0  501  502  0.00000000000E+00 -0.00000000000E+00 -0.12758130494E+03  0.12758130494E+03  0.00000000000E+00 0.  1.
         23    2    1    2    0    0 -0.12442309474E+02  0.15553307978E+02 -0.24686876024E+01  0.98733933800E+02  0.96672533902E+02 0.  0.
         23    2    1    2    0    0 -0.61693954554E+01 -0.31620881386E+02 -0.22577611495E+02  0.97714511822E+02  0.89445154704E+02 0.  0.
        -11    1    3    3    0    0 -0.54186863785E+02  0.17296247709E+02 -0.28422906341E+01  0.56951338946E+02  0.00000000000E+00 0.  1.
         11    1    3    3    0    0  0.41744554311E+02 -0.17429397310E+01  0.37360303177E+00  0.41782594854E+02  0.00000000000E+00 0. -1.
        -11    1    4    4    0    0  0.15019732864E+01  0.30916566418E+02 -0.51541779949E+00  0.30957319948E+02  0.00000000000E+00 0. -1.
         11    1    4    4    0    0 -0.76713687418E+01 -0.62537447805E+02 -0.22062193696E+02  0.66757191874E+02  0.00000000000E+00 0.  1.
          4    1    1    2  501    0  0.18611704930E+02  0.16067573408E+02 -0.78556015777E+01  0.25812263592E+02  0.00000000000E+00 0. -1.
<scales pt_clust_5="13000.00000" pt_clust_6="13000.00000" pt_clust_7="13000.00000" pt_clust_8="13000.00000" pt_clust_9="24.58785"></scales>
<clustering>
<clus scale="   24.588">  2  9  1 -1</clus>
<clus scale="   89.445">  7  8 -1 -1</clus>
<clus scale="   92.413">  2  7  1 -1</clus>
<clus scale="   96.673">  5  6 -1 -1</clus>
<clus scale="   24.588">  2  5  1 -1</clus>
</clustering>
</event>
<event>
 9    1  0.1636528E-005  0.1411149E+03  0.7546771E-02  0.1227508E+00
         -3   -1    0    0    0  501 -0.00000000000E+00  0.00000000000E+00  0.38424932346E+03  0.38424932346E+03  0.00000000000E+00 0.  1.
         21   -1    0    0  501  502  0.00000000000E+00 -0.00000000000E+00 -0.60673822876E+03  0.60673822876E+03  0.00000000000E+00 0.  1.
         23    2    1    2    0    0 -0.18641837484E+02  0.37611494682E+02  0.21947493055E+03  0.24182050973E+03  0.92443340206E+02 0.  0.
         23    2    1    2    0    0  0.88479650097E+02 -0.11703230133E+03  0.98015877579E+02  0.19892793489E+03  0.91869488883E+02 0.  0.
        -11    1    3    3    0    0 -0.45464110997E+02  0.59032895372E+01  0.52233381836E+02  0.69499355350E+02  0.00000000000E+00 0. -1.
         11    1    3    3    0    0  0.26822273513E+02  0.31708205145E+02  0.16724154872E+03  0.17232115438E+03  0.00000000000E+00 0.  1.
        -13    1    4    4    0    0  0.52468519492E+02 -0.20939916922E+01  0.26023983516E+02  0.58605273286E+02  0.00000000000E+00 0.  1.
         13    1    4    4    0    0  0.36011130605E+02 -0.11493830964E+03  0.71991894063E+02  0.14032266161E+03  0.00000000000E+00 0. -1.
         -3    1    1    2    0  502 -0.69837812613E+02  0.79420806648E+02 -0.53997971344E+03  0.55023910759E+03  0.00000000000E+00 0.  1.
<scales pt_clust_5="13000.00000" pt_clust_6="13000.00000" pt_clust_7="13000.00000" pt_clust_8="13000.00000" pt_clust_9="107.11407"></scales>
<clustering>
<clus scale="   91.869">  7  8 -1 -1</clus>
<clus scale="   92.443">  5  6 -1 -1</clus>
<clus scale="  101.528">  1  5  2 -1</clus>
<clus scale="  107.114">  2  9  1 -1</clus>
<clus scale="  107.114">  2  5  1 -1</clus>
</clustering>
</event>
<event>
 9    1  0.1636528E-005  0.2162402E+03  0.7546771E-02  0.1137789E+00
          1   -1    0    0  502    0 -0.00000000000E+00  0.00000000000E+00  0.81555799661E+03  0.81555799661E+03  0.00000000000E+00 0. -1.
         21   -1    0    0  501  502  0.00000000000E+00 -0.00000000000E+00 -0.71015525532E+02  0.71015525532E+02  0.00000000000E+00 0.  1.
         23    2    1    2    0    0  0.50428354273E+02 -0.16225788427E+03  0.31879636641E+03  0.37334289737E+03  0.94250495266E+02 0.  0.
         23    2    1    2    0    0 -0.60168049457E+02  0.20121166404E+03  0.40412883291E+03  0.46762837637E+03  0.10606534249E+03 0.  0.
        -11    1    4    4    0    0  0.28526461750E+02  0.62639111935E+02  0.14780345771E+03  0.16304379619E+03  0.00000000000E+00 0. -1.
         11    1    4    4    0    0 -0.88694511207E+02  0.13857255211E+03  0.25632537519E+03  0.30458458018E+03  0.00000000000E+00 0.  1.
        -13    1    3    3    0    0  0.69090819127E+02 -0.13633314918E+03  0.29889850416E+03  0.33570907739E+03  0.00000000000E+00 0. -1.
         13    1    3    3    0    0 -0.18662464854E+02 -0.25924735091E+02  0.19897862243E+02  0.37633819974E+02  0.00000000000E+00 0.  1.
          1    1    1    2  501    0  0.97396951846E+01 -0.38953779773E+02  0.21617271762E+02  0.45602248402E+02  0.00000000000E+00 0. -1.
<scales pt_clust_5="13000.00000" pt_clust_6="13000.00000" pt_clust_7="13000.00000" pt_clust_8="13000.00000" pt_clust_9="40.15294"></scales>
<clustering>
<clus scale="   40.153">  2  9  1 -1</clus>
<clus scale="   94.250">  7  8 -1 -1</clus>
<clus scale="  106.065">  5  6 -1 -1</clus>
<clus scale="  210.697">  1  7  2 -1</clus>
<clus scale="   40.153">  2  5  1 -1</clus>
</clustering>
</event>
<event>
 9    1  0.1636528E-005  0.9219836E+02  0.7546771E-02  0.1297767E+00
          1   -1    0    0  502    0 -0.00000000000E+00  0.00000000000E+00  0.23752997663E+03  0.23752997663E+03  0.00000000000E+00 0. -1.
         21   -1    0    0  501  502  0.00000000000E+00 -0.00000000000E+00 -0.87082546113E+02  0.87082546113E+02  0.00000000000E+00 0. -1.
         23    2    1    2    0    0  0.80715778014E+01 -0.20851455261E+02  0.16819897439E+03  0.19234363108E+03  0.90582801223E+02 0.  0.
         23    2    1    2    0    0  0.17822129912E+02  0.34916330907E+01  0.71049794547E+01  0.92397921311E+02  0.90316528461E+02 0.  0.
        -11    1    4    4    0    0 -0.28046286186E+02 -0.24903588161E+02 -0.25531841098E+01  0.37593904043E+02  0.00000000000E+00 0.  1.
         11    1    4    4    0    0  0.45868416098E+02  0.28395221252E+02  0.96581635645E+01  0.54804017268E+02  0.00000000000E+00 0. -1.
        -13    1    3    3    0    0 -0.24626693962E+02  0.58354214692E+01  0.77980024075E+01  0.26482730992E+02  0.00000000000E+00 0.  1.
         13    1    3    3    0    0  0.32698271764E+02 -0.26686876730E+02  0.16040097198E+03  0.16586090009E+03  0.00000000000E+00 0. -1.
          1    1    1    2  501    0 -0.25893707714E+02  0.17359822170E+02 -0.24856523325E+02  0.39870970351E+02  0.00000000000E+00 0. -1.
<scales pt_clust_5="13000.00000" pt_clust_6="13000.00000" pt_clust_7="13000.00000" pt_clust_8="13000.00000" pt_clust_9="31.17447"></scales>
<clustering>
<clus scale="   31.174">  2  9  1 -1</clus>
<clus scale="   90.317">  5  6 -1 -1</clus>
<clus scale="   90.583">  7  8 -1 -1</clus>
<clus scale="   91.937">  2  5  1 -1</clus>
<clus scale="   31.174">  2  5  1 -1</clus>
</clustering>
</event>
<event>
 9    1  0.1636528E-005  0.9445635E+02  0.7546771E-02  0.1292858E+00
         -3   -1    0    0    0  501 -0.00000000000E+00  0.00000000000E+00  0.60629042330E+03  0.60629042330E+03  0.00000000000E+00 0.  1.
         21   -1    0    0  501  502  0.00000000000E+00 -0.00000000000E+00 -0.21035878468E+02  0.21035878468E+02  0.00000000000E+00 0.  1.
         23    2    1    2    0    0  0.21964257981E+02  0.16048017663E+02  0.36351561336E+03  0.37598892183E+03  0.92109178030E+02 0.  0.
         23    2    1    2    0    0  0.17259737564E+01 -0.14021249716E+02  0.15443155387E+03  0.17995378276E+03  0.91294494183E+02 0.  0.
        -11    1    4    4    0    0 -0.43409504089E+02 -0.44257537627E+00  0.91999176494E+02  0.10172723035E+03  0.00000000000E+00 0. -1.
         11    1    4    4    0    0  0.45135477845E+02 -0.13578674340E+02  0.62432377381E+02  0.78226552414E+02  0.00000000000E+00 0.  1.
        -11    1    3    3    0    0  0.34965466896E+02 -0.30590161349E+02  0.20731551563E+03  0.21245720715E+03  0.00000000000E+00 0.  1.
         11    1    3    3    0    0 -0.13001208915E+02  0.46638179012E+02  0.15620009773E+03  0.16353171468E+03  0.00000000000E+00 0. -1.
         -3    1    1    2    0  502 -0.23690231738E+02 -0.20267679472E+01  0.67307377590E+02  0.71383597179E+02  0.00000000000E+00 0.  1.
<scales pt_clust_5="13000.00000" pt_clust_6="13000.00000" pt_clust_7="13000.00000" pt_clust_8="13000.00000" pt_clust_9="23.77678"></scales>
<clustering>
<clus scale="   23.777">  2  9  1 -1</clus>
<clus scale="   91.294">  5  6 -1 -1</clus>
<clus scale="   92.109">  7  8 -1 -1</clus>
<clus scale="   93.662">  2  5  1 -1</clus>
<clus scale="   23.777">  2  5  1 -1</clus>
</clustering>
</event>
<event>
 9    1  0.1636528E-005  0.1339864E+03  0.7546771E-02  0.1231999E+00
         21   -1    0    0  501  502  0.00000000000E+00  0.00000000000E+00  0.97583087218E+02  0.97583087218E+02  0.00000000000E+00 0. -1.
         -1   -1    0    0    0  501 -0.00000000000E+00 -0.00000000000E+00 -0.39170353423E+03  0.39170353423E+03  0.00000000000E+00 0.  1.
         23    2    1    2    0    0 -0.30170279035E+02 -0.39199260347E+02 -0.20889190300E+03  0.23289983089E+03  0.90330926822E+02 0.  0.
         23    2    1    2    0    0  0.47061705259E+02  0.73673833345E+02 -0.13000284902E+03  0.19740751578E+03  0.12010973613E+03 0.  0.
        -11    1    3    3    0    0 -0.44317399569E+02 -0.59835542996E+02 -0.12644456203E+03  0.14673974028E+03  0.00000000000E+00 0.  1.
         11    1    3    3    0    0  0.14147120534E+02  0.20636282649E+02 -0.82447340966E+02  0.86160090607E+02  0.00000000000E+00 0. -1.
        -13    1    4    4    0    0 -0.11638555709E+00  0.75520485158E+02 -0.20643191295E+02  0.78291114252E+02  0.00000000000E+00 0. -1.
         13    1    4    4    0    0  0.47178090816E+02 -0.18466518132E+01 -0.10935965772E+03  0.11911640153E+03  0.00000000000E+00 0.  1.
         -1    1    1    2    0  502 -0.16891426224E+02 -0.34474572997E+02  0.44774305012E+02  0.58979274771E+02  0.00000000000E+00 0.  1.
<scales pt_clust_5="13000.00000" pt_clust_6="13000.00000" pt_clust_7="13000.00000" pt_clust_8="13000.00000" pt_clust_9="38.39032"></scales>
<clustering>
<clus scale="   38.390">  1  9  2 -1</clus>
<clus scale="   90.331">  5  6 -1 -1</clus>
<clus scale="  108.100">  2  5  1 -1</clus>
<clus scale="  120.110">  7  8 -1 -1</clus>
<clus scale="   38.390">  1  5  2 -1</clus>
</clustering>
</event>
<event>
 9    1  0.1636528E-005  0.1124444E+03  0.7546771E-02  0.1257966E+00
         21   -1    0    0  501  502  0.00000000000E+00  0.00000000000E+00  0.10112120681E+03  0.10112120681E+03  0.00000000000E+00 0.  1.
          1   -1    0    0  502    0 -0.00000000000E+00 -0.00000000000E+00 -0.36645044237E+03  0.36645044237E+03  0.00000000000E+00 0. -1.
         23    2    1    2    0    0  0.87472196985E+01 -0.54952112336E+02 -0.26177046398E+03  0.28385769775E+03  0.94631750791E+02 0.  0.
         23    2    1    2    0    0  0.23358094467E+02  0.86144162557E+02 -0.32126414942E+02  0.13061211114E+03  0.89783070340E+02 0.  0.
        -11    1    4    4    0    0  0.50878256229E+02  0.84438224647E+02 -0.29567757900E+02  0.10292066384E+03  0.00000000000E+00 0.  1.
         11    1    4    4    0    0 -0.27520161763E+02  0.17059379100E+01 -0.25586570421E+01  0.27691447298E+02  0.00000000000E+00 0. -1.
        -11    1    3    3    0    0 -0.37215336541E+02 -0.46144934321E+02 -0.18155933717E+03  0.19099248454E+03  0.00000000000E+00 0. -1.
         11    1    3    3    0    0  0.45962556239E+02 -0.88071780143E+01 -0.80211126814E+02  0.92865213214E+02  0.00000000000E+00 0.  1.
          1    1    1    2  501    0 -0.32105314165E+02 -0.31192050222E+02  0.28567643358E+02  0.53101840285E+02  0.00000000000E+00 0. -1.
<scales pt_clust_5="13000.00000" pt_clust_6="13000.00000" pt_clust_7="13000.00000" pt_clust_8="13000.00000" pt_clust_9="44.76265"></scales>
<clustering>
<clus scale="   44.763">  1  9  2 -1</clus>
<clus scale="   89.783">  5  6 -1 -1</clus>
<clus scale="   94.632">  7  8 -1 -1</clus>
<clus scale="  108.395">  1  5  2 -1</clus>
<clus scale="   44.763">  1  5  2 -1</clus>
</clustering>
</event>
<event>
 9    1  0.1636528E-005  0.1792164E+03  0.7546771E-02  0.1170135E+00
          2   -1    0    0  502    0 -0.00000000000E+00  0.00000000000E+00  0.12382956375E+04  0.12382956375E+04  0.00000000000E+00 0. -1.
         21   -1    0    0  501  502  0.00000000000E+00 -0.00000000000E+00 -0.29241860756E+02  0.29241860756E+02  0.00000000000E+00 0.  1.
         23    2    1    2    0    0 -0.15073535946E+03 -0.18344168416E+02  0.60573650256E+03  0.63116395991E+03  0.91616464912E+02 0.  0.
         23    2    1    2    0    0  0.15731845800E+03 -0.62721486448E+01  0.54608579031E+03  0.57372576905E+03  0.78505608855E+02 0.  0.
        -13    1    3    3    0    0 -0.50889904568E+02  0.33543309222E+02  0.27946325464E+03  0.28603259723E+03  0.00000000000E+00 0. -1.
         13    1    3    3    0    0 -0.99845454887E+02 -0.51887477638E+02  0.32627324792E+03  0.34513136268E+03  0.00000000000E+00 0.  1.
        -13    1    4    4    0    0  0.28479077321E+02 -0.22806722644E+02  0.56942347251E+02  0.67628657781E+02  0.00000000000E+00 0.  1.
         13    1    4    4    0    0  0.12883938068E+03  0.16534573999E+02  0.48914344306E+03  0.50609711127E+03  0.00000000000E+00 0. -1.
          2    1    1    2  501    0 -0.65830985410E+01  0.24616317061E+02  0.57231483893E+02  0.62647769319E+02  0.00000000000E+00 0. -1.
<scales pt_clust_5="13000.00000" pt_clust_6="13000.00000" pt_clust_7="13000.00000" pt_clust_8="13000.00000" pt_clust_9="25.48137"></scales>
<clustering>
<clus scale="   25.481">  2  9  1 -1</clus>
<clus scale="   78.506">  7  8 -1 -1</clus>
<clus scale="   91.616">  5  6 -1 -1</clus>
<clus scale="  172.882">  2  7  1 -1</clus>
<clus scale="   25.481">  2  5  1 -1</clus>
</clustering>
</event>
<event>
 9    1  0.1636528E-005  0.1023758E+03  0.7546771E-02  0.1277627E+00
         21   -1    0    0  501  502  0.00000000000E+00  0.00000000000E+00  0.66151784215E+02  0.66151784215E+02  0.00000000000E+00 0.  1.
          2   -1    0    0  502    0 -0.00000000000E+00 -0.00000000000E+00 -0.46934148062E+03  0.46934148062E+03  0.00000000000E+00 0. -1.
         23    2    1    2    0    0 -0.65470261762E+00  0.42395720241E+02 -0.35671774549E+03  0.37153508903E+03  0.94831148377E+02 0.  0.
         23    2    1    2    0    0  0.31894687834E+02 -0.10409172363E+02  0.43151574447E+01  0.96294254126E+02  0.90157311477E+02 0.  0.
        -11    1    4    4    0    0  0.17575029913E+02  0.36355287524E+02  0.19826998497E+02  0.44985536307E+02  0.00000000000E+00 0. -1.
         11    1    4    4    0    0  0.14319657920E+02 -0.46764459887E+02 -0.15511841052E+02  0.51308717820E+02  0.00000000000E+00 0.  1.
        -13    1    3    3    0    0  0.46395441187E+02  0.14624318699E+02 -0.18800692362E+03  0.19419838050E+03  0.00000000000E+00 0.  1.
         13    1    3    3    0    0 -0.47050143804E+02  0.27771401542E+02 -0.16871082188E+03  0.17733670854E+03  0.00000000000E+00 0. -1.
          2    1    1    2  501    0 -0.31239985216E+02 -0.31986547878E+02 -0.50787108356E+02  0.67663921676E+02  0.00000000000E+00 0. -1.
<scales pt_clust_5="13000.00000" pt_clust_6="13000.00000" pt_clust_7="13000.00000" pt_clust_8="13000.00000" pt_clust_9="44.71103"></scales>
<clustering>
<clus scale="   44.711">  1  9  2 -1</clus>
<clus scale="   90.157">  5  6 -1 -1</clus>
<clus scale="   94.831">  7  8 -1 -1</clus>
<clus scale="   98.062">  1  5  2 -1</clus>
<clus scale="   44.711">  1  5  2 -1</clus>
</clustering>
</event>
<event>
 9    1  0.1636528E-005  0.1026430E+03  0.7546771E-02  0.1283312E+00
         21   -1    0    0  501  502  0.00000000000E+00  0.00000000000E+00  0.17684118475E+03  0.17684118475E+03  0.00000000000E+00 0.  1.
         -3   -1    0    0    0  501 -0.00000000000E+00 -0.00000000000E+00 -0.14967470616E+03  0.14967470616E+03  0.00000000000E+00 0.  1.
         23    2    1    2    0    0 -0.14467986938E+02  0.47624847612E+02 -0.59313447373E+02  0.10691217615E+03  0.73720279524E+02 0.  0.
         23    2    1    2    0    0 -0.54454356173E+01 -0.44095964166E+02 -0.26378275278E+02  0.10494783396E+03  0.91346196537E+02 0.  0.
        -11    1    4    4    0    0 -0.40995124721E+02 -0.35945392609E+02 -0.38239762587E+02  0.66595427346E+02  0.00000000000E+00 0.  1.
         11    1    4    4    0    0  0.35549689103E+02 -0.81505715575E+01  0.11861487309E+02  0.38352406616E+02  0.00000000000E+00 0. -1.
        -13    1    3    3    0    0  0.97664204474E+01  0.27715109233E+02  0.98313229920E+01  0.30986531912E+02  0.00000000000E+00 0.  1.
         13    1    3    3    0    0 -0.24234407385E+02  0.19909738379E+02 -0.69144770365E+02  0.75925644235E+02  0.00000000000E+00 0. -1.
         -3    1    1    2    0  502  0.19913422555E+02 -0.35288834452E+01  0.11285820124E+03  0.11465588081E+03  0.00000000000E+00 0.  1.
<scales pt_clust_5="13000.00000" pt_clust_6="13000.00000" pt_clust_7="13000.00000" pt_clust_8="13000.00000" pt_clust_9="20.22368"></scales>
<clustering>
<clus scale="   20.224">  1  9  2 -1</clus>
<clus scale="   73.720">  7  8 -1 -1</clus>
<clus scale="   87.328">  2  7  1 -1</clus>
<clus scale="   91.346">  5  6 -1 -1</clus>
<clus scale="   20.224">  1  5  2 -1</clus>
</clustering>
</event>
<event>
 9    1  0.1636528E-005  0.1292813E+03  0.7546771E-02  0.1230144E+00
         -1   -1    0    0    0  501 -0.00000000000E+00  0.00000000000E+00  0.13479909315E+03  0.13479909315E+03  0.00000000000E+00 0.  1.
         21   -1    0    0  501  502  0.00000000000E+00 -0.00000000000E+00 -0.16303428059E+03  0.16303428059E+03  0.00000000000E+00 0. -1.
         23    2    1    2    0    0 -0.76537140559E+02  0.22557884083E+02  0.10978613977E+02  0.12121963267E+03  0.90591817293E+02 0.  0.
         23    2    1    2    0    0  0.95474249598E+02 -0.62206754506E+01 -0.72059427885E+01  0.13599328442E+03  0.96375404832E+02 0.  0.
        -13    1    3    3    0    0 -0.29716058510E+02 -0.30819639061E+02 -0.15367130140E+02  0.45486734044E+02  0.00000000000E+00 0. -1.
         13    1    3    3    0    0 -0.46821082048E+02  0.53377523144E+02  0.26345744117E+02  0.75732898626E+02  0.00000000000E+00 0.  1.
        -13    1    4    4    0    0  0.37963231357E+02  0.40769695671E+02  0.16387977435E+02  0.58068415034E+02  0.00000000000E+00 0.  1.
         13    1    4    4    0    0  0.57511018242E+02 -0.46990371122E+02 -0.23593920223E+02  0.77924869386E+02  0.00000000000E+00 0. -1.
         -1    1    1    2    0  502 -0.18937109040E+02 -0.16337208633E+02 -0.32007858626E+02  0.40620456651E+02  0.00000000000E+00 0.  1.
<scales pt_clust_5="13000.00000" pt_clust_6="13000.00000" pt_clust_7="13000.00000" pt_clust_8="13000.00000" pt_clust_9="25.01037"></scales>
<clustering>
<clus scale="   25.010">  2  9  1 -1</clus>
<clus scale="   90.592">  5  6 -1 -1</clus>
<clus scale="   96.375">  7  8 -1 -1</clus>
<clus scale="  125.029">  1  5  2 -1</clus>
<clus scale="   25.010">  2  5  1 -1</clus>
</clustering>
</event>
<event>
 9    1  0.1636528E-005  0.1259639E+03  0.7546771E-02  0.1234199E+00
         21   -1    0    0  501  502  0.00000000000E+00  0.00000000000E+00  0.15424138562E+03  0.15424138562E+03  0.00000000000E+00 0. -1.
          1   -1    0    0  502    0 -0.00000000000E+00 -0.00000000000E+00 -0.14035431910E+03  0.14035431910E+03  0.00000000000E+00 0. -1.
         23    2    1    2    0    0 -0.67707651031E+02  0.38618691839E+02 -0.81638940800E+01  0.12418107708E+03  0.96325289364E+02 0.  0.
         23    2    1    2    0    0  0.83587617794E+02 -0.25973873452E+02  0.48183764053E+02  0.13732402183E+03  0.94205519495E+02 0.  0.
        -11    1    3    3    0    0 -0.49008485429E+02 -0.13291426765E+02  0.28216003092E+02  0.58091621599E+02  0.00000000000E+00 0.  1.
         11    1    3    3    0    0 -0.18699165602E+02  0.51910118604E+02 -0.36379897172E+02  0.66089455482E+02  0.00000000000E+00 0. -1.
        -13    1    4    4    0    0  0.29387139376E+02 -0.57498030749E+02  0.14630231226E+02  0.66209298187E+02  0.00000000000E+00 0.  1.
         13    1    4    4    0    0  0.54200478417E+02  0.31524157296E+02  0.33553532827E+02  0.71114723645E+02  0.00000000000E+00 0. -1.
          1    1    1    2  501    0 -0.15879966762E+02 -0.12644818387E+02 -0.26132803453E+02  0.33090605808E+02  0.00000000000E+00 0. -1.
<scales pt_clust_5="13000.00000" pt_clust_6="13000.00000" pt_clust_7="13000.00000" pt_clust_8="13000.00000" pt_clust_9="20.29939"></scales>
<clustering>
<clus scale="   20.299">  1  9  2 -1</clus>
<clus scale="   94.206">  7  8 -1 -1</clus>
<clus scale="   96.325">  5  6 -1 -1</clus>
<clus scale="  124.350">  1  7  2 -1</clus>
<clus scale="   20.299">  1  5  2 -1</clus>
</clustering>
</event>
<event>
 9    1  0.1636528E-005  0.9788160E+02  0.7546771E-02  0.1287831E+00
         -4   -1    0    0    0  501 -0.00000000000E+00  0.00000000000E+00  0.55273738183E+02  0.55273738183E+02  0.00000000000E+00 0.  1.
         21   -1    0    0  501  502  0.00000000000E+00 -0.00000000000E+00 -0.48588794773E+03  0.48588794773E+03  0.00000000000E+00 0.  1.
         23    2    1    2    0    0  0.11465109758E+02 -0.14280258637E+01 -0.32246179029E+02  0.10039535311E+03  0.94371197224E+02 0.  0.
         23    2    1    2    0    0 -0.58681542016E+02 -0.15166901101E+02 -0.13435215081E+03  0.17204869695E+03  0.88750748916E+02 0.  0.
        -13    1    4    4    0    0 -0.30883510773E+02 -0.52487386472E+02 -0.73901931550E+02  0.95761226303E+02  0.00000000000E+00 0.  1.
         13    1    4    4    0    0 -0.27798031243E+02  0.37320485371E+02 -0.60450219258E+02  0.76287470647E+02  0.00000000000E+00 0. -1.
        -13    1    3    3    0    0  0.18625565678E+02 -0.42019217847E+02  0.31427476953E+01  0.46069547734E+02  0.00000000000E+00 0.  1.
         13    1    3    3    0    0 -0.71604559206E+01  0.40591191983E+02 -0.35388926724E+02  0.54325805381E+02  0.00000000000E+00 0. -1.
         -4    1    1    2    0  502  0.47216432259E+02  0.16594926965E+02 -0.26401587971E+03  0.26871763584E+03  0.00000000000E+00 0.  1.
<scales pt_clust_5="13000.00000" pt_clust_6="13000.00000" pt_clust_7="13000.00000" pt_clust_8="13000.00000" pt_clust_9="50.04781"></scales>
<clustering>
<clus scale="   50.048">  2  9  1 -1</clus>
<clus scale="   88.751">  5  6 -1 -1</clus>
<clus scale="   92.475">  2  5  1 -1</clus>
<clus scale="   94.371">  7  8 -1 -1</clus>
<clus scale="   50.048">  2  5  1 -1</clus>
</clustering>
</event>
<event>
 9    1  0.1636528E-005  0.1105637E+03  0.7546771E-02  0.1260240E+00
          1   -1    0    0  502    0 -0.00000000000E+00  0.00000000000E+00  0.54232037405E+03  0.54232037405E+03  0.00000000000E+00 0. -1.
         21   -1    0    0  501  502  0.00000000000E+00 -0.00000000000E+00 -0.23583283123E+03  0.23583283123E+03  0.00000000000E+00 0. -1.
         23    2    1    2    0    0 -0.44953399135E+02 -0.36642948232E+02  0.47823139578E+03  0.49015180763E+03  0.90443423570E+02 0.  0.
         23    2    1    2    0    0  0.10218867313E+03  0.52470811386E+02 -0.55479129159E+02  0.15744917116E+03  0.92285409266E+02 0.  0.
        -11    1    3    3    0    0 -0.52449026050E+02  0.15123571322E+02  0.21943614474E+03  0.22612351572E+03  0.00000000000E+00 0.  1.
         11    1    3    3    0    0  0.74956269154E+01 -0.51766519554E+02  0.25879525104E+03  0.26402829191E+03  0.00000000000E+00 0. -1.
        -13    1    4    4    0    0  0.99762549853E+02  0.10851867870E+02 -0.19172057777E+02  0.10216602757E+03  0.00000000000E+00 0. -1.
         13    1    4    4    0    0  0.24261232813E+01  0.41618943517E+02 -0.36307071381E+02  0.55283143597E+02  0.00000000000E+00 0.  1.
          1    1    1    2  501    0 -0.57235274000E+02 -0.15827863154E+02 -0.11626472379E+03  0.13055222649E+03  0.00000000000E+00 0. -1.
<scales pt_clust_5="13000.00000" pt_clust_6="13000.00000" pt_clust_7="13000.00000" pt_clust_8="13000.00000" pt_clust_9="59.38348"></scales>
<clustering>
<clus scale="   59.383">  2  9  1 -1</clus>
<clus scale="   90.443">  5  6 -1 -1</clus>
<clus scale="   92.285">  7  8 -1 -1</clus>
<clus scale="  109.031">  1  5  2 -1</clus>
<clus scale="   59.383">  2  5  1 -1</clus>
</clustering>
</event>
<event>
 9    1  0.1636528E-005  0.1064658E+03  0.7546771E-02  0.1267320E+00
          2   -1    0    0  502    0 -0.00000000000E+00  0.00000000000E+00  0.13665718108E+03  0.13665718108E+03  0.00000000000E+00 0. -1.
         21   -1    0    0  501  502  0.00000000000E+00 -0.00000000000E+00 -0.31259694412E+03  0.31259694412E+03  0.00000000000E+00 0.  1.
         23    2    1    2    0    0 -0.26897627550E+02 -0.49527559590E+02  0.82893325119E+02  0.13531149476E+03  0.90892440485E+02 0.  0.
         23    2    1    2    0    0 -0.17651468721E+02  0.63801561980E+02 -0.10723917190E+03  0.15529495611E+03  0.90741775075E+02 0.  0.
        -11    1    4    4    0    0  0.23424706009E+02 -0.59455586389E+01 -0.51874373574E+02  0.57227765576E+02  0.00000000000E+00 0.  1.
         11    1    4    4    0    0 -0.41076174731E+02  0.69747120619E+02 -0.55364798326E+02  0.98067190532E+02  0.00000000000E+00 0. -1.
        -13    1    3    3    0    0  0.17549008604E+02 -0.58905467099E+02  0.49878971850E+02  0.79156386919E+02  0.00000000000E+00 0. -1.
         13    1    3    3    0    0 -0.44446636153E+02  0.93779075094E+01  0.33014353268E+02  0.56155107838E+02  0.00000000000E+00 0.  1.
          2    1    1    2  501    0  0.44549096271E+02 -0.14274002391E+02 -0.15159391626E+03  0.15864767433E+03  0.00000000000E+00 0. -1.
<scales pt_clust_5="13000.00000" pt_clust_6="13000.00000" pt_clust_7="13000.00000" pt_clust_8="13000.00000" pt_clust_9="46.78001"></scales>
<clustering>
<clus scale="   46.780">  2  9  1 -1</clus>
<clus scale="   90.742">  5  6 -1 -1</clus>
<clus scale="   90.892">  7  8 -1 -1</clus>
<clus scale="  106.337">  2  5  1 -1</clus>
<clus scale="   46.780">  2  5  1 -1</clus>
</clustering>
</event>
<event>
 9    1  0.1636528E-005  0.1149767E+03  0.7546771E-02  0.1252775E+00
          4   -1    0    0  502    0 -0.00000000000E+00  0.00000000000E+00  0.51431378590E+02  0.51431378590E+02  0.00000000000E+00 0. -1.
         21   -1    0    0  501  502  0.00000000000E+00 -0.00000000000E+00 -0.32578324062E+03  0.32578324062E+03  0.00000000000E+00 0.  1.
         23    2    1    2    0    0 -0.55455576905E+02  0.53586887963E+02 -0.79170847048E+02  0.14173744409E+03  0.88738968130E+02 0.  0.
         23    2    1    2    0    0  0.47066650278E+02 -0.31505033101E+02 -0.15744832770E+03  0.19096045810E+03  0.92022192885E+02 0.  0.
        -11    1    3    3    0    0 -0.40631201649E+02  0.69006232808E+02 -0.87654432252E+02  0.11872680492E+03  0.00000000000E+00 0.  1.
         11    1    3    3    0    0 -0.14824375257E+02 -0.15419344845E+02  0.84835852040E+01  0.23010639172E+02  0.00000000000E+00 0. -1.
        -13    1    4    4    0    0 -0.10008183475E+02 -0.19606206034E+02  0.10919487750E+01  0.22039950173E+02  0.00000000000E+00 0. -1.
         13    1    4    4    0    0  0.57074833753E+02 -0.11898827067E+02 -0.15854027648E+03  0.16892050793E+03  0.00000000000E+00 0.  1.
          4    1    1    2  501    0  0.83889266277E+01 -0.22081854862E+02 -0.37732687274E+02  0.44516717007E+02  0.00000000000E+00 0. -1.
<scales pt_clust_5="13000.00000" pt_clust_6="13000.00000" pt_clust_7="13000.00000" pt_clust_8="13000.00000" pt_clust_9="23.62165"></scales>
<clustering>
<clus scale="   23.622">  2  9  1 -1</clus>
<clus scale="   88.739">  5  6 -1 -1</clus>
<clus scale="   92.022">  7  8 -1 -1</clus>
<clus scale="  112.366">  1  5  2 -1</clus>
<clus scale="   23.622">  2  5  1 -1</clus>
</clustering>
</event>
<event>
 9    1  0.1636528E-005  0.1399667E+03  0.7546771E-02  0.1213612E+00
         21   -1    0    0  501  502  0.00000000000E+00  0.00000000000E+00  0.22391386756E+03  0.22391386756E+03  0.00000000000E+00 0. -1.
          2   -1    0    0  502    0 -0.00000000000E+00 -0.00000000000E+00 -0.37135827700E+03  0.37135827700E+03  0.00000000000E+00 0. -1.
         23    2    1    2    0    0 -0.28403366191E+02  0.10566297996E+03 -0.24267406128E+03  0.28129148416E+03  0.90899848705E+02 0.  0.
         23    2    1    2    0    0  0.66492448140E+02 -0.82411670165E+02 -0.60886916784E+02  0.15161137583E+03  0.89810153134E+02 0.  0.
        -11    1    4    4    0    0  0.28490490514E+02 -0.30553547168E+02  0.21599363140E+02  0.47029350222E+02  0.00000000000E+00 0.  1.
         11    1    4    4    0    0  0.38001957626E+02 -0.51858122997E+02 -0.82486279924E+02  0.10458202561E+03  0.00000000000E+00 0. -1.
        -13    1    3    3    0    0  0.20300975631E+02 -0.37596930890E+01 -0.53990006461E+02  0.57802990418E+02  0.00000000000E+00 0.  1.
         13    1    3    3    0    0 -0.48704341822E+02  0.10942267305E+03 -0.18868405482E+03  0.22348849374E+03  0.00000000000E+00 0. -1.
          2    1    1    2  501    0 -0.38089081949E+02 -0.23251309792E+02  0.15611656863E+03  0.16236928457E+03  0.00000000000E+00 0. -1.
<scales pt_clust_5="13000.00000" pt_clust_6="13000.00000" pt_clust_7="13000.00000" pt_clust_8="13000.00000" pt_clust_9="44.62512"></scales>
<clustering>
<clus scale="   44.625">  1  9  2 -1</clus>
<clus scale="   89.810">  5  6 -1 -1</clus>
<clus scale="   90.900">  7  8 -1 -1</clus>
<clus scale="  139.262">  1  5  2 -1</clus>
<clus scale="   44.625">  1  5  2 -1</clus>
</clustering>
</event>
<event>
 9    1  0.1636528E-005  0.1002122E+03  0.7546771E-02  0.1280635E+00
         21   -1    0    0  501  502  0.00000000000E+00  0.00000000000E+00  0.72703976035E+02  0.72703976035E+02  0.00000000000E+00 0. -1.
          1   -1    0    0  502    0 -0.00000000000E+00 -0.00000000000E+00 -0.31783863785E+03  0.31783863785E+03  0.00000000000E+00 0. -1.
         23    2    1    2    0    0 -0.34625584199E+02  0.48180835779E+02 -0.19207459750E+03  0.22088259980E+03  0.91521297373E+02 0.  0.
         23    2    1    2    0    0 -0.14620799765E+02 -0.18447847937E+02 -0.61623329194E+02  0.11150000716E+03  0.89892858544E+02 0.  0.
        -11    1    3    3    0    0  0.13255855203E+02 -0.16145254668E+02 -0.82473774360E+02  0.85078260458E+02  0.00000000000E+00 0.  1.
         11    1    3    3    0    0 -0.47881439401E+02  0.64326090447E+02 -0.10960082314E+03  0.13580433934E+03  0.00000000000E+00 0. -1.
        -13    1    4    4    0    0  0.43647877811E+01 -0.28067519952E+02 -0.79046030557E+02  0.83994714092E+02  0.00000000000E+00 0.  1.
         13    1    4    4    0    0 -0.18985587546E+02  0.96196720150E+01  0.17422701363E+02  0.27505293071E+02  0.00000000000E+00 0. -1.
          1    1    1    2  501    0  0.49246383963E+02 -0.29732987842E+02  0.85632648800E+01  0.58160006920E+02  0.00000000000E+00 0. -1.
<scales pt_clust_5="13000.00000" pt_clust_6="13000.00000" pt_clust_7="13000.00000" pt_clust_8="13000.00000" pt_clust_9="57.52614"></scales>
<clustering>
<clus scale="   57.526">  1  9  2 -1</clus>
<clus scale="   89.893">  7  8 -1 -1</clus>
<clus scale="   91.521">  5  6 -1 -1</clus>
<clus scale="   98.727">  1  7  2 -1</clus>
<clus scale="   57.526">  1  5  2 -1</clus>
</clustering>
</event>
<event>
 9    1  0.1636528E-005  0.1297210E+03  0.7546771E-02  0.1228149E+00
         21   -1    0    0  501  502  0.00000000000E+00  0.00000000000E+00  0.15770718725E+03  0.15770718725E+03  0.00000000000E+00 0.  1.
          1   -1    0    0  502    0 -0.00000000000E+00 -0.00000000000E+00 -0.17840414631E+03  0.17840414631E+03  0.00000000000E+00 0. -1.
         23    2    1    2    0    0 -0.28360526227E+02 -0.73171325523E+02 -0.13902284664E+02  0.12158056617E+03  0.91816110927E+02 0.  0.
         23    2    1    2    0    0 -0.19085779669E+02  0.10843367525E+03 -0.36190356252E+02  0.14851038142E+03  0.92862600602E+02 0.  0.
        -11    1    4    4    0    0  0.22335256150E+02  0.97886859899E+02 -0.17750512635E+02  0.10195970629E+03  0.00000000000E+00 0.  1.
         11    1    4    4    0    0 -0.41421035820E+02  0.10546815349E+02 -0.18439843617E+02  0.46550675129E+02  0.00000000000E+00 0. -1.
        -11    1    3    3    0    0 -0.82341560613E+01 -0.33939554015E+02 -0.52449862286E+02  0.63013353399E+02  0.00000000000E+00 0. -1.
         11    1    3    3    0    0 -0.20126370166E+02 -0.39231771508E+02  0.38547577622E+02  0.58567212775E+02  0.00000000000E+00 0.  1.
          1    1    1    2  501    0  0.47446305897E+02 -0.35262349724E+02  0.29395681850E+02  0.66020385963E+02  0.00000000000E+00 0. -1.
<scales pt_clust_5="13000.00000" pt_clust_6="13000.00000" pt_clust_7="13000.00000" pt_clust_8="13000.00000" pt_clust_9="59.11502"></scales>
<clustering>
<clus scale="   59.115">  1  9  2 -1</clus>
<clus scale="   91.816">  7  8 -1 -1</clus>
<clus scale="   92.863">  5  6 -1 -1</clus>
<clus scale="  128.974">  2  7  1 -1</clus>
<clus scale="   59.115">  1  5  2 -1</clus>
</clustering>
</event>
<event>
 9    1  0.1636528E-005  0.1231709E+03  0.7546771E-02  0.1238788E+00
         21   -1    0    0  501  502  0.00000000000E+00  0.00000000000E+00  0.39499926622E+02  0.39499926622E+02  0.00000000000E+00 0. -1.
          2   -1    0    0  502    0 -0.00000000000E+00 -0.00000000000E+00 -0.83091332646E+03  0.83091332646E+03  0.00000000000E+00 0. -1.
         23    2    1    2    0    0  0.44847868682E+02 -0.32826426990E+02 -0.30766285514E+03  0.32504783844E+03  0.88942448841E+02 0.  0.
         23    2    1    2    0    0 -0.11778813129E+03  0.49509002289E+02 -0.41478058625E+03  0.44360370575E+03  0.91739456306E+02 0.  0.
        -13    1    3    3    0    0  0.66689430836E+02 -0.12924287290E+02 -0.26196086460E+03  0.27062522420E+03  0.00000000000E+00 0. -1.
         13    1    3    3    0    0 -0.21841562153E+02 -0.19902139700E+02 -0.45701990537E+02  0.54422614242E+02  0.00000000000E+00 0.  1.
        -13    1    4    4    0    0 -0.59601112831E+02  0.16525607029E+02 -0.32933776500E+03  0.33509513842E+03  0.00000000000E+00 0.  1.
         13    1    4    4    0    0 -0.58187018464E+02  0.32983395261E+02 -0.85442821255E+02  0.10850856733E+03  0.00000000000E+00 0. -1.
          2    1    1    2  501    0  0.72940262612E+02 -0.16682575299E+02 -0.68969958441E+02  0.10176170889E+03  0.00000000000E+00 0. -1.
<scales pt_clust_5="13000.00000" pt_clust_6="13000.00000" pt_clust_7="13000.00000" pt_clust_8="13000.00000" pt_clust_9="74.82373"></scales>
<clustering>
<clus scale="   74.824">  1  9  2 -1</clus>
<clus scale="   88.942">  5  6 -1 -1</clus>
<clus scale="   91.739">  7  8 -1 -1</clus>
<clus scale="  121.102">  2  5  1 -1</clus>
<clus scale="   74.824">  1  5  2 -1</clus>
</clustering>
</event>
<event>
 9    1  0.1636528E-005  0.1352597E+03  0.7546771E-02  0.1226140E+00
         21   -1    0    0  501  502  0.00000000000E+00  0.00000000000E+00  0.83503173489E+02  0.83503173489E+02  0.00000000000E+00 0. -1.
         -4   -1    0    0    0  501 -0.00000000000E+00 -0.00000000000E+00 -0.37434950819E+03  0.37434950819E+03  0.00000000000E+00 0.  1.
         23    2    1    2    0    0  0.48210628645E+02  0.90252946823E+02 -0.23721384204E+03  0.27579546550E+03  0.96555024761E+02 0.  0.
         23    2    1    2    0    0 -0.27831260332E+02 -0.80092048097E+02 -0.87519599192E+02  0.14122954780E+03  0.71391804215E+02 0.  0.
        -11    1    4    4    0    0 -0.11679421190E+02 -0.26397723275E+02  0.84526304315E+01  0.30078158764E+02  0.00000000000E+00 0.  1.
         11    1    4    4    0    0 -0.16151839142E+02 -0.53694324822E+02 -0.95972229624E+02  0.11115138904E+03  0.00000000000E+00 0. -1.
        -11    1    3    3    0    0 -0.23047928561E+02  0.57714814318E+02 -0.97602429431E+02  0.11570843113E+03  0.00000000000E+00 0. -1.
         11    1    3    3    0    0  0.71258557206E+02  0.32538132505E+02 -0.13961141261E+03  0.16008703437E+03  0.00000000000E+00 0.  1.
         -4    1    1    2    0  502 -0.20379368313E+02 -0.10160898726E+02  0.33887106538E+02  0.40827668380E+02  0.00000000000E+00 0.  1.
<scales pt_clust_5="13000.00000" pt_clust_6="13000.00000" pt_clust_7="13000.00000" pt_clust_8="13000.00000" pt_clust_9="22.77197"></scales>
<clustering>
<clus scale="   22.772">  1  9  2 -1</clus>
<clus scale="   71.392">  5  6 -1 -1</clus>
<clus scale="   96.555">  7  8 -1 -1</clus>
<clus scale="  118.613">  1  5  2 -1</clus>
<clus scale="   22.772">  1  5  2 -1</clus>
</clustering>
</event>
<event>
 9    1  0.1636528E-005  0.1185185E+03  0.7546771E-02  0.1246190E+00
          1   -1    0    0  502    0 -0.00000000000E+00  0.00000000000E+00  0.46298590318E+03  0.46298590318E+03  0.00000000000E+00 0. -1.
         21   -1    0    0  501  502  0.00000000000E+00 -0.00000000000E+00 -0.43728730026E+02  0.43728730026E+02  0.00000000000E+00 0. -1.
         23    2    1    2    0    0 -0.24098170651E+02 -0.80209077085E+02  0.18747313503E+03  0.22449278639E+03  0.90755809227E+02 0.  0.
         23    2    1    2    0    0  0.37558487484E+02  0.51579906653E+02  0.11363684417E+03  0.15991253005E+03  0.92669078772E+02 0.  0.
        -11    1    4    4    0    0  0.65616051121E+02  0.32329685207E+02  0.52824837460E+02  0.90228255901E+02  0.00000000000E+00 0. -1.
         11    1    4    4    0    0 -0.28057563637E+02  0.19250221446E+02  0.60812006710E+02  0.69684274145E+02  0.00000000000E+00 0.  1.
        -13    1    3    3    0    0  0.54056580453E+01 -0.38877361514E+02  0.10863006982E+02  0.40726837563E+02  0.00000000000E+00 0.  1.
         13    1    3    3    0    0 -0.29503828697E+02 -0.41331715571E+02  0.17661012805E+03  0.18376594883E+03  0.00000000000E+00 0. -1.
          1    1    1    2  501    0 -0.13460316833E+02  0.28629170432E+02  0.11814719395E+03  0.12230931677E+03  0.00000000000E+00 0. -1.
<scales pt_clust_5="13000.00000" pt_clust_6="13000.00000" pt_clust_7="13000.00000" pt_clust_8="13000.00000" pt_clust_9="31.63559"></scales>
<clustering>
<clus scale="   31.636">  2  9  1 -1</clus>
<clus scale="   90.756">  7  8 -1 -1</clus>
<clus scale="   92.669">  5  6 -1 -1</clus>
<clus scale="  117.029">  1  7  2 -1</clus>
<clus scale="   31.636">  2  5  1 -1</clus>
</clustering>
</event>
<event>
 9    1  0.1636528E-005  0.1212783E+03  0.7546771E-02  0.1241385E+00
         21   -1    0    0  501  502  0.00000000000E+00  0.00000000000E+00  0.35697232117E+03  0.35697232117E+03  0.00000000000E+00 0.  1.
          4   -1    0    0  502    0 -0.00000000000E+00 -0.00000000000E+00 -0.67971474483E+02  0.67971474483E+02  0.00000000000E+00 0. -1.
         23    2    1    2    0    0 -0.62164288216E+02 -0.57664749709E+02  0.28119222014E+02  0.12845335757E+03  0.92303587886E+02 0.  0.
         23    2    1    2    0    0  0.49644382733E+02  0.40592554655E+02  0.17047131178E+03  0.20363446060E+03  0.91072526984E+02 0.  0.
        -11    1    3    3    0    0 -0.50540074985E+02  0.11546447515E+02  0.26572790533E+02  0.58255753591E+02  0.00000000000E+00 0. -1.
         11    1    3    3    0    0 -0.11624213231E+02 -0.69211197225E+02  0.15464314810E+01  0.70197603982E+02  0.00000000000E+00 0.  1.
        -13    1    4    4    0    0  0.21977579309E+02  0.31133630163E+02  0.17017909908E+03  0.17439392961E+03  0.00000000000E+00 0.  1.
         13    1    4    4    0    0  0.27666803424E+02  0.94589244913E+01  0.29221269949E+00  0.29240530989E+02  0.00000000000E+00 0. -1.
          4    1    1    2  501    0  0.12519905484E+02  0.17072195055E+02  0.90410312890E+02  0.92855977482E+02  0.00000000000E+00 0. -1.
<scales pt_clust_5="13000.00000" pt_clust_6="13000.00000" pt_clust_7="13000.00000" pt_clust_8="13000.00000" pt_clust_9="21.17092"></scales>
<clustering>
<clus scale="   21.171">  1  9  2 -1</clus>
<clus scale="   91.073">  7  8 -1 -1</clus>
<clus scale="   92.304">  5  6 -1 -1</clus>
<clus scale="  120.344">  1  7  2 -1</clus>
<clus scale="   21.171">  1  5  2 -1</clus>
</clustering>
</event>
<event>
 9    1  0.1636528E-005  0.1102550E+03  0.7546771E-02  0.1260112E+00
          2   -1    0    0  502    0 -0.00000000000E+00  0.00000000000E+00  0.59284608154E+03  0.59284608154E+03  0.00000000000E+00 0. -1.
         21   -1    0    0  501  502  0.00000000000E+00 -0.00000000000E+00 -0.27110116816E+02  0.27110116816E+02  0.00000000000E+00 0. -1.
         23    2    1    2    0    0  0.17041858273E+02  0.56756088788E+02  0.25665639764E+03  0.27859645023E+03  0.90729251546E+02 0.  0.
         23    2    1    2    0    0  0.90744647033E+01 -0.68462979936E+02  0.26834266430E+03  0.29157411892E+03  0.90764287092E+02 0.  0.
        -11    1    4    4    0    0  0.14899623412E+02 -0.18164707564E+02  0.58077786068E+01  0.24200943599E+02  0.00000000000E+00 0.  1.
         11    1    4    4    0    0 -0.58251587091E+01 -0.50298272372E+02  0.26253488569E+03  0.26737317533E+03  0.00000000000E+00 0. -1.
        -13    1    3    3    0    0 -0.22094993202E+02  0.64633960205E+02  0.15508431956E+03  0.16946056683E+03  0.00000000000E+00 0. -1.
         13    1    3    3    0    0  0.39136851475E+02 -0.78778714172E+01  0.10157207808E+03  0.10913588340E+03  0.00000000000E+00 0.  1.
          2    1    1    2  501    0 -0.26116322976E+02  0.11706891148E+02  0.40736902788E+02  0.49785629201E+02  0.00000000000E+00 0. -1.
<scales pt_clust_5="13000.00000" pt_clust_6="13000.00000" pt_clust_7="13000.00000" pt_clust_8="13000.00000" pt_clust_9="28.62016"></scales>
<clustering>
<clus scale="   28.620">  2  9  1 -1</clus>
<clus scale="   90.729">  7  8 -1 -1</clus>
<clus scale="   90.764">  5  6 -1 -1</clus>
<clus scale="  110.226">  1  7  2 -1</clus>
<clus scale="   28.620">  2  5  1 -1</clus>
</clustering>
</event>
<event>
 9    1  0.1636528E-005  0.3675085E+03  0.7546771E-02  0.1055948E+00
         -3   -1    0    0    0  501 -0.00000000000E+00  0.00000000000E+00  0.45792642006E+03  0.45792642006E+03  0.00000000000E+00 0.  1.
         21   -1    0    0  501  502  0.00000000000E+00 -0.00000000000E+00 -0.48439102231E+03  0.48439102231E+03  0.00000000000E+00 0.  1.
         23    2    1    2    0    0 -0.13113988123E+03  0.32316504145E+03  0.19673377967E+03  0.40939870773E+03  0.85263177053E+02 0.  0.
         23    2    1    2    0    0  0.11570974469E+03 -0.34841280227E+03 -0.81962503323E+02  0.38861657964E+03  0.97594919018E+02 0.  0.
        -13    1    3    3    0    0 -0.28570936860E+02  0.62961057032E+02  0.30778175817E+01  0.69208858514E+02  0.00000000000E+00 0. -1.
         13    1    3    3    0    0 -0.10256894437E+03  0.26020398442E+03  0.19365596208E+03  0.34018984922E+03  0.00000000000E+00 0.  1.
        -13    1    4    4    0    0  0.63514682323E+02 -0.87114325086E+02 -0.54333139668E+02  0.12072742262E+03  0.00000000000E+00 0. -1.
         13    1    4    4    0    0  0.52195062367E+02 -0.26129847718E+03 -0.27629363655E+02  0.26788915702E+03  0.00000000000E+00 0.  1.
         -3    1    1    2    0  502  0.15430136544E+02  0.25247760813E+02 -0.14123587859E+03  0.14430215501E+03  0.00000000000E+00 0.  1.
<scales pt_clust_5="13000.00000" pt_clust_6="13000.00000" pt_clust_7="13000.00000" pt_clust_8="13000.00000" pt_clust_9="29.58950"></scales>
<clustering>
<clus scale="   29.590">  2  9  1 -1</clus>
<clus scale="   85.263">  5  6 -1 -1</clus>
<clus scale="   97.595">  7  8 -1 -1</clus>
<clus scale="  364.428">  1  5  2 -1</clus>
<clus scale="   29.590">  2  5  1 -1</clus>
</clustering>
</event>
<event>
 9    1  0.1636528E-005  0.1084867E+03  0.7546771E-02  0.1268704E+00
         21   -1    0    0  501  502  0.00000000000E+00  0.00000000000E+00  0.20230232726E+03  0.20230232726E+03  0.00000000000E+00 0.  1.
         -1   -1    0    0    0  501 -0.00000000000E+00 -0.00000000000E+00 -0.12118350793E+03  0.12118350793E+03  0.00000000000E+00 0.  1.
         23    2    1    2    0    0  0.32136448598E+02 -0.45256912672E+02 -0.43128612482E+02  0.12430681006E+03  0.10252397934E+03 0.  0.
         23    2    1    2    0    0 -0.34198622462E+01 -0.35177750236E+01  0.45028433647E+02  0.10181752267E+03  0.91187597223E+02 0.  0.
        -11    1    4    4    0    0  0.12729708415E+02  0.37571771017E+02  0.41681494034E+02  0.57541553668E+02  0.00000000000E+00 0. -1.
         11    1    4    4    0    0 -0.16149570661E+02 -0.41089546040E+02  0.33469396130E+01  0.44275969002E+02  0.00000000000E+00 0.  1.
        -13    1    3    3    0    0  0.54486461061E+02 -0.19138430847E+02  0.12336484842E+02  0.59052881661E+02  0.00000000000E+00 0. -1.
         13    1    3    3    0    0 -0.22350012463E+02 -0.26118481825E+02 -0.55465097324E+02  0.65253928396E+02  0.00000000000E+00 0.  1.
         -1    1    1    2    0  502 -0.28716586352E+02  0.48774687696E+02  0.79218998167E+02  0.97361502464E+02  0.00000000000E+00 0.  1.
<scales pt_clust_5="13000.00000" pt_clust_6="13000.00000" pt_clust_7="13000.00000" pt_clust_8="13000.00000" pt_clust_9="56.60046"></scales>
<clustering>
<clus scale="   56.600">  1  9  2 -1</clus>
<clus scale="   91.188">  5  6 -1 -1</clus>
<clus scale="   97.844">  1  5  2 -1</clus>
<clus scale="  102.524">  7  8 -1 -1</clus>
<clus scale="   56.600">  1  5  2 -1</clus>
</clustering>
</event>
<event>
 9    1  0.1636528E-005  0.9854118E+02  0.7546771E-02  0.1284052E+00
         -1   -1    0    0    0  501 -0.00000000000E+00  0.00000000000E+00  0.12403536588E+03  0.12403536588E+03  0.00000000000E+00 0.  1.
         21   -1    0    0  501  502  0.00000000000E+00 -0.00000000000E+00 -0.11515526662E+03  0.11515526662E+03  0.00000000000E+00 0. -1.
         23    2    1    2    0    0 -0.24544702274E+02  0.40802201037E+02  0.39368322372E+02  0.11046650401E+03  0.91573586163E+02 0.  0.
         23    2    1    2    0    0 -0.74724944085E+00 -0.21324483446E+02 -0.18189216968E+02  0.94514044358E+02  0.90259431591E+02 0.  0.
        -13    1    3    3    0    0 -0.26956853453E+02 -0.21264106222E+02 -0.42093461458E+01  0.34591223691E+02  0.00000000000E+00 0. -1.
         13    1    3    3    0    0  0.24121511788E+01  0.62066307258E+02  0.43577668518E+02  0.75875280319E+02  0.00000000000E+00 0.  1.
        -13    1    4    4    0    0  0.11178161469E+02 -0.55301723000E+02 -0.72759480561E+01  0.56887356071E+02  0.00000000000E+00 0. -1.
         13    1    4    4    0    0 -0.11925410910E+02  0.33977239555E+02 -0.10913268912E+02  0.37626688287E+02  0.00000000000E+00 0.  1.
         -1    1    1    2    0  502  0.25291951715E+02 -0.19477717591E+02 -0.12299006150E+02  0.34210084133E+02  0.00000000000E+00 0.  1.
<scales pt_clust_5="13000.00000" pt_clust_6="13000.00000" pt_clust_7="13000.00000" pt_clust_8="13000.00000" pt_clust_9="31.92279"></scales>
<clustering>
<clus scale="   31.923">  2  9  1 -1</clus>
<clus scale="   90.259">  7  8 -1 -1</clus>
<clus scale="   91.574">  5  6 -1 -1</clus>
<clus scale="   97.321">  2  7  1 -1</clus>
<clus scale="   31.923">  2  5  1 -1</clus>
</clustering>
</event>
<event>
 9    1  0.1636528E-005  0.1505875E+03  0.7546771E-02  0.1200850E+00
         -2   -1    0    0    0  501 -0.00000000000E+00  0.00000000000E+00  0.59590116674E+03  0.59590116674E+03  0.00000000000E+00 0.  1.
         21   -1    0    0  501  502  0.00000000000E+00 -0.00000000000E+00 -0.82895759084E+02  0.82895759084E+02  0.00000000000E+00 0.  1.
         23    2    1    2    0    0  0.35914083829E+02 -0.12657771100E+03  0.45245939460E+03  0.48128606085E+03  0.98005256302E+02 0.  0.
         23    2    1    2    0    0 -0.41375624979E+02  0.60425941194E+02  0.57086252851E+02  0.13104391814E+03  0.92468543334E+02 0.  0.
        -11    1    4    4    0    0  0.22789985532E+02  0.12655914215E+02  0.42309506726E+02  0.49695572887E+02  0.00000000000E+00 0.  1.
         11    1    4    4    0    0 -0.64165610512E+02  0.47770026979E+02  0.14776746125E+02  0.81348345257E+02  0.00000000000E+00 0. -1.
        -11    1    3    3    0    0 -0.26820675673E+01 -0.39305811069E+02  0.33862534683E+02  0.51950086865E+02  0.00000000000E+00 0. -1.
         11    1    3    3    0    0  0.38596151397E+02 -0.87271899932E+02  0.41859685992E+03  0.42933597398E+03  0.00000000000E+00 0.  1.
         -2    1    1    2    0  502  0.54615411500E+01  0.66151769807E+02  0.34597602009E+01  0.66466946830E+02  0.00000000000E+00 0.  1.
<scales pt_clust_5="13000.00000" pt_clust_6="13000.00000" pt_clust_7="13000.00000" pt_clust_8="13000.00000" pt_clust_9="66.37684"></scales>
<clustering>
<clus scale="   66.377">  2  9  1 -1</clus>
<clus scale="   92.469">  5  6 -1 -1</clus>
<clus scale="   98.005">  7  8 -1 -1</clus>
<clus scale="  147.044">  2  5  1 -1</clus>
<clus scale="   66.377">  2  5  1 -1</clus>
</clustering>
</event>
<event>
 9    1  0.1636528E-005  0.1005507E+03  0.7546771E-02  0.1282771E+00
         -1   -1    0    0    0  501 -0.00000000000E+00  0.00000000000E+00  0.76520173539E+02  0.76520173539E+02  0.00000000000E+00 0.  1.
         21   -1    0    0  501  502  0.00000000000E+00 -0.00000000000E+00 -0.50471397278E+03  0.50471397278E+03  0.00000000000E+00 0. -1.
         23    2    1    2    0    0  0.39434821334E+01 -0.19121330003E+02  0.29365765819E+02  0.10530631218E+03  0.99226482708E+02 0.  0.
         23    2    1    2    0    0  0.96533741314E+01 -0.46242849392E+01 -0.25341857613E+03  0.26996115700E+03  0.92430946758E+02 0.  0.
        -11    1    3    3    0    0 -0.16806058347E+02  0.34837732197E+02 -0.34459026560E+01  0.38832788039E+02  0.00000000000E+00 0. -1.
         11    1    3    3    0    0  0.20749540480E+02 -0.53959062200E+02  0.32811668475E+02  0.66473524141E+02  0.00000000000E+00 0.  1.
        -13    1    4    4    0    0  0.35889064356E+02  0.18550340583E+02 -0.21161429125E+03  0.21543618158E+03  0.00000000000E+00 0. -1.
         13    1    4    4    0    0 -0.26235690225E+02 -0.23174625522E+02 -0.41804284886E+02  0.54524975420E+02  0.00000000000E+00 0.  1.
         -1    1    1    2    0  502 -0.13596856265E+02  0.23745614942E+02 -0.20414098893E+03  0.20596667714E+03  0.00000000000E+00 0.  1.
<scales pt_clust_5="13000.00000" pt_clust_6="13000.00000" pt_clust_7="13000.00000" pt_clust_8="13000.00000" pt_clust_9="27.36291"></scales>
<clustering>
<clus scale="   27.363">  2  9  1 -1</clus>
<clus scale="   92.431">  7  8 -1 -1</clus>
<clus scale="   93.851">  2  7  1 -1</clus>
<clus scale="   99.226">  5  6 -1 -1</clus>
<clus scale="   27.363">  2  5  1 -1</clus>
</clustering>
</event>
<event>
 9    1  0.1636528E-005  0.1073076E+03  0.7546771E-02  0.1267351E+00
          1   -1    0    0  502    0 -0.00000000000E+00  0.00000000000E+00  0.38360057635E+03  0.38360057635E+03  0.00000000000E+00 0. -1.
         21   -1    0    0  501  502  0.00000000000E+00 -0.00000000000E+00 -0.65301485875E+02  0.65301485875E+02  0.00000000000E+00 0.  1.
         23    2    1    2    0    0  0.48531731994E+02  0.25087267886E+01  0.27275451550E+03  0.29111564153E+03  0.89396131332E+02 0.  0.
         23    2    1    2    0    0 -0.68530186838E+02  0.20055693821E+01  0.62047123562E+02  0.13146815374E+03  0.93453844691E+02 0.  0.
        -11    1    3    3    0    0  0.69079587840E+02 -0.18778621158E+02  0.17823811308E+03  0.19207668006E+03  0.00000000000E+00 0. -1.
         11    1    3    3    0    0 -0.20547855846E+02  0.21287347947E+02  0.94516402423E+02  0.99038961472E+02  0.00000000000E+00 0.  1.
        -13    1    4    4    0    0  0.18193997194E+02 -0.17988793051E+02  0.22525634284E+02  0.34088449793E+02  0.00000000000E+00 0. -1.
         13    1    4    4    0    0 -0.86724184032E+02  0.19994362433E+02  0.39521489278E+02  0.97379703942E+02  0.00000000000E+00 0.  1.
          1    1    1    2  501    0  0.19998454844E+02 -0.45142961707E+01 -0.16502548586E+02  0.26318266963E+02  0.00000000000E+00 0. -1.
<scales pt_clust_5="13000.00000" pt_clust_6="13000.00000" pt_clust_7="13000.00000" pt_clust_8="13000.00000" pt_clust_9="20.50164"></scales>
<clustering>
<clus scale="   20.502">  2  9  1 -1</clus>
<clus scale="   89.396">  5  6 -1 -1</clus>
<clus scale="   93.454">  7  8 -1 -1</clus>
<clus scale="  103.793">  1  5  2 -1</clus>
<clus scale="   20.502">  2  5  1 -1</clus>
</clustering>
</event>
<event>
 9    1  0.1636528E-005  0.1985928E+03  0.7546771E-02  0.1151418E+00
          1   -1    0    0  502    0 -0.00000000000E+00  0.00000000000E+00  0.48578241479E+03  0.48578241479E+03  0.00000000000E+00 0. -1.
         21   -1    0    0  501  502  0.00000000000E+00 -0.00000000000E+00 -0.23249117703E+03  0.23249117703E+03  0.00000000000E+00 0. -1.
         23    2    1    2    0    0 -0.98017566792E+02 -0.13774790421E+03  0.30782600768E+03  0.36362467839E+03  0.94255648171E+02 0.  0.
         23    2    1    2    0    0  0.10862518360E+03  0.15588319430E+03  0.75349255897E+02  0.22307661222E+03  0.89368136259E+02 0.  0.
        -11    1    3    3    0    0  0.75810072548E+01 -0.64738832835E+02  0.10328162571E+03  0.12212977670E+03  0.00000000000E+00 0.  1.
         11    1    3    3    0    0 -0.10559857405E+03 -0.73009071379E+02  0.20454438198E+03  0.24149490169E+03  0.00000000000E+00 0. -1.
        -13    1    4    4    0    0  0.61918968242E+02  0.34188629632E+02 -0.33531297352E+01  0.70810059337E+02  0.00000000000E+00 0.  1.
         13    1    4    4    0    0  0.46706215355E+02  0.12169456467E+03  0.78702385632E+02  0.15226655288E+03  0.00000000000E+00 0. -1.
          1    1    1    2  501    0 -0.10607616804E+02 -0.18135290085E+02 -0.12988402582E+03  0.13157230120E+03  0.00000000000E+00 0. -1.
<scales pt_clust_5="13000.00000" pt_clust_6="13000.00000" pt_clust_7="13000.00000" pt_clust_8="13000.00000" pt_clust_9="21.00977"></scales>
<clustering>
<clus scale="   21.010">  2  9  1 -1</clus>
<clus scale="   89.368">  7  8 -1 -1</clus>
<clus scale="   94.256">  5  6 -1 -1</clus>
<clus scale="  196.320">  2  7  1 -1</clus>
<clus scale="   21.010">  2  5  1 -1</clus>
</clustering>
</event>
<event>
 9    1  0.1636528E-005  0.1534294E+03  0.7546771E-02  0.1196606E+00
         -1   -1    0    0    0  501 -0.00000000000E+00  0.00000000000E+00  0.81221963778E+03  0.81221963778E+03  0.00000000000E+00 0.  1.
         21   -1    0    0  501  502  0.00000000000E+00 -0.00000000000E+00 -0.36538013150E+02  0.36538013150E+02  0.00000000000E+00 0. -1.
         23    2    1    2    0    0  0.75175239496E+02 -0.99938466350E+02  0.46135429425E+03  0.48724569872E+03  0.94454075641E+02 0.  0.
         23    2    1    2    0    0 -0.46843269159E+02  0.10253114637E+03  0.24082025204E+03  0.28269118656E+03  0.95984297273E+02 0.  0.
        -11    1    4    4    0    0 -0.30062207966E+02  0.40630663071E+02  0.20087017149E+03  0.20713139048E+03  0.00000000000E+00 0.  1.
         11    1    4    4    0    0 -0.16781061193E+02  0.61900483295E+02  0.39950080557E+02  0.75559796078E+02  0.00000000000E+00 0. -1.
        -13    1    3    3    0    0  0.11963082814E+02 -0.80455210032E+02  0.16973040837E+03  0.18821415382E+03  0.00000000000E+00 0.  1.
         13    1    3    3    0    0  0.63212156682E+02 -0.19483256318E+02  0.29162388588E+03  0.29903154490E+03  0.00000000000E+00 0. -1.
         -1    1    1    2    0  502 -0.28331970337E+02 -0.25926800156E+01  0.73507078332E+02  0.78820765651E+02  0.00000000000E+00 0.  1.
<scales pt_clust_5="13000.00000" pt_clust_6="13000.00000" pt_clust_7="13000.00000" pt_clust_8="13000.00000" pt_clust_9="28.45037"></scales>
<clustering>
<clus scale="   28.450">  2  9  1 -1</clus>
<clus scale="   94.454">  7  8 -1 -1</clus>
<clus scale="   95.984">  5  6 -1 -1</clus>
<clus scale="  152.477">  1  7  2 -1</clus>
<clus scale="   28.450">  2  5  1 -1</clus>
</clustering>
</event>
<event>
 9    1  0.1636528E-005  0.1049031E+03  0.7546771E-02  0.1271139E+00
         -1   -1    0    0    0  501 -0.00000000000E+00  0.00000000000E+00  0.16054015493E+03  0.16054015493E+03  0.00000000000E+00 0.  1.
         21   -1    0    0  501  502  0.00000000000E+00 -0.00000000000E+00 -0.20409216975E+03  0.20409216975E+03  0.00000000000E+00 0. -1.
         23    2    1    2    0    0 -0.34499377084E+02 -0.28099276071E+02  0.86627306517E+02  0.13201613112E+03  0.89130198618E+02 0.  0.
         23    2    1    2    0    0  0.85722229159E+02  0.21886992138E+02 -0.48299849240E+02  0.13583488856E+03  0.91054382195E+02 0.  0.
        -11    1    3    3    0    0 -0.26597483886E+02 -0.60497397039E+02  0.53721164366E+02  0.85166452894E+02  0.00000000000E+00 0.  1.
         11    1    3    3    0    0 -0.79018931974E+01  0.32398120968E+02  0.32906142150E+02  0.46849678223E+02  0.00000000000E+00 0. -1.
        -13    1    4    4    0    0  0.42629541976E+02  0.32813123085E+02 -0.68421243340E+02  0.87037034852E+02  0.00000000000E+00 0. -1.
         13    1    4    4    0    0  0.43092687183E+02 -0.10926130947E+02  0.20121394100E+02  0.48797853710E+02  0.00000000000E+00 0.  1.
         -1    1    1    2    0  502 -0.51222852075E+02  0.62122839325E+01 -0.81879472104E+02  0.96781305005E+02  0.00000000000E+00 0.  1.
<scales pt_clust_5="13000.00000" pt_clust_6="13000.00000" pt_clust_7="13000.00000" pt_clust_8="13000.00000" pt_clust_9="51.59819"></scales>
<clustering>
<clus scale="   51.598">  2  9  1 -1</clus>
<clus scale="   89.130">  5  6 -1 -1</clus>
<clus scale="   91.054">  7  8 -1 -1</clus>
<clus scale="  103.237">  1  5  2 -1</clus>
<clus scale="   51.598">  2  5  1 -1</clus>
</clustering>
</event>
<event>
 9    1  0.1636528E-005  0.1329374E+03  0.7546771E-02  0.1229193E+00
         -3   -1    0    0    0  501 -0.00000000000E+00  0.00000000000E+00  0.16630287949E+03  0.16630287949E+03  0.00000000000E+00 0.  1.
         21   -1    0    0  501  502  0.00000000000E+00 -0.00000000000E+00 -0.32819212200E+03  0.32819212200E+03  0.00000000000E+00 0. -1.
         23    2    1    2    0    0  0.57824314275E+02  0.46074177715E+02 -0.19915397353E+01  0.98831454950E+02  0.65553101250E+02 0.  0.
         23    2    1    2    0    0 -0.14049859242E+03  0.13754380990E+01  0.41995607720E+02  0.17239820860E+03  0.90640857006E+02 0.  0.
        -11    1    3    3    0    0  0.60425117099E+02  0.17439717976E+02  0.16024695804E+02  0.64900919987E+02  0.00000000000E+00 0.  1.
         11    1    3    3    0    0 -0.26008028234E+01  0.28634459739E+02 -0.18016235540E+02  0.33930534963E+02  0.00000000000E+00 0. -1.
        -13    1    4    4    0    0 -0.11906237980E+03 -0.12762520343E+02  0.66442985281E+02  0.13694306299E+03  0.00000000000E+00 0. -1.
         13    1    4    4    0    0 -0.21436212621E+02  0.14137958442E+02 -0.24447377561E+02  0.35455145607E+02  0.00000000000E+00 0.  1.
         -3    1    1    2    0  502  0.82674278140E+02 -0.47449615814E+02 -0.20189331049E+03  0.22326533795E+03  0.00000000000E+00 0.  1.
<scales pt_clust_5="13000.00000" pt_clust_6="13000.00000" pt_clust_7="13000.00000" pt_clust_8="13000.00000" pt_clust_9="95.32315"></scales>
<clustering>
<clus scale="   65.553">  5  6 -1 -1</clus>
<clus scale="   90.641">  7  8 -1 -1</clus>
<clus scale="   95.323">  2  9  1 -1</clus>
<clus scale="  117.277">  1  5  2 -1</clus>
<clus scale="   95.323">  2  5  1 -1</clus>
</clustering>
</event>
<event>
 9    1  0.1636528E-005  0.9946839E+02  0.7546771E-02  0.1282241E+00
         -3   -1    0    0    0  501 -0.00000000000E+00  0.00000000000E+00  0.24037468816E+03  0.24037468816E+03  0.00000000000E+00 0.  1.
         21   -1    0    0  501  502  0.00000000000E+00 -0.00000000000E+00 -0.78259598923E+02  0.78259598923E+02  0.00000000000E+00 0.  1.
         23    2    1    2    0    0 -0.35070219233E+02  0.55062083983E+01  0.12907509792E+03  0.16170291345E+03  0.90703983965E+02 0.  0.
         23    2    1    2    0    0  0.38830470884E+02  0.31192195801E+02  0.50101129996E+02  0.11628663453E+03  0.92367199786E+02 0.  0.
        -11    1    3    3    0    0 -0.60765990616E+02  0.12525848859E+02  0.54741749857E+02  0.82740931120E+02  0.00000000000E+00 0.  1.
         11    1    3    3    0    0  0.25695771383E+02 -0.70196404610E+01  0.74333348063E+02  0.78961982330E+02  0.00000000000E+00 0. -1.
        -13    1    4    4    0    0  0.55507024157E+02  0.43428270383E+02  0.10023817964E+02  0.71186524889E+02  0.00000000000E+00 0.  1.
         13    1    4    4    0    0 -0.16676553272E+02 -0.12236074582E+02  0.40077312032E+02  0.45100109645E+02  0.00000000000E+00 0. -1.
         -3    1    1    2    0  502 -0.37602516513E+01 -0.36698404199E+02 -0.17061138681E+02  0.40644739098E+02  0.00000000000E+00 0.  1.
<scales pt_clust_5="13000.00000" pt_clust_6="13000.00000" pt_clust_7="13000.00000" pt_clust_8="13000.00000" pt_clust_9="36.89055"></scales>
<clustering>
<clus scale="   36.891">  2  9  1 -1</clus>
<clus scale="   90.704">  5  6 -1 -1</clus>
<clus scale="   92.367">  7  8 -1 -1</clus>
<clus scale="   97.926">  1  5  2 -1</clus>
<clus scale="   36.891">  2  5  1 -1</clus>
</clustering>
</event>
<event>
 9    1  0.1636528E-005  0.1128860E+03  0.7546771E-02  0.1255812E+00
         21   -1    0    0  501  502  0.00000000000E+00  0.00000000000E+00  0.13435424596E+03  0.13435424596E+03  0.00000000000E+00 0. -1.
          1   -1    0    0  502    0 -0.00000000000E+00 -0.00000000000E+00 -0.43984257688E+03  0.43984257688E+03  0.00000000000E+00 0. -1.
         23    2    1    2    0    0 -0.38443470186E+02 -0.82369706809E+02 -0.25616904603E+03  0.28744530891E+03  0.93485594999E+02 0.  0.
         23    2    1    2    0    0 -0.25634384111E+02  0.40649055697E+02 -0.13599959750E+03  0.17116578498E+03  0.92154045225E+02 0.  0.
        -11    1    4    4    0    0 -0.23474789031E+02 -0.22315082978E+02 -0.82087540576E+02  0.88246206526E+02  0.00000000000E+00 0.  1.
         11    1    4    4    0    0 -0.21595950799E+01  0.62964138674E+02 -0.53912056920E+02  0.82919578455E+02  0.00000000000E+00 0. -1.
        -11    1    3    3    0    0  0.22369107292E+02 -0.62544522747E+02 -0.12916089131E+03  0.14524024969E+03  0.00000000000E+00 0.  1.
         11    1    3    3    0    0 -0.60812577478E+02 -0.19825184062E+02 -0.12700815472E+03  0.14220505922E+03  0.00000000000E+00 0. -1.
          1    1    1    2  501    0  0.64077854297E+02  0.41720651112E+02  0.86680312608E+02  0.11558572894E+03  0.00000000000E+00 0. -1.
<scales pt_clust_5="13000.00000" pt_clust_6="13000.00000" pt_clust_7="13000.00000" pt_clust_8="13000.00000" pt_clust_9="76.46296"></scales>
<clustering>
<clus scale="   76.463">  1  9  2 -1</clus>
<clus scale="   92.154">  5  6 -1 -1</clus>
<clus scale="   93.486">  7  8 -1 -1</clus>
<clus scale="  111.786">  1  5  2 -1</clus>
<clus scale="   76.463">  1  5  2 -1</clus>
</clustering>
</event>
<event>
 9    1  0.1636528E-005  0.1368006E+03  0.7546771E-02  0.1217728E+00
          3   -1    0    0  502    0 -0.00000000000E+00  0.00000000000E+00  0.69405520159E+03  0.69405520159E+03  0.00000000000E+00 0. -1.
         21   -1    0    0  501  502  0.00000000000E+00 -0.00000000000E+00 -0.71326161829E+02  0.71326161829E+02  0.00000000000E+00 0.  1.
         23    2    1    2    0    0  0.42360948560E+02  0.94746835465E+02  0.48360445575E+03  0.50312755608E+03  0.92155603578E+02 0.  0.
         23    2    1    2    0    0  0.25916071721E+02 -0.10346369184E+03  0.49664179147E+02  0.14937821599E+03  0.92037722806E+02 0.  0.
        -11    1    4    4    0    0  0.49945391764E+02 -0.53726571436E+02 -0.25057486173E+01  0.73398674463E+02  0.00000000000E+00 0.  1.
         11    1    4    4    0    0 -0.24029320042E+02 -0.49737120408E+02  0.52169927764E+02  0.75979541530E+02  0.00000000000E+00 0. -1.
        -13    1    3    3    0    0  0.60043160077E+02  0.27968504435E+02  0.18102527172E+03  0.19276298222E+03  0.00000000000E+00 0.  1.
         13    1    3    3    0    0 -0.17682211518E+02  0.66778331030E+02  0.30257918403E+03  0.31036457386E+03  0.00000000000E+00 0. -1.
          3    1    1    2  501    0 -0.68277020281E+02  0.87168563791E+01  0.89460404862E+02  0.11287559135E+03  0.00000000000E+00 0. -1.
<scales pt_clust_5="13000.00000" pt_clust_6="13000.00000" pt_clust_7="13000.00000" pt_clust_8="13000.00000" pt_clust_9="68.83121"></scales>
<clustering>
<clus scale="   68.831">  2  9  1 -1</clus>
<clus scale="   92.038">  5  6 -1 -1</clus>
<clus scale="   92.156">  7  8 -1 -1</clus>
<clus scale="  136.721">  2  5  1 -1</clus>
<clus scale="   68.831">  2  5  1 -1</clus>
</clustering>
</event>
<event>
 9    1  0.1636528E-005  0.2347398E+03  0.7546771E-02  0.1123795E+00
          1   -1    0    0  502    0 -0.00000000000E+00  0.00000000000E+00  0.12150664177E+04  0.12150664177E+04  0.00000000000E+00 0. -1.
         21   -1    0    0  501  502  0.00000000000E+00 -0.00000000000E+00 -0.67920063620E+02  0.67920063620E+02  0.00000000000E+00 0. -1.
         23    2    1    2    0    0  0.18075771523E+03 -0.80529546781E+02  0.65443775563E+03  0.68919013675E+03  0.86809614002E+02 0.  0.
         23    2    1    2    0    0 -0.23110714019E+03  0.11009618539E+03  0.41747262582E+03  0.49856135998E+03  0.93532647122E+02 0.  0.
        -11    1    4    4    0    0 -0.18084235594E+03  0.12234601964E+03  0.36166638444E+03  0.42246311064E+03  0.00000000000E+00 0. -1.
         11    1    4    4    0    0 -0.50264784254E+02 -0.12249834258E+02  0.55806241380E+02  0.76098249339E+02  0.00000000000E+00 0.  1.
        -13    1    3    3    0    0  0.10878469912E+03 -0.91223356571E+01  0.41615057822E+03  0.43023090489E+03  0.00000000000E+00 0. -1.
         13    1    3    3    0    0  0.71973016112E+02 -0.71407211124E+02  0.23828717741E+03  0.25895923187E+03  0.00000000000E+00 0.  1.
          1    1    1    2  501    0  0.50349424962E+02 -0.29566638605E+02  0.75235972678E+02  0.95234984629E+02  0.00000000000E+00 0. -1.
<scales pt_clust_5="13000.00000" pt_clust_6="13000.00000" pt_clust_7="13000.00000" pt_clust_8="13000.00000" pt_clust_9="58.38879"></scales>
<clustering>
<clus scale="   58.389">  2  9  1 -1</clus>
<clus scale="   86.810">  7  8 -1 -1</clus>
<clus scale="   93.533">  5  6 -1 -1</clus>
<clus scale="  232.143">  1  7  2 -1</clus>
<clus scale="   58.389">  2  5  1 -1</clus>
</clustering>
</event>
<event>
 9    1  0.1636528E-005  0.1001320E+03  0.7546771E-02  0.1280193E+00
         21   -1    0    0  501  502  0.00000000000E+00  0.00000000000E+00  0.29858917064E+02  0.29858917064E+02  0.00000000000E+00 0.  1.
          2   -1    0    0  502    0 -0.00000000000E+00 -0.00000000000E+00 -0.56623619577E+03  0.56623619577E+03  0.00000000000E+00 0. -1.
         23    2    1    2    0    0 -0.45801385922E+02  0.29391824521E+01 -0.31716027051E+03  0.33327390200E+03  0.91512025545E+02 0.  0.
         23    2    1    2    0    0  0.30014531701E+02 -0.15792131650E+02 -0.22164728638E+03  0.24231927626E+03  0.91874090763E+02 0.  0.
        -11    1    3    3    0    0 -0.39845285487E+02  0.41613029412E+02 -0.13201875330E+03  0.14404250142E+03  0.00000000000E+00 0.  1.
         11    1    3    3    0    0 -0.59561004344E+01 -0.38673846960E+02 -0.18514151721E+03  0.18923140058E+03  0.00000000000E+00 0. -1.
        -11    1    4    4    0    0 -0.32484182998E+02 -0.13549254194E+01 -0.93953777154E+02  0.99420170033E+02  0.00000000000E+00 0.  1.
         11    1    4    4    0    0  0.62498714699E+02 -0.14437206230E+02 -0.12769350922E+03  0.14289910623E+03  0.00000000000E+00 0. -1.
          2    1    1    2  501    0  0.15786854221E+02  0.12852949198E+02  0.24302781799E+01  0.20501934574E+02  0.00000000000E+00 0. -1.
<scales pt_clust_5="13000.00000" pt_clust_6="13000.00000" pt_clust_7="13000.00000" pt_clust_8="13000.00000" pt_clust_9="20.35738"></scales>
<clustering>
<clus scale="   20.357">  1  9  2 -1</clus>
<clus scale="   91.512">  5  6 -1 -1</clus>
<clus scale="   91.874">  7  8 -1 -1</clus>
<clus scale="   99.800">  2  5  1 -1</clus>
<clus scale="   20.357">  1  5  2 -1</clus>
</clustering>
</event>
<event>
 9    1  0.1636528E-005  0.9268505E+02  0.7546771E-02  0.1298779E+00
         21   -1    0    0  501  502  0.00000000000E+00  0.00000000000E+00  0.39713114707E+02  0.39713114707E+02  0.00000000000E+00 0. -1.
         -2   -1    0    0    0  501 -0.00000000000E+00 -0.00000000000E+00 -0.32938777413E+03  0.32938777413E+03  0.00000000000E+00 0.  1.
         23    2    1    2    0    0  0.32500087807E+01 -0.22352960013E+02 -0.20152457066E+03  0.22065781569E+03  0.86991388473E+02 0.  0.
         23    2    1    2    0    0  0.13763924291E+02  0.81868243849E+01 -0.86030870817E+02  0.12620247059E+03  0.90935598879E+02 0.  0.
        -11    1    3    3    0    0  0.22359202495E+02 -0.47447630216E+02 -0.16085083441E+03  0.16918688625E+03  0.00000000000E+00 0.  1.
         11    1    3    3    0    0 -0.19109193714E+02  0.25094670203E+02 -0.40673736250E+02  0.51470929441E+02  0.00000000000E+00 0. -1.
        -13    1    4    4    0    0  0.34588754874E+02 -0.33515645551E+01  0.21957562439E+01  0.34820055919E+02  0.00000000000E+00 0. -1.
         13    1    4    4    0    0 -0.20824830583E+02  0.11538388940E+02 -0.88226627061E+02  0.91382414669E+02  0.00000000000E+00 0.  1.
         -2    1    1    2    0  502 -0.17013933071E+02  0.14166135628E+02 -0.21192179411E+01  0.22240602552E+02  0.00000000000E+00 0.  1.
<scales pt_clust_5="13000.00000" pt_clust_6="13000.00000" pt_clust_7="13000.00000" pt_clust_8="13000.00000" pt_clust_9="22.13941"></scales>
<clustering>
<clus scale="   22.139">  1  9  2 -1</clus>
<clus scale="   86.991">  5  6 -1 -1</clus>
<clus scale="   88.819">  2  5  1 -1</clus>
<clus scale="   90.936">  7  8 -1 -1</clus>
<clus scale="   22.139">  1  5  2 -1</clus>
</clustering>
</event>
<event>
 9    1  0.1636528E-005  0.1045536E+03  0.7546771E-02  0.1271036E+00
         21   -1    0    0  501  502  0.00000000000E+00  0.00000000000E+00  0.23750803561E+03  0.23750803561E+03  0.00000000000E+00 0. -1.
          2   -1    0    0  502    0 -0.00000000000E+00 -0.00000000000E+00 -0.16980072702E+03  0.16980072702E+03  0.00000000000E+00 0. -1.
         23    2    1    2    0    0 -0.18538962955E+02  0.68688322808E+02 -0.66176807027E+02  0.13317962223E+03  0.91080531131E+02 0.  0.
         23    2    1    2    0    0 -0.76273776547E+01 -0.32247838407E+02 -0.32115032272E+02  0.10217477616E+03  0.91160351104E+02 0.  0.
        -11    1    4    4    0    0 -0.75362868751E+01  0.28251120615E+02 -0.29625702819E+02  0.41624556495E+02  0.00000000000E+00 0. -1.
         11    1    4    4    0    0 -0.91090779591E-01 -0.60498959022E+02 -0.24893294535E+01  0.60550219665E+02  0.00000000000E+00 0.  1.
        -13    1    3    3    0    0  0.24257283798E+02 -0.97765479172E+01 -0.13456071075E+02  0.29411945791E+02  0.00000000000E+00 0.  1.
         13    1    3    3    0    0 -0.42796246753E+02  0.78464870725E+02 -0.52720735951E+02  0.10376767644E+03  0.00000000000E+00 0. -1.
          2    1    1    2  501    0  0.26166340610E+02 -0.36440484401E+02  0.16599914788E+03  0.17195436424E+03  0.00000000000E+00 0. -1.
<scales pt_clust_5="13000.00000" pt_clust_6="13000.00000" pt_clust_7="13000.00000" pt_clust_8="13000.00000" pt_clust_9="44.86186"></scales>
<clustering>
<clus scale="   44.862">  1  9  2 -1</clus>
<clus scale="   91.081">  7  8 -1 -1</clus>
<clus scale="   91.160">  5  6 -1 -1</clus>
<clus scale="  104.484">  2  7  1 -1</clus>
<clus scale="   44.862">  1  5  2 -1</clus>
</clustering>
</event>
<event>
 9    1  0.1636528E-005  0.1203189E+03  0.7546771E-02  0.1242858E+00
         -3   -1    0    0    0  501 -0.00000000000E+00  0.00000000000E+00  0.15641015757E+03  0.15641015757E+03  0.00000000000E+00 0.  1.
         21   -1    0    0  501  502  0.00000000000E+00 -0.00000000000E+00 -0.38896799111E+03  0.38896799111E+03  0.00000000000E+00 0.  1.
         23    2    1    2    0    0  0.81023036563E+02  0.33989106144E+02  0.28908717755E+02  0.13032913352E+03  0.91814907783E+02 0.  0.
         23    2    1    2    0    0 -0.70398517539E+02  0.83072779617E+02 -0.15817785953E+02  0.14272626287E+03  0.90904047084E+02 0.  0.
        -13    1    4    4    0    0 -0.48694064898E+02 -0.27314829647E+01 -0.23013013801E+02  0.53927467581E+02  0.00000000000E+00 0. -1.
         13    1    4    4    0    0 -0.21704452641E+02  0.85804262582E+02  0.71952278475E+01  0.88798795292E+02  0.00000000000E+00 0.  1.
        -13    1    3    3    0    0  0.67882034011E+02 -0.10053173448E+02  0.44508800336E+02  0.81792848986E+02  0.00000000000E+00 0.  1.
         13    1    3    3    0    0  0.13141002552E+02  0.44042279592E+02 -0.15600082581E+02  0.48536284533E+02  0.00000000000E+00 0. -1.
         -3    1    1    2    0  502 -0.10624519024E+02 -0.11706188576E+03 -0.24564876533E+03  0.27232275229E+03  0.00000000000E+00 0.  1.
<scales pt_clust_5="13000.00000" pt_clust_6="13000.00000" pt_clust_7="13000.00000" pt_clust_8="13000.00000" pt_clust_9="117.54304"></scales>
<clustering>
<clus scale="   90.904">  5  6 -1 -1</clus>
<clus scale="   91.815">  7  8 -1 -1</clus>
<clus scale="  117.543">  2  9  1 -1</clus>
<clus scale="  119.625">  2  5  1 -1</clus>
<clus scale="  117.543">  2  5  1 -1</clus>
</clustering>
</event>
<event>
 9    1  0.1636528E-005  0.1189760E+03  0.7546771E-02  0.1245694E+00
          2   -1    0    0  502    0 -0.00000000000E+00  0.00000000000E+00  0.75634373870E+03  0.75634373870E+03  0.00000000000E+00 0. -1.
         21   -1    0    0  501  502  0.00000000000E+00 -0.00000000000E+00 -0.38470667799E+02  0.38470667799E+02  0.00000000000E+00 0.  1.
         23    2    1    2    0    0 -0.35994855023E+02  0.53994484183E+02  0.28575864914E+03  0.30656876994E+03  0.90085355270E+02 0.  0.
         23    2    1    2    0    0  0.23442907678E+02 -0.99498940777E+02  0.15689356666E+03  0.20900608701E+03  0.92835036543E+02 0.  0.
        -13    1    4    4    0    0 -0.29294144138E+02 -0.15846367899E+02  0.16200404216E+02  0.37036567782E+02  0.00000000000E+00 0. -1.
         13    1    4    4    0    0  0.52737051816E+02 -0.83652572878E+02  0.14069316244E+03  0.17196951922E+03  0.00000000000E+00 0.  1.
        -13    1    3    3    0    0 -0.33245841880E+01  0.51299620107E+02  0.25956837912E+03  0.26460999097E+03  0.00000000000E+00 0. -1.
         13    1    3    3    0    0 -0.32670270835E+02  0.26948640755E+01  0.26190270021E+02  0.41958778969E+02  0.00000000000E+00 0.  1.
          2    1    1    2  501    0  0.12551947345E+02  0.45504456594E+02  0.27522085509E+03  0.27923954955E+03  0.00000000000E+00 0. -1.
<scales pt_clust_5="13000.00000" pt_clust_6="13000.00000" pt_clust_7="13000.00000" pt_clust_8="13000.00000" pt_clust_9="47.20391"></scales>
<clustering>
<clus scale="   47.204">  2  9  1 -1</clus>
<clus scale="   90.085">  7  8 -1 -1</clus>
<clus scale="   92.835">  5  6 -1 -1</clus>
<clus scale="  116.843">  1  7  2 -1</clus>
<clus scale="   47.204">  2  5  1 -1</clus>
</clustering>
</event>
<event>
 9    1  0.1636528E-005  0.9983658E+02  0.7546771E-02  0.1281047E+00
         21   -1    0    0  501  502  0.00000000000E+00  0.00000000000E+00  0.35475810875E+02  0.35475810875E+02  0.00000000000E+00 0.  1.
         -1   -1    0    0    0  501 -0.00000000000E+00 -0.00000000000E+00 -0.63810904445E+03  0.63810904445E+03  0.00000000000E+00 0.  1.
         23    2    1    2    0    0  0.13693998336E+02  0.10970732525E+02 -0.27745898637E+03  0.29297767716E+03  0.92436722321E+02 0.  0.
         23    2    1    2    0    0 -0.82716600450E+02 -0.27797435595E+02 -0.19920894460E+03  0.23598866276E+03  0.91606287588E+02 0.  0.
        -13    1    4    4    0    0 -0.20637641341E+02 -0.35592409825E+02 -0.15238408966E+03  0.15784056088E+03  0.00000000000E+00 0.  1.
         13    1    4    4    0    0 -0.62078959109E+02  0.77949742299E+01 -0.46824854947E+02  0.78148101884E+02  0.00000000000E+00 0. -1.
        -13    1    3    3    0    0  0.26798366510E+02 -0.35042440888E+02 -0.10239070928E+03  0.11148983119E+03  0.00000000000E+00 0.  1.
         13    1    3    3    0    0 -0.13104368175E+02  0.46013173413E+02 -0.17506827708E+03  0.18148784597E+03  0.00000000000E+00 0. -1.
         -1    1    1    2    0  502  0.69022602114E+02  0.16826703070E+02 -0.12596530260E+03  0.14461851541E+03  0.00000000000E+00 0.  1.
<scales pt_clust_5="13000.00000" pt_clust_6="13000.00000" pt_clust_7="13000.00000" pt_clust_8="13000.00000" pt_clust_9="71.04405"></scales>
<clustering>
<clus scale="   71.044">  1  9  2 -1</clus>
<clus scale="   91.606">  5  6 -1 -1</clus>
<clus scale="   92.437">  7  8 -1 -1</clus>
<clus scale="   99.068">  1  5  2 -1</clus>
<clus scale="   71.044">  1  5  2 -1</clus>
</clustering>
</event>
<event>
 9    1  0.1636528E-005  0.1204594E+03  0.7546771E-02  0.1250969E+00
          3   -1    0    0  502    0 -0.00000000000E+00  0.00000000000E+00  0.16187961151E+03  0.16187961151E+03  0.00000000000E+00 0. -1.
         21   -1    0    0  501  502  0.00000000000E+00 -0.00000000000E+00 -0.33900866811E+03  0.33900866811E+03  0.00000000000E+00 0.  1.
         23    2    1    2    0    0  0.21994387072E+02  0.34358928538E+02  0.99259006307E+02  0.14006925542E+03  0.90015315076E+02 0.  0.
         23    2    1    2    0    0 -0.42885247064E+02 -0.10390150925E+03 -0.20629134369E+03  0.25989257272E+03  0.11114568294E+03 0.  0.
        -11    1    3    3    0    0 -0.15821194537E+02  0.39203172216E+02  0.10634434493E+02  0.43592317045E+02  0.00000000000E+00 0.  1.
         11    1    3    3    0    0  0.37815581609E+02 -0.48442436778E+01  0.88624571814E+02  0.96476938376E+02  0.00000000000E+00 0. -1.
        -11    1    4    4    0    0 -0.63472911284E+02 -0.11726142393E+03 -0.17873270111E+03  0.22298975415E+03  0.00000000000E+00 0.  1.
         11    1    4    4    0    0  0.20587664221E+02  0.13359914674E+02 -0.27558642577E+02  0.36902818576E+02  0.00000000000E+00 0. -1.
          3    1    1    2  501    0  0.20890859992E+02  0.69542580714E+02 -0.70096719220E+02  0.10092645148E+03  0.00000000000E+00 0. -1.
<scales pt_clust_5="13000.00000" pt_clust_6="13000.00000" pt_clust_7="13000.00000" pt_clust_8="13000.00000" pt_clust_9="72.61266"></scales>
<clustering>
<clus scale="   72.613">  2  9  1 -1</clus>
<clus scale="   90.015">  5  6 -1 -1</clus>
<clus scale="  101.291">  1  5  2 -1</clus>
<clus scale="  111.146">  7  8 -1 -1</clus>
<clus scale="   72.613">  2  5  1 -1</clus>
</clustering>
</event>
<event>
 9    1  0.1636528E-005  0.9329696E+02  0.7546771E-02  0.1295579E+00
         -1   -1    0    0    0  501 -0.00000000000E+00  0.00000000000E+00  0.75179714932E+03  0.75179714932E+03  0.00000000000E+00 0.  1.
         21   -1    0    0  501  502  0.00000000000E+00 -0.00000000000E+00 -0.38341689436E+02  0.38341689436E+02  0.00000000000E+00 0. -1.
         23    2    1    2    0    0 -0.11643764876E+02 -0.33895463406E+02  0.43483195894E+03  0.44581688222E+03  0.91593560109E+02 0.  0.
         23    2    1    2    0    0  0.26940299624E+01 -0.59425486693E+02  0.14814414536E+03  0.18365534608E+03  0.90796211780E+02 0.  0.
        -11    1    4    4    0    0  0.45105046745E+02 -0.45052342761E+02  0.88586823206E+02  0.10914121163E+03  0.00000000000E+00 0. -1.
         11    1    4    4    0    0 -0.42411016782E+02 -0.14373143932E+02  0.59557322158E+02  0.74514134455E+02  0.00000000000E+00 0.  1.
        -13    1    3    3    0    0  0.49103799734E+01 -0.63509738671E+02  0.25691320966E+03  0.26469226667E+03  0.00000000000E+00 0.  1.
         13    1    3    3    0    0 -0.16554144849E+02  0.29614275265E+02  0.17791874928E+03  0.18112461554E+03  0.00000000000E+00 0. -1.
         -1    1    1    2    0  502  0.89497349134E+01  0.93320950099E+02  0.13047935558E+03  0.16066661045E+03  0.00000000000E+00 0.  1.
<scales pt_clust_5="13000.00000" pt_clust_6="13000.00000" pt_clust_7="13000.00000" pt_clust_8="13000.00000" pt_clust_9="93.74912"></scales>
<clustering>
<clus scale="   90.796">  5  6 -1 -1</clus>
<clus scale="   91.594">  7  8 -1 -1</clus>
<clus scale="   93.749">  2  9  1 -1</clus>
<clus scale="   93.749">  2  5  1 -1</clus>
<clus scale="   93.297">  2  5  1 -1</clus>
</clustering>
</event>
<event>
 9    1  0.1636528E-005  0.1760498E+03  0.7546771E-02  0.1171994E+00
         21   -1    0    0  501  502  0.00000000000E+00  0.00000000000E+00  0.22211596549E+03  0.22211596549E+03  0.00000000000E+00 0. -1.
         -3   -1    0    0    0  501 -0.00000000000E+00 -0.00000000000E+00 -0.23022635995E+03  0.23022635995E+03  0.00000000000E+00 0.  1.
         23    2    1    2    0    0  0.73371115124E+02  0.13593771867E+03 -0.85723762809E+02  0.19872800767E+03  0.91004800034E+02 0.  0.
         23    2    1    2    0    0 -0.50645097532E+02 -0.13689064094E+03 -0.20799399910E+01  0.17073848698E+03  0.88562584104E+02 0.  0.
        -11    1    4    4    0    0 -0.74766493786E+02 -0.10534208616E+03  0.90506602950E+01  0.12949478044E+03  0.00000000000E+00 0. -1.
         11    1    4    4    0    0  0.24121396254E+02 -0.31548554779E+02 -0.11130600286E+02  0.41243706533E+02  0.00000000000E+00 0.  1.
        -13    1    3    3    0    0  0.24253185857E+02  0.51455910483E+01  0.12673578130E+02  0.27844455716E+02  0.00000000000E+00 0. -1.
         13    1    3    3    0    0  0.49117929267E+02  0.13079212763E+03 -0.98397340939E+02  0.17088355195E+03  0.00000000000E+00 0.  1.
         -3    1    1    2    0  502 -0.22726017592E+02  0.95292226700E+00  0.79693308336E+02  0.82875830795E+02  0.00000000000E+00 0.  1.
<scales pt_clust_5="13000.00000" pt_clust_6="13000.00000" pt_clust_7="13000.00000" pt_clust_8="13000.00000" pt_clust_9="22.74599"></scales>
<clustering>
<clus scale="   22.746">  1  9  2 -1</clus>
<clus scale="   88.563">  5  6 -1 -1</clus>
<clus scale="   91.005">  7  8 -1 -1</clus>
<clus scale="  174.800">  1  5  2 -1</clus>
<clus scale="   22.746">  1  5  2 -1</clus>
</clustering>
</event>
<event>
 9    1  0.1214185E-004  0.4520704E+03  0.7546771E-02  0.1027169E+00
         21   -1    0    0  501  502  0.00000000000E+00  0.00000000000E+00  0.20214936124E+03  0.20214936124E+03  0.00000000000E+00 0.  1.
          1   -1    0    0  502    0 -0.00000000000E+00 -0.00000000000E+00 -0.29012912178E+04  0.29012912178E+04  0.00000000000E+00 0. -1.
         23    2    1    2    0    0 -0.75685584248E+02 -0.43330173669E+03 -0.24857857231E+04  0.25261881874E+04  0.94959962617E+02 0.  0.
         23    2    1    2    0    0  0.10192061877E+03  0.44562718734E+03 -0.25129688094E+03  0.52950624936E+03  0.90858918745E+02 0.  0.
        -11    1    3    3    0    0 -0.37592430876E+01 -0.28398735795E+03 -0.16098615668E+04  0.16347223665E+04  0.00000000000E+00 0. -1.
         11    1    3    3    0    0 -0.71926341160E+02 -0.14931437874E+03 -0.87592415635E+03  0.89146582095E+03  0.00000000000E+00 0.  1.
        -13    1    4    4    0    0  0.63108419582E+02  0.40489578747E+03 -0.22288209898E+03  0.46647583150E+03  0.00000000000E+00 0.  1.
         13    1    4    4    0    0  0.38812199190E+02  0.40731399872E+02 -0.28414781956E+02  0.63030417856E+02  0.00000000000E+00 0. -1.
          1    1    1    2  501    0 -0.26235034524E+02 -0.12325450654E+02  0.37940747535E+02  0.47746142187E+02  0.00000000000E+00 0. -1.
<scales pt_clust_5="13000.00000" pt_clust_6="13000.00000" pt_clust_7="13000.00000" pt_clust_8="13000.00000" pt_clust_9="28.98610"></scales>
<clustering>
<clus scale="   28.986">  1  9  2 -1</clus>
<clus scale="   90.859">  7  8 -1 -1</clus>
<clus scale="   94.960">  5  6 -1 -1</clus>
<clus scale="  451.227">  1  7  2 -1</clus>
<clus scale="   28.986">  1  5  2 -1</clus>
</clustering>
</event>
<event>
 9    1  0.1636528E-005  0.9890559E+02  0.7546771E-02  0.1283832E+00
          2   -1    0    0  502    0 -0.00000000000E+00  0.00000000000E+00  0.62249865540E+02  0.62249865540E+02  0.00000000000E+00 0. -1.
         21   -1    0    0  501  502  0.00000000000E+00 -0.00000000000E+00 -0.27800059085E+03  0.27800059085E+03  0.00000000000E+00 0.  1.
         23    2    1    2    0    0  0.37863497785E+02 -0.15299686226E+02 -0.26443473009E+02  0.10120410959E+03  0.88742828838E+02 0.  0.
         23    2    1    2    0    0 -0.55378901747E+02 -0.19434395923E+02 -0.11556740597E+03  0.15567482423E+03  0.86222427900E+02 0.  0.
        -13    1    3    3    0    0 -0.21120919456E+02 -0.28511606707E+02 -0.19148286365E+02  0.40319496852E+02  0.00000000000E+00 0. -1.
         13    1    3    3    0    0  0.58984417241E+02  0.13211920481E+02 -0.72951866445E+01  0.60884612738E+02  0.00000000000E+00 0.  1.
        -13    1    4    4    0    0 -0.43309035585E+02  0.42502939086E+01 -0.72174265195E+01  0.44111549590E+02  0.00000000000E+00 0. -1.
         13    1    4    4    0    0 -0.12069866162E+02 -0.23684689832E+02 -0.10834997945E+03  0.11156327464E+03  0.00000000000E+00 0.  1.
          2    1    1    2  501    0  0.17515403962E+02  0.34734082149E+02 -0.73739846330E+02  0.83371522569E+02  0.00000000000E+00 0. -1.
<scales pt_clust_5="13000.00000" pt_clust_6="13000.00000" pt_clust_7="13000.00000" pt_clust_8="13000.00000" pt_clust_9="38.90046"></scales>
<clustering>
<clus scale="   38.900">  2  9  1 -1</clus>
<clus scale="   86.222">  7  8 -1 -1</clus>
<clus scale="   88.743">  5  6 -1 -1</clus>
<clus scale="   96.651">  2  7  1 -1</clus>
<clus scale="   38.900">  2  5  1 -1</clus>
</clustering>
</event>
<event>
 9    1  0.1636528E-005  0.1384476E+03  0.7546771E-02  0.1216876E+00
          1   -1    0    0  502    0 -0.00000000000E+00  0.00000000000E+00  0.56214569815E+03  0.56214569815E+03  0.00000000000E+00 0. -1.
         21   -1    0    0  501  502  0.00000000000E+00 -0.00000000000E+00 -0.75383889460E+02  0.75383889460E+02  0.00000000000E+00 0. -1.
         23    2    1    2    0    0  0.91287525582E+02 -0.29164116766E+02  0.33038736326E+03  0.35751894588E+03  0.97365439605E+02 0.  0.
         23    2    1    2    0    0 -0.10732970228E+03 -0.67842759592E+01  0.18402881791E+03  0.23190240241E+03  0.91358781899E+02 0.  0.
        -11    1    3    3    0    0  0.93023657762E+02 -0.71671661059E+01  0.31963457997E+03  0.33297302276E+03  0.00000000000E+00 0. -1.
         11    1    3    3    0    0 -0.17361321796E+01 -0.21996950660E+02  0.10752783283E+02  0.24545923116E+02  0.00000000000E+00 0.  1.
        -11    1    4    4    0    0 -0.58984122516E+02 -0.26110354503E+02  0.16380344021E+03  0.17604671069E+03  0.00000000000E+00 0. -1.
         11    1    4    4    0    0 -0.48345579761E+02  0.19326078544E+02  0.20225377708E+02  0.55855691722E+02  0.00000000000E+00 0.  1.
          1    1    1    2  501    0  0.16042176695E+02  0.35948392725E+02 -0.27654372484E+02  0.48108239316E+02  0.00000000000E+00 0. -1.
<scales pt_clust_5="13000.00000" pt_clust_6="13000.00000" pt_clust_7="13000.00000" pt_clust_8="13000.00000" pt_clust_9="39.36545"></scales>
<clustering>
<clus scale="   39.365">  2  9  1 -1</clus>
<clus scale="   91.359">  7  8 -1 -1</clus>
<clus scale="   97.365">  5  6 -1 -1</clus>
<clus scale="  134.291">  2  7  1 -1</clus>
<clus scale="   39.365">  2  5  1 -1</clus>
</clustering>
</event>
<event>
 9    1  0.1636528E-005  0.1427607E+03  0.7546771E-02  0.1216017E+00
         21   -1    0    0  501  502  0.00000000000E+00  0.00000000000E+00  0.24165847160E+03  0.24165847160E+03  0.00000000000E+00 0.  1.
         -3   -1    0    0    0  501 -0.00000000000E+00 -0.00000000000E+00 -0.13256933265E+03  0.13256933265E+03  0.00000000000E+00 0.  1.
         23    2    1    2    0    0  0.17866724436E+02  0.63060583902E+02  0.99335701652E+00  0.11211658096E+03  0.90957593880E+02 0.  0.
         23    2    1    2    0    0 -0.40849139752E+02 -0.11497183786E+03  0.37352637058E+02  0.17140531252E+03  0.11444381130E+03 0.  0.
        -11    1    4    4    0    0 -0.48733158776E+02 -0.76637911563E+01 -0.15253490815E+02  0.51636454576E+02  0.00000000000E+00 0. -1.
         11    1    4    4    0    0  0.78840190237E+01 -0.10730804671E+03  0.52606127873E+02  0.11976885795E+03  0.00000000000E+00 0.  1.
        -11    1    3    3    0    0  0.35629206690E+02  0.21051971676E+01 -0.24931690438E+02  0.43536897139E+02  0.00000000000E+00 0.  1.
         11    1    3    3    0    0 -0.17762482253E+02  0.60955386735E+02  0.25925047454E+02  0.68579683823E+02  0.00000000000E+00 0. -1.
         -3    1    1    2    0  502  0.22982415316E+02  0.51911253959E+02  0.70743144872E+02  0.90705910765E+02  0.00000000000E+00 0.  1.
<scales pt_clust_5="13000.00000" pt_clust_6="13000.00000" pt_clust_7="13000.00000" pt_clust_8="13000.00000" pt_clust_9="56.77120"></scales>
<clustering>
<clus scale="   56.771">  1  9  2 -1</clus>
<clus scale="   90.958">  7  8 -1 -1</clus>
<clus scale="  114.444">  5  6 -1 -1</clus>
<clus scale="  124.726">  2  7  1 -1</clus>
<clus scale="   56.771">  1  5  2 -1</clus>
</clustering>
</event>
<event>
 9    1  0.1636528E-005  0.2147628E+03  0.7546771E-02  0.1138222E+00
          2   -1    0    0  502    0 -0.00000000000E+00  0.00000000000E+00  0.15859480459E+04  0.15859480459E+04  0.00000000000E+00 0. -1.
         21   -1    0    0  501  502  0.00000000000E+00 -0.00000000000E+00 -0.42532452101E+02  0.42532452101E+02  0.00000000000E+00 0.  1.
         23    2    1    2    0    0  0.13920175392E+03 -0.10914148816E+03  0.76287311833E+03  0.78875730038E+03  0.94200273317E+02 0.  0.
         23    2    1    2    0    0 -0.15463157510E+03  0.15045353156E+03  0.75133451763E+03  0.78682831023E+03  0.89710886858E+02 0.  0.
        -13    1    4    4    0    0 -0.15777388379E+03  0.10933497965E+03  0.59859524593E+03  0.62861992064E+03  0.00000000000E+00 0.  1.
         13    1    4    4    0    0  0.31423086995E+01  0.41118551913E+02  0.15273927170E+03  0.15820838959E+03  0.00000000000E+00 0. -1.
        -13    1    3    3    0    0  0.10557715856E+03 -0.72204281278E+02  0.68055276956E+03  0.69246809803E+03  0.00000000000E+00 0. -1.
         13    1    3    3    0    0  0.33624595364E+02 -0.36937206879E+02  0.82320348778E+02  0.96289202346E+02  0.00000000000E+00 0.  1.
          2    1    1    2  501    0  0.15429821176E+02 -0.41312043406E+02  0.29207957848E+02  0.52894887405E+02  0.00000000000E+00 0. -1.
<scales pt_clust_5="13000.00000" pt_clust_6="13000.00000" pt_clust_7="13000.00000" pt_clust_8="13000.00000" pt_clust_9="44.09948"></scales>
<clustering>
<clus scale="   44.099">  2  9  1 -1</clus>
<clus scale="   89.711">  5  6 -1 -1</clus>
<clus scale="   94.200">  7  8 -1 -1</clus>
<clus scale="  212.832">  2  5  1 -1</clus>
<clus scale="   44.099">  2  5  1 -1</clus>
</clustering>
</event>
<event>
 9    1  0.1636528E-005  0.9830713E+02  0.7546771E-02  0.1285470E+00
          1   -1    0    0  502    0 -0.00000000000E+00  0.00000000000E+00  0.77749723297E+03  0.77749723297E+03  0.00000000000E+00 0. -1.
         21   -1    0    0  501  502  0.00000000000E+00 -0.00000000000E+00 -0.19478429229E+02  0.19478429229E+02  0.00000000000E+00 0.  1.
         23    2    1    2    0    0 -0.27308419375E+02 -0.30711942261E+01  0.49751534290E+03  0.50701442261E+03  0.93738606281E+02 0.  0.
         23    2    1    2    0    0  0.29405982086E+02  0.28530846320E+02  0.18248301021E+03  0.20786504984E+03  0.90714436326E+02 0.  0.
        -11    1    3    3    0    0 -0.32608161387E+02 -0.44264267844E+02  0.32137896202E+03  0.32604762663E+03  0.00000000000E+00 0. -1.
         11    1    3    3    0    0  0.52997420115E+01  0.41193073618E+02  0.17613638088E+03  0.18096679599E+03  0.00000000000E+00 0.  1.
        -13    1    4    4    0    0  0.31060236249E+02 -0.11624632935E+02  0.15657439820E+03  0.16004815694E+03  0.00000000000E+00 0. -1.
         13    1    4    4    0    0 -0.16542541635E+01  0.40155479255E+02  0.25908612003E+02  0.47816892904E+02  0.00000000000E+00 0.  1.
          1    1    1    2  501    0 -0.20975627104E+01 -0.25459652094E+02  0.78020450633E+02  0.82096189748E+02  0.00000000000E+00 0. -1.
<scales pt_clust_5="13000.00000" pt_clust_6="13000.00000" pt_clust_7="13000.00000" pt_clust_8="13000.00000" pt_clust_9="25.54591"></scales>
<clustering>
<clus scale="   25.546">  2  9  1 -1</clus>
<clus scale="   90.714">  7  8 -1 -1</clus>
<clus scale="   93.739">  5  6 -1 -1</clus>
<clus scale="   95.428">  2  7  1 -1</clus>
<clus scale="   25.546">  2  5  1 -1</clus>
</clustering>
</event>
<event>
 9    1  0.1636528E-005  0.9193888E+02  0.7546771E-02  0.1298930E+00
          1   -1    0    0  502    0 -0.00000000000E+00  0.00000000000E+00  0.17663729951E+03  0.17663729951E+03  0.00000000000E+00 0. -1.
         21   -1    0    0  501  502  0.00000000000E+00 -0.00000000000E+00 -0.14075692721E+03  0.14075692721E+03  0.00000000000E+00 0.  1.
         23    2    1    2    0    0 -0.16793579224E+02  0.11404486300E+02  0.11838546259E+03  0.14981846195E+03  0.89545335881E+02 0.  0.
         23    2    1    2    0    0 -0.28881593149E+02 -0.40046119149E+01 -0.73659738313E+02  0.12046716933E+03  0.90754605941E+02 0.  0.
        -13    1    3    3    0    0  0.19500897452E+02  0.36189080984E+02  0.85691754484E+02  0.95042155754E+02  0.00000000000E+00 0. -1.
         13    1    3    3    0    0 -0.36294476676E+02 -0.24784594684E+02  0.32693708104E+02  0.54776306196E+02  0.00000000000E+00 0.  1.
        -13    1    4    4    0    0 -0.57311367277E+02 -0.16027628438E+02 -0.65587005718E+02  0.88561464596E+02  0.00000000000E+00 0.  1.
         13    1    4    4    0    0  0.28429774128E+02  0.12023016523E+02 -0.80727325957E+01  0.31905704738E+02  0.00000000000E+00 0. -1.
          1    1    1    2  501    0  0.45675172373E+02 -0.73998743848E+01 -0.88453519732E+01  0.47108595434E+02  0.00000000000E+00 0. -1.
<scales pt_clust_5="13000.00000" pt_clust_6="13000.00000" pt_clust_7="13000.00000" pt_clust_8="13000.00000" pt_clust_9="46.27072"></scales>
<clustering>
<clus scale="   46.271">  2  9  1 -1</clus>
<clus scale="   89.545">  5  6 -1 -1</clus>
<clus scale="   90.745">  1  5  2 -1</clus>
<clus scale="   90.755">  7  8 -1 -1</clus>
<clus scale="   46.271">  2  5  1 -1</clus>
</clustering>
</event>
<event>
 9    1  0.1636528E-005  0.9210268E+02  0.7546771E-02  0.1298492E+00
          4   -1    0    0  502    0 -0.00000000000E+00  0.00000000000E+00  0.13902326040E+03  0.13902326040E+03  0.00000000000E+00 0. -1.
         21   -1    0    0  501  502  0.00000000000E+00 -0.00000000000E+00 -0.86798366148E+02  0.86798366148E+02  0.00000000000E+00 0.  1.
         23    2    1    2    0    0 -0.18839250751E+01 -0.14337801024E+02  0.50178958824E+02  0.10571053684E+03  0.91911196154E+02 0.  0.
         23    2    1    2    0    0  0.47200569284E-01 -0.10116351137E+02 -0.11517902299E+02  0.92086871457E+02  0.90801910955E+02 0.  0.
        -11    1    3    3    0    0  0.61929535289E+01 -0.52142878071E+02  0.18311344815E+02  0.55610590321E+02  0.00000000000E+00 0.  1.
         11    1    3    3    0    0 -0.80768786040E+01  0.37805077047E+02  0.31867614009E+02  0.50099946519E+02  0.00000000000E+00 0. -1.
        -13    1    4    4    0    0  0.19150343444E+02  0.13382493457E+02  0.31660247755E+02  0.39347148221E+02  0.00000000000E+00 0. -1.
         13    1    4    4    0    0 -0.19103142875E+02 -0.23498844594E+02 -0.43178150054E+02  0.52739723236E+02  0.00000000000E+00 0.  1.
          4    1    1    2  501    0  0.18367245058E+01  0.24454152161E+02  0.13563837731E+02  0.28024218255E+02  0.00000000000E+00 0. -1.
<scales pt_clust_5="13000.00000" pt_clust_6="13000.00000" pt_clust_7="13000.00000" pt_clust_8="13000.00000" pt_clust_9="24.52304"></scales>
<clustering>
<clus scale="   24.523">  2  9  1 -1</clus>
<clus scale="   90.802">  7  8 -1 -1</clus>
<clus scale="   90.996">  2  7  1 -1</clus>
<clus scale="   91.911">  5  6 -1 -1</clus>
<clus scale="   24.523">  2  5  1 -1</clus>
</clustering>
</event>
<event>
 9    1  0.1636528E-005  0.1072334E+03  0.7546771E-02  0.1267070E+00
         21   -1    0    0  501  502  0.00000000000E+00  0.00000000000E+00  0.38939908807E+02  0.38939908807E+02  0.00000000000E+00 0.  1.
          2   -1    0    0  502    0 -0.00000000000E+00 -0.00000000000E+00 -0.41513698747E+03  0.41513698747E+03  0.00000000000E+00 0. -1.
         23    2    1    2    0    0  0.27186778479E+02 -0.52707017555E+02 -0.18911671997E+03  0.21833639941E+03  0.91588748835E+02 0.  0.
         23    2    1    2    0    0 -0.42846030070E+02  0.18072665775E+02 -0.13862501535E+03  0.17415583333E+03  0.94609491392E+02 0.  0.
        -13    1    3    3    0    0  0.39526702152E+02  0.13431671434E+02 -0.68222819538E+02  0.79982017268E+02  0.00000000000E+00 0. -1.
         13    1    3    3    0    0 -0.12339923673E+02 -0.66138688989E+02 -0.12089390043E+03  0.13835438214E+03  0.00000000000E+00 0.  1.
        -13    1    4    4    0    0 -0.49638850691E+02 -0.28209831013E+02 -0.90786887625E+02  0.10724769941E+03  0.00000000000E+00 0.  1.
         13    1    4    4    0    0  0.67928206208E+01  0.46282496788E+02 -0.47838127728E+02  0.66908133925E+02  0.00000000000E+00 0. -1.
          2    1    1    2  501    0  0.15659251591E+02  0.34634351781E+02 -0.48455343338E+02  0.61584663526E+02  0.00000000000E+00 0. -1.
<scales pt_clust_5="13000.00000" pt_clust_6="13000.00000" pt_clust_7="13000.00000" pt_clust_8="13000.00000" pt_clust_9="38.00987"></scales>
<clustering>
<clus scale="   38.010">  1  9  2 -1</clus>
<clus scale="   91.589">  5  6 -1 -1</clus>
<clus scale="   94.609">  7  8 -1 -1</clus>
<clus scale="  104.578">  2  5  1 -1</clus>
<clus scale="   38.010">  1  5  2 -1</clus>
</clustering>
</event>
<event>
 9    1  0.1636528E-005  0.1030881E+03  0.7546771E-02  0.1276623E+00
         21   -1    0    0  501  502  0.00000000000E+00  0.00000000000E+00  0.49990154588E+02  0.49990154588E+02  0.00000000000E+00 0. -1.
          2   -1    0    0  502    0 -0.00000000000E+00 -0.00000000000E+00 -0.38488023403E+03  0.38488023403E+03  0.00000000000E+00 0. -1.
         23    2    1    2    0    0  0.51746238166E+01 -0.38880765011E+02 -0.24921954589E+03  0.26854466370E+03  0.92018279297E+02 0.  0.
         23    2    1    2    0    0  0.13616889378E+02  0.21214106101E+02 -0.95429252549E+02  0.13874920589E+03  0.97514829232E+02 0.  0.
        -11    1    3    3    0    0 -0.36073144217E+02  0.85333033600E+01 -0.86297639409E+02  0.93922156957E+02  0.00000000000E+00 0.  1.
         11    1    3    3    0    0  0.41247768033E+02 -0.47414068371E+02 -0.16292190648E+03  0.17462250674E+03  0.00000000000E+00 0. -1.
        -13    1    4    4    0    0 -0.26552539532E+02  0.46119803207E+02 -0.45757520553E+02  0.70184216819E+02  0.00000000000E+00 0.  1.
         13    1    4    4    0    0  0.40169428911E+02 -0.24905697106E+02 -0.49671731996E+02  0.68564989075E+02  0.00000000000E+00 0. -1.
          2    1    1    2  501    0 -0.18791513195E+02  0.17666658910E+02  0.97587190004E+01  0.27576519028E+02  0.00000000000E+00 0. -1.
<scales pt_clust_5="13000.00000" pt_clust_6="13000.00000" pt_clust_7="13000.00000" pt_clust_8="13000.00000" pt_clust_9="25.79209"></scales>
<clustering>
<clus scale="   25.792">  1  9  2 -1</clus>
<clus scale="   92.018">  5  6 -1 -1</clus>
<clus scale="   97.515">  7  8 -1 -1</clus>
<clus scale="   97.905">  2  5  1 -1</clus>
<clus scale="   25.792">  1  5  2 -1</clus>
</clustering>
</event>
<event>
 9    1  0.1636528E-005  0.1652690E+03  0.7546771E-02  0.1184452E+00
         21   -1    0    0  501  502  0.00000000000E+00  0.00000000000E+00  0.12627098800E+04  0.12627098800E+04  0.00000000000E+00 0. -1.
          3   -1    0    0  502    0 -0.00000000000E+00 -0.00000000000E+00 -0.67591887108E+02  0.67591887108E+02  0.00000000000E+00 0. -1.
         23    2    1    2    0    0  0.61691043150E+02 -0.66613049267E+02  0.16952744582E+03  0.21678559263E+03  0.10006675346E+03 0.  0.
         23    2    1    2    0    0 -0.10228751621E+03  0.16036892799E+03  0.23170523938E+03  0.31308371625E+03  0.90294885713E+02 0.  0.
        -11    1    4    4    0    0 -0.25280420528E+02  0.44984102484E+02  0.13348145854E+03  0.14310824194E+03  0.00000000000E+00 0.  1.
         11    1    4    4    0    0 -0.77007095679E+02  0.11538482551E+03  0.98223780843E+02  0.16997547431E+03  0.00000000000E+00 0. -1.
        -13    1    3    3    0    0  0.11815722746E+02  0.26606499138E+02  0.42556369518E+02  0.51561242100E+02  0.00000000000E+00 0. -1.
         13    1    3    3    0    0  0.49875320403E+02 -0.93219548404E+02  0.12697107630E+03  0.16522435053E+03  0.00000000000E+00 0.  1.
          3    1    1    2  501    0  0.40596473057E+02 -0.93755878727E+02  0.79388530773E+03  0.80043245827E+03  0.00000000000E+00 0. -1.
<scales pt_clust_5="13000.00000" pt_clust_6="13000.00000" pt_clust_7="13000.00000" pt_clust_8="13000.00000" pt_clust_9="102.16770"></scales>
<clustering>
<clus scale="   90.295">  5  6 -1 -1</clus>
<clus scale="  100.067">  7  8 -1 -1</clus>
<clus scale="  102.168">  1  9  2 -1</clus>
<clus scale="  159.542">  1  5  2 -1</clus>
<clus scale="  102.168">  1  5  2 -1</clus>
</clustering>
</event>
<event>
 9    1  0.1636528E-005  0.9705336E+02  0.7546771E-02  0.1287012E+00
         21   -1    0    0  501  502  0.00000000000E+00  0.00000000000E+00  0.99610099737E+02  0.99610099737E+02  0.00000000000E+00 0.  1.
         -2   -1    0    0    0  501 -0.00000000000E+00 -0.00000000000E+00 -0.20798955075E+03  0.20798955075E+03  0.00000000000E+00 0.  1.
         23    2    1    2    0    0  0.40803351605E+02  0.14530991161E+02 -0.11863272904E+03  0.15596366571E+03  0.91514356336E+02 0.  0.
         23    2    1    2    0    0 -0.15239829256E+02  0.53244904610E+01 -0.32741153957E+02  0.97819119317E+02  0.90752379292E+02 0.  0.
        -11    1    4    4    0    0 -0.46081787142E+02  0.27506197349E+02 -0.14026621565E+02  0.55469524167E+02  0.00000000000E+00 0. -1.
         11    1    4    4    0    0  0.30841957886E+02 -0.22181706888E+02 -0.18714532392E+02  0.42349595150E+02  0.00000000000E+00 0.  1.
        -13    1    3    3    0    0  0.21955507845E+02  0.47298452649E+02 -0.10222103231E+03  0.11475333283E+03  0.00000000000E+00 0.  1.
         13    1    3    3    0    0  0.18847843760E+02 -0.32767461488E+02 -0.16411696728E+02  0.41210332882E+02  0.00000000000E+00 0. -1.
         -2    1    1    2    0  502 -0.25563522349E+02 -0.19855481622E+02  0.42994431990E+02  0.53816865455E+02  0.00000000000E+00 0.  1.
<scales pt_clust_5="13000.00000" pt_clust_6="13000.00000" pt_clust_7="13000.00000" pt_clust_8="13000.00000" pt_clust_9="32.36872"></scales>
<clustering>
<clus scale="   32.369">  1  9  2 -1</clus>
<clus scale="   90.752">  5  6 -1 -1</clus>
<clus scale="   91.514">  7  8 -1 -1</clus>
<clus scale="   96.335">  1  5  2 -1</clus>
<clus scale="   32.369">  1  5  2 -1</clus>
</clustering>
</event>
<event>
 9    1  0.1636528E-005  0.1011641E+03  0.7546771E-02  0.1284223E+00
         21   -1    0    0  501  502  0.00000000000E+00  0.00000000000E+00  0.42172241463E+03  0.42172241463E+03  0.00000000000E+00 0.  1.
         -1   -1    0    0    0  501 -0.00000000000E+00 -0.00000000000E+00 -0.85824489312E+02  0.85824489312E+02  0.00000000000E+00 0.  1.
         23    2    1    2    0    0 -0.34759058735E+02 -0.63946736749E+01  0.21904206967E+02  0.10854832493E+03  0.10026894108E+03 0.  0.
         23    2    1    2    0    0 -0.53949757864E+02  0.19392009402E+02  0.43490802038E+02  0.11402487389E+03  0.88451091582E+02 0.  0.
        -11    1    4    4    0    0 -0.77352112058E+02  0.65355194577E+01  0.39258661428E+02  0.86990256647E+02  0.00000000000E+00 0.  1.
         11    1    4    4    0    0  0.23402354193E+02  0.12856489944E+02  0.42321406095E+01  0.27034617246E+02  0.00000000000E+00 0. -1.
        -11    1    3    3    0    0 -0.54947175353E+02  0.25581265432E+02 -0.69143548979E+01  0.61003291092E+02  0.00000000000E+00 0.  1.
         11    1    3    3    0    0  0.20188116618E+02 -0.31975939107E+02  0.28818561865E+02  0.47545033834E+02  0.00000000000E+00 0. -1.
         -1    1    1    2    0  502  0.88708816599E+02 -0.12997335727E+02  0.27050291632E+03  0.28497370513E+03  0.00000000000E+00 0.  1.
<scales pt_clust_5="13000.00000" pt_clust_6="13000.00000" pt_clust_7="13000.00000" pt_clust_8="13000.00000" pt_clust_9="89.65592"></scales>
<clustering>
<clus scale="   88.451">  5  6 -1 -1</clus>
<clus scale="   89.656">  1  9  2 -1</clus>
<clus scale="   89.656">  1  5  2 -1</clus>
<clus scale="  100.269">  7  8 -1 -1</clus>
<clus scale="   89.656">  1  5  2 -1</clus>
</clustering>
</event>
<event>
 9    1  0.1636528E-005  0.1282103E+03  0.7546771E-02  0.1230608E+00
         21   -1    0    0  501  502  0.00000000000E+00  0.00000000000E+00  0.35698924008E+02  0.35698924008E+02  0.00000000000E+00 0. -1.
          1   -1    0    0  502    0 -0.00000000000E+00 -0.00000000000E+00 -0.67159746674E+03  0.67159746674E+03  0.00000000000E+00 0. -1.
         23    2    1    2    0    0  0.21410722632E+02 -0.79309329359E+02 -0.27692968939E+03  0.30291053243E+03  0.91194018587E+02 0.  0.
         23    2    1    2    0    0  0.18087430894E+02  0.10455697197E+03 -0.25437852557E+03  0.28977048302E+03  0.89438151912E+02 0.  0.
        -11    1    3    3    0    0 -0.25601886286E+02 -0.51864397334E+02 -0.20313927205E+03  0.21121301130E+03  0.00000000000E+00 0.  1.
         11    1    3    3    0    0  0.47012608918E+02 -0.27444932025E+02 -0.73790417337E+02  0.91697521133E+02  0.00000000000E+00 0. -1.
        -11    1    4    4    0    0 -0.24154842912E+02  0.91023493874E+02 -0.16475451378E+03  0.18977034195E+03  0.00000000000E+00 0. -1.
         11    1    4    4    0    0  0.42242273805E+02  0.13533478097E+02 -0.89624011786E+02  0.10000014107E+03  0.00000000000E+00 0.  1.
          1    1    1    2  501    0 -0.39498153525E+02 -0.25247642612E+02 -0.10459032777E+03  0.11461537529E+03  0.00000000000E+00 0. -1.
<scales pt_clust_5="13000.00000" pt_clust_6="13000.00000" pt_clust_7="13000.00000" pt_clust_8="13000.00000" pt_clust_9="46.87803"></scales>
<clustering>
<clus scale="   46.878">  1  9  2 -1</clus>
<clus scale="   89.438">  7  8 -1 -1</clus>
<clus scale="   91.194">  5  6 -1 -1</clus>
<clus scale="  126.967">  1  7  2 -1</clus>
<clus scale="   46.878">  1  5  2 -1</clus>
</clustering>
</event>
<event>
 9    1  0.1636528E-005  0.9789548E+02  0.7546771E-02  0.1285652E+00
          1   -1    0    0  502    0 -0.00000000000E+00  0.00000000000E+00  0.31125076558E+03  0.31125076558E+03  0.00000000000E+00 0. -1.
         21   -1    0    0  501  502  0.00000000000E+00 -0.00000000000E+00 -0.86661722724E+02  0.86661722724E+02  0.00000000000E+00 0. -1.
         23    2    1    2    0    0  0.47839168703E+01 -0.40657257361E+02  0.16975384096E+03  0.19718273016E+03  0.91590196619E+02 0.  0.
         23    2    1    2    0    0  0.13843526569E+01  0.15377890401E+02  0.10679335943E+03  0.14261999925E+03  0.93259029717E+02 0.  0.
        -11    1    3    3    0    0 -0.42960052085E+02 -0.12016352637E+02  0.72817303127E+02  0.85395072695E+02  0.00000000000E+00 0. -1.
         11    1    3    3    0    0  0.47743968955E+02 -0.28640904723E+02  0.96936537834E+02  0.11178765747E+03  0.00000000000E+00 0.  1.
        -11    1    4    4    0    0  0.13529775312E+01 -0.27976855708E+02  0.70913649691E+00  0.28018527407E+02  0.00000000000E+00 0.  1.
         11    1    4    4    0    0  0.31375125635E-01  0.43354746108E+02  0.10608422293E+03  0.11460147185E+03  0.00000000000E+00 0. -1.
          1    1    1    2  501    0 -0.61682695272E+01  0.25279366960E+02 -0.51958157537E+02  0.58109758883E+02  0.00000000000E+00 0. -1.
<scales pt_clust_5="13000.00000" pt_clust_6="13000.00000" pt_clust_7="13000.00000" pt_clust_8="13000.00000" pt_clust_9="26.02103"></scales>
<clustering>
<clus scale="   26.021">  2  9  1 -1</clus>
<clus scale="   91.590">  5  6 -1 -1</clus>
<clus scale="   93.259">  7  8 -1 -1</clus>
<clus scale="   96.307">  1  5  2 -1</clus>
<clus scale="   26.021">  2  5  1 -1</clus>
</clustering>
</event>
<event>
 9    1  0.1636528E-005  0.1891492E+03  0.7546771E-02  0.1188705E+00
          2   -1    0    0  502    0 -0.00000000000E+00  0.00000000000E+00  0.71477962258E+02  0.71477962258E+02  0.00000000000E+00 0. -1.
         21   -1    0    0  501  502  0.00000000000E+00 -0.00000000000E+00 -0.88450096521E+03  0.88450096521E+03  0.00000000000E+00 0. -1.
         23    2    1    2    0    0 -0.37490291314E+02 -0.24877796722E+02 -0.63469169587E+02  0.11577274156E+03  0.85735438929E+02 0.  0.
         23    2    1    2    0    0  0.69406679297E+01  0.17870008874E+03 -0.56224057759E+03  0.59590957766E+03  0.83736868068E+02 0.  0.
        -11    1    4    4    0    0  0.27063737422E+02  0.55308128508E+02 -0.28809800513E+03  0.29460464273E+03  0.00000000000E+00 0.  1.
         11    1    4    4    0    0 -0.20123069492E+02  0.12339196023E+03 -0.27414257247E+03  0.30130493493E+03  0.00000000000E+00 0. -1.
        -11    1    3    3    0    0 -0.10812028327E+02 -0.33717469800E+02  0.10262907667E+02  0.36865905659E+02  0.00000000000E+00 0. -1.
         11    1    3    3    0    0 -0.26678262988E+02  0.88396730784E+01 -0.73732077254E+02  0.78906835904E+02  0.00000000000E+00 0.  1.
          2    1    1    2  501    0  0.30549623385E+02 -0.15382229202E+03 -0.18731325577E+03  0.24429660824E+03  0.00000000000E+00 0. -1.
<scales pt_clust_5="13000.00000" pt_clust_6="13000.00000" pt_clust_7="13000.00000" pt_clust_8="13000.00000" pt_clust_9="169.60420"></scales>
<clustering>
<clus scale="   83.737">  5  6 -1 -1</clus>
<clus scale="   85.735">  7  8 -1 -1</clus>
<clus scale="   96.825">  1  7  2 -1</clus>
<clus scale="  169.604">  2  9  1 -1</clus>
<clus scale="  169.604">  2  5  1 -1</clus>
</clustering>
</event>
<event>
 9    1  0.1636528E-005  0.1300196E+03  0.7546771E-02  0.1227853E+00
         21   -1    0    0  501  502  0.00000000000E+00  0.00000000000E+00  0.39683647424E+02  0.39683647424E+02  0.00000000000E+00 0. -1.
          1   -1    0    0  502    0 -0.00000000000E+00 -0.00000000000E+00 -0.63449748251E+03  0.63449748251E+03  0.00000000000E+00 0. -1.
         23    2    1    2    0    0  0.45837874492E+02  0.86574332735E+02 -0.39642307739E+03  0.41804660465E+03  0.89529221740E+02 0.  0.
         23    2    1    2    0    0 -0.57705392594E+02 -0.63084866310E+02 -0.19192590862E+03  0.22903494425E+03  0.91169285372E+02 0.  0.
        -13    1    3    3    0    0 -0.10156223901E+02  0.74367579722E+02 -0.23951479103E+03  0.25100004168E+03  0.00000000000E+00 0.  1.
         13    1    3    3    0    0  0.55994098393E+02  0.12206753013E+02 -0.15690828635E+03  0.16704656297E+03  0.00000000000E+00 0. -1.
        -13    1    4    4    0    0  0.19395062160E+02  0.52564327550E+01 -0.18502376180E+02  0.27315498272E+02  0.00000000000E+00 0.  1.
         13    1    4    4    0    0 -0.77100454754E+02 -0.68341299065E+02 -0.17342353244E+03  0.20171944598E+03  0.00000000000E+00 0. -1.
          1    1    1    2  501    0  0.11867518101E+02 -0.23489466425E+02 -0.64648490779E+01  0.27099581038E+02  0.00000000000E+00 0. -1.
<scales pt_clust_5="13000.00000" pt_clust_6="13000.00000" pt_clust_7="13000.00000" pt_clust_8="13000.00000" pt_clust_9="26.31716"></scales>
<clustering>
<clus scale="   26.317">  1  9  2 -1</clus>
<clus scale="   89.529">  5  6 -1 -1</clus>
<clus scale="   91.169">  7  8 -1 -1</clus>
<clus scale="  128.875">  2  5  1 -1</clus>
<clus scale="   26.317">  1  5  2 -1</clus>
</clustering>
</event>
<event>
 9    1  0.1636528E-005  0.9138337E+02  0.7546771E-02  0.1299851E+00
          3   -1    0    0  502    0 -0.00000000000E+00  0.00000000000E+00  0.67845450275E+03  0.67845450275E+03  0.00000000000E+00 0. -1.
         21   -1    0    0  501  502  0.00000000000E+00 -0.00000000000E+00 -0.16387326132E+02  0.16387326132E+02  0.00000000000E+00 0.  1.
         23    2    1    2    0    0 -0.18600288264E+02 -0.29514291488E+02  0.32891925356E+03  0.34213555490E+03  0.87474558783E+02 0.  0.
         23    2    1    2    0    0  0.52469793589E+01  0.99345932353E+01  0.22238223538E+03  0.23943353671E+03  0.88024615628E+02 0.  0.
        -11    1    4    4    0    0  0.17953268530E+01  0.40031667149E+02  0.48409864093E+02  0.62843237621E+02  0.00000000000E+00 0.  1.
         11    1    4    4    0    0  0.34516525059E+01 -0.30097073913E+02  0.17397237129E+03  0.17659029909E+03  0.00000000000E+00 0. -1.
        -11    1    3    3    0    0 -0.37227746722E+02 -0.50725246519E+02  0.18310903514E+03  0.19361785690E+03  0.00000000000E+00 0.  1.
         11    1    3    3    0    0  0.18627458457E+02  0.21210955031E+02  0.14581021842E+03  0.14851769799E+03  0.00000000000E+00 0. -1.
          3    1    1    2  501    0  0.13353308905E+02  0.19579698253E+02  0.11076568767E+03  0.11327273727E+03  0.00000000000E+00 0. -1.
<scales pt_clust_5="13000.00000" pt_clust_6="13000.00000" pt_clust_7="13000.00000" pt_clust_8="13000.00000" pt_clust_9="23.69970"></scales>
<clustering>
<clus scale="   23.700">  2  9  1 -1</clus>
<clus scale="   87.475">  7  8 -1 -1</clus>
<clus scale="   88.025">  5  6 -1 -1</clus>
<clus scale="   90.854">  1  7  2 -1</clus>
<clus scale="   23.700">  2  5  1 -1</clus>
</clustering>
</event>
<event>
 9    1  0.1636528E-005  0.1041258E+03  0.7546771E-02  0.1271878E+00
          2   -1    0    0  502    0 -0.00000000000E+00  0.00000000000E+00  0.12488355893E+03  0.12488355893E+03  0.00000000000E+00 0. -1.
         21   -1    0    0  501  502  0.00000000000E+00 -0.00000000000E+00 -0.15246605350E+03  0.15246605350E+03  0.00000000000E+00 0. -1.
         23    2    1    2    0    0 -0.32784593141E+02 -0.47693236483E+02  0.32585793351E+02  0.11210282991E+03  0.90309114670E+02 0.  0.
         23    2    1    2    0    0 -0.11467167788E+02  0.48893863930E+02 -0.62844071385E+02  0.12089794185E+03  0.90248707290E+02 0.  0.
        -11    1    3    3    0    0 -0.53942933021E+02 -0.55169460419E+02  0.61160474096E+01  0.77401004010E+02  0.00000000000E+00 0.  1.
         11    1    3    3    0    0  0.21158339879E+02  0.74762239360E+01  0.26469745941E+02  0.34701825903E+02  0.00000000000E+00 0. -1.
        -13    1    4    4    0    0 -0.22813009325E+02 -0.15228448985E+02 -0.46130346191E+02  0.53668872660E+02  0.00000000000E+00 0. -1.
         13    1    4    4    0    0  0.11345841537E+02  0.64122312915E+02 -0.16713725194E+02  0.67229069186E+02  0.00000000000E+00 0.  1.
          2    1    1    2  501    0  0.44251760929E+02 -0.12006274467E+01  0.26757834625E+01  0.44348840669E+02  0.00000000000E+00 0. -1.
<scales pt_clust_5="13000.00000" pt_clust_6="13000.00000" pt_clust_7="13000.00000" pt_clust_8="13000.00000" pt_clust_9="44.26807"></scales>
<clustering>
<clus scale="   44.268">  2  9  1 -1</clus>
<clus scale="   90.249">  7  8 -1 -1</clus>
<clus scale="   90.309">  5  6 -1 -1</clus>
<clus scale="  104.073">  2  7  1 -1</clus>
<clus scale="   44.268">  2  5  1 -1</clus>
</clustering>
</event>
<event>
 9    1  0.1636528E-005  0.1179219E+03  0.7546771E-02  0.1247111E+00
          3   -1    0    0  502    0 -0.00000000000E+00  0.00000000000E+00  0.28713839181E+03  0.28713839181E+03  0.00000000000E+00 0. -1.
         21   -1    0    0  501  502  0.00000000000E+00 -0.00000000000E+00 -0.51912311390E+03  0.51912311390E+03  0.00000000000E+00 0. -1.
         23    2    1    2    0    0  0.17357695442E+02 -0.61328474674E+02  0.95228840920E+02  0.14692858219E+03  0.91961974348E+02 0.  0.
         23    2    1    2    0    0 -0.10183472317E+03  0.25208539623E+02  0.13090336992E+03  0.19209407437E+03  0.93587712010E+02 0.  0.
        -11    1    4    4    0    0 -0.99866970277E+02  0.13703255285E+01  0.13489395760E+03  0.16784418174E+03  0.00000000000E+00 0. -1.
         11    1    4    4    0    0 -0.19677528891E+01  0.23838214095E+02 -0.39905876850E+01  0.24249892634E+02  0.00000000000E+00 0.  1.
        -11    1    3    3    0    0  0.49987043436E+02 -0.17305319085E+02  0.66762587644E+02  0.85178763134E+02  0.00000000000E+00 0.  1.
         11    1    3    3    0    0 -0.32629347994E+02 -0.44023155589E+02  0.28466253276E+02  0.61749819061E+02  0.00000000000E+00 0. -1.
          3    1    1    2  501    0  0.84477027724E+02  0.36119935051E+02 -0.45811693292E+03  0.46723884915E+03  0.00000000000E+00 0. -1.
<scales pt_clust_5="13000.00000" pt_clust_6="13000.00000" pt_clust_7="13000.00000" pt_clust_8="13000.00000" pt_clust_9="91.87501"></scales>
<clustering>
<clus scale="   91.875">  2  9  1 -1</clus>
<clus scale="   91.962">  7  8 -1 -1</clus>
<clus scale="   93.588">  5  6 -1 -1</clus>
<clus scale="  116.636">  1  7  2 -1</clus>
<clus scale="   91.875">  2  5  1 -1</clus>
</clustering>
</event>
<event>
 9    1  0.1636528E-005  0.1515255E+03  0.7546771E-02  0.1207762E+00
         21   -1    0    0  501  502  0.00000000000E+00  0.00000000000E+00  0.22092252875E+03  0.22092252875E+03  0.00000000000E+00 0. -1.
          2   -1    0    0  502    0 -0.00000000000E+00 -0.00000000000E+00 -0.12286827029E+03  0.12286827029E+03  0.00000000000E+00 0. -1.
         23    2    1    2    0    0  0.89455547897E+02  0.48407709646E+02  0.44645350152E+01  0.13685420272E+03  0.91452388302E+02 0.  0.
         23    2    1    2    0    0 -0.54751442706E+02 -0.20515557590E+02  0.60482948864E+02  0.15145321514E+03  0.12594157650E+03 0.  0.
        -13    1    4    4    0    0 -0.78700612014E+02  0.16019114545E+02  0.44962237154E+01  0.80440129226E+02  0.00000000000E+00 0. -1.
         13    1    4    4    0    0  0.23949169308E+02 -0.36534672136E+02  0.55986725149E+02  0.71013085917E+02  0.00000000000E+00 0.  1.
        -13    1    3    3    0    0  0.72446180772E+01 -0.22388316209E+02  0.14913650923E+02  0.27859256588E+02  0.00000000000E+00 0.  1.
         13    1    3    3    0    0  0.82210929819E+02  0.70796025855E+02 -0.10449115908E+02  0.10899494613E+03  0.00000000000E+00 0. -1.
          2    1    1    2  501    0 -0.34704105191E+02 -0.27892152055E+02  0.33106774580E+02  0.55483381174E+02  0.00000000000E+00 0. -1.
<scales pt_clust_5="13000.00000" pt_clust_6="13000.00000" pt_clust_7="13000.00000" pt_clust_8="13000.00000" pt_clust_9="44.52356"></scales>
<clustering>
<clus scale="   44.524">  1  9  2 -1</clus>
<clus scale="   91.452">  7  8 -1 -1</clus>
<clus scale="  124.347">  2  7  1 -1</clus>
<clus scale="  125.942">  5  6 -1 -1</clus>
<clus scale="   44.524">  1  5  2 -1</clus>
</clustering>
</event>
<event>
 9    1  0.1636528E-005  0.1090632E+03  0.7546771E-02  0.1264979E+00
         -3   -1    0    0    0  501 -0.00000000000E+00  0.00000000000E+00  0.25655215315E+03  0.25655215315E+03  0.00000000000E+00 0.  1.
         21   -1    0    0  501  502  0.00000000000E+00 -0.00000000000E+00 -0.13414112830E+03  0.13414112830E+03  0.00000000000E+00 0. -1.
         23    2    1    2    0    0  0.13550752935E+02  0.46364155516E+02  0.14358868754E+03  0.17398957061E+03  0.85565189578E+02 0.  0.
         23    2    1    2    0    0 -0.37686194613E+02 -0.10897828771E+03 -0.23864674790E+02  0.14954517356E+03  0.92183077493E+02 0.  0.
        -11    1    4    4    0    0 -0.62854502589E+02 -0.70831316914E+02  0.61026101422E+01  0.94894709031E+02  0.00000000000E+00 0.  1.
         11    1    4    4    0    0  0.25168307976E+02 -0.38146970797E+02 -0.29967284932E+02  0.54650464532E+02  0.00000000000E+00 0. -1.
        -13    1    3    3    0    0 -0.34976026092E+02  0.15197599369E+02  0.38955275810E+02  0.54514245306E+02  0.00000000000E+00 0.  1.
         13    1    3    3    0    0  0.48526779028E+02  0.31166556147E+02  0.10463341173E+03  0.11947532530E+03  0.00000000000E+00 0. -1.
         -3    1    1    2    0  502  0.24135441678E+02  0.62614132195E+02  0.26870121026E+01  0.67158537280E+02  0.00000000000E+00 0.  1.
<scales pt_clust_5="13000.00000" pt_clust_6="13000.00000" pt_clust_7="13000.00000" pt_clust_8="13000.00000" pt_clust_9="67.10476"></scales>
<clustering>
<clus scale="   67.105">  2  9  1 -1</clus>
<clus scale="   85.565">  7  8 -1 -1</clus>
<clus scale="   92.183">  5  6 -1 -1</clus>
<clus scale="  103.530">  1  7  2 -1</clus>
<clus scale="   67.105">  2  5  1 -1</clus>
</clustering>
</event>
<event>
 9    1  0.1636528E-005  0.8976056E+02  0.7546771E-02  0.1304500E+00
          2   -1    0    0  502    0 -0.00000000000E+00  0.00000000000E+00  0.72477892463E+03  0.72477892463E+03  0.00000000000E+00 0.  1.
         21   -1    0    0  501  502  0.00000000000E+00 -0.00000000000E+00 -0.40373712215E+02  0.40373712215E+02  0.00000000000E+00 0. -1.
         23    2    1    2    0    0  0.29242596804E+01 -0.11340744310E+02  0.46033961790E+03  0.46902561682E+03  0.89080310122E+02 0.  0.
         23    2    1    2    0    0 -0.54873459533E+02 -0.45201755196E+02  0.10209607082E+03  0.15200090051E+03  0.87329095066E+02 0.  0.
        -11    1    4    4    0    0 -0.72998872322E+02 -0.13938276136E+02  0.54110236087E+02  0.91929475966E+02  0.00000000000E+00 0.  1.
         11    1    4    4    0    0  0.18125412789E+02 -0.31263479060E+02  0.47985834735E+02  0.60071424545E+02  0.00000000000E+00 0. -1.
        -13    1    3    3    0    0 -0.22789048859E+01  0.39010409506E+02  0.18718558153E+03  0.19122093868E+03  0.00000000000E+00 0.  1.
         13    1    3    3    0    0  0.52031645663E+01 -0.50351153817E+02  0.27315403637E+03  0.27780467814E+03  0.00000000000E+00 0. -1.
          2    1    1    2  501    0  0.51949199853E+02  0.56542499506E+02  0.12196952369E+03  0.14412611951E+03  0.00000000000E+00 0.  1.
<scales pt_clust_5="13000.00000" pt_clust_6="13000.00000" pt_clust_7="13000.00000" pt_clust_8="13000.00000" pt_clust_9="76.78394"></scales>
<clustering>
<clus scale="   76.784">  2  9  1 -1</clus>
<clus scale="   87.329">  5  6 -1 -1</clus>
<clus scale="   88.023">  2  5  1 -1</clus>
<clus scale="   89.080">  7  8 -1 -1</clus>
<clus scale="   76.784">  2  5  1 -1</clus>
</clustering>
</event>
<event>
 9    1  0.1636528E-005  0.2771130E+03  0.7546771E-02  0.1097583E+00
          1   -1    0    0  502    0 -0.00000000000E+00  0.00000000000E+00  0.15465376443E+04  0.15465376443E+04  0.00000000000E+00 0. -1.
         21   -1    0    0  501  502  0.00000000000E+00 -0.00000000000E+00 -0.63102215125E+02  0.63102215125E+02  0.00000000000E+00 0.  1.
         23    2    1    2    0    0  0.15274573751E+03  0.21796669936E+03  0.10694889741E+04  0.11063427354E+04  0.96679057198E+02 0.  0.
         23    2    1    2    0    0 -0.14481154132E+03 -0.19891974164E+03  0.40069997213E+03  0.47877759351E+03  0.90155811057E+02 0.  0.
        -11    1    3    3    0    0  0.53172907313E+02  0.26011534565E+02  0.13941907490E+03  0.15146496772E+03  0.00000000000E+00 0.  1.
         11    1    3    3    0    0  0.99572830196E+02  0.19195516480E+03  0.93006989916E+03  0.95487776764E+03  0.00000000000E+00 0. -1.
        -13    1    4    4    0    0 -0.13566977997E+03 -0.17709591341E+03  0.29165249726E+03  0.36719263459E+03  0.00000000000E+00 0.  1.
         13    1    4    4    0    0 -0.91417613424E+01 -0.21823828226E+02  0.10904747487E+03  0.11158495891E+03  0.00000000000E+00 0. -1.
          1    1    1    2  501    0 -0.79341961939E+01 -0.19046957725E+02  0.13246483013E+02  0.24519530584E+02  0.00000000000E+00 0. -1.
<scales pt_clust_5="13000.00000" pt_clust_6="13000.00000" pt_clust_7="13000.00000" pt_clust_8="13000.00000" pt_clust_9="20.63342"></scales>
<clustering>
<clus scale="   20.633">  2  9  1 -1</clus>
<clus scale="   90.156">  7  8 -1 -1</clus>
<clus scale="   96.679">  5  6 -1 -1</clus>
<clus scale="  274.905">  2  7  1 -1</clus>
<clus scale="   20.633">  2  5  1 -1</clus>
</clustering>
</event>
<event>
 9    1  0.1636528E-005  0.1141311E+03  0.7546771E-02  0.1254084E+00
         21   -1    0    0  501  502  0.00000000000E+00  0.00000000000E+00  0.12297129629E+03  0.12297129629E+03  0.00000000000E+00 0.  1.
         -2   -1    0    0    0  501 -0.00000000000E+00 -0.00000000000E+00 -0.16009816219E+03  0.16009816219E+03  0.00000000000E+00 0.  1.
         23    2    1    2    0    0 -0.24513105479E+02 -0.60035766234E+02 -0.70469335521E+02  0.13397937063E+03  0.93698233379E+02 0.  0.
         23    2    1    2    0    0 -0.38042896369E+01  0.70427406054E+02  0.27108740931E+02  0.11828878239E+03  0.91010219543E+02 0.  0.
        -13    1    4    4    0    0 -0.33870980534E+02  0.47869133437E+02  0.47554906839E+02  0.75499446507E+02  0.00000000000E+00 0.  1.
         13    1    4    4    0    0  0.30066690897E+02  0.22558272618E+02 -0.20446165908E+02  0.42789335883E+02  0.00000000000E+00 0. -1.
        -13    1    3    3    0    0  0.26958491667E+02 -0.50667938106E+02 -0.18661618379E+02  0.60351107905E+02  0.00000000000E+00 0. -1.
         13    1    3    3    0    0 -0.51471597145E+02 -0.93678281275E+01 -0.51807717142E+02  0.73628262725E+02  0.00000000000E+00 0.  1.
         -2    1    1    2    0  502  0.28317395116E+02 -0.10391639821E+02  0.62337286912E+01  0.30801305454E+02  0.00000000000E+00 0.  1.
<scales pt_clust_5="13000.00000" pt_clust_6="13000.00000" pt_clust_7="13000.00000" pt_clust_8="13000.00000" pt_clust_9="30.16390"></scales>
<clustering>
<clus scale="   30.164">  1  9  2 -1</clus>
<clus scale="   91.010">  5  6 -1 -1</clus>
<clus scale="   93.698">  7  8 -1 -1</clus>
<clus scale="  111.935">  1  5  2 -1</clus>
<clus scale="   30.164">  1  5  2 -1</clus>
</clustering>
</event>
<event>
 9    1  0.1636528E-005  0.9998774E+02  0.7546771E-02  0.1280431E+00
         21   -1    0    0  501  502  0.00000000000E+00  0.00000000000E+00  0.42595233978E+03  0.42595233978E+03  0.00000000000E+00 0. -1.
          3   -1    0    0  502    0 -0.00000000000E+00 -0.00000000000E+00 -0.37560346683E+02  0.37560346683E+02  0.00000000000E+00 0. -1.
         23    2    1    2    0    0  0.40990364655E+02 -0.13141571979E+01  0.10844507234E+03  0.14666254331E+03  0.89819991616E+02 0.  0.
         23    2    1    2    0    0 -0.43461459195E+02 -0.25378563784E+02  0.13746203641E+03  0.17186548903E+03  0.90049791391E+02 0.  0.
        -11    1    4    4    0    0 -0.70353123708E+02 -0.10893656015E+02  0.10851456009E+03  0.12978306326E+03  0.00000000000E+00 0.  1.
         11    1    4    4    0    0  0.26891664513E+02 -0.14484907769E+02  0.28947476314E+02  0.42082425765E+02  0.00000000000E+00 0. -1.
        -13    1    3    3    0    0 -0.22136870931E+02 -0.12159310757E+02  0.61918467932E+01  0.26004400770E+02  0.00000000000E+00 0.  1.
         13    1    3    3    0    0  0.63127235586E+02  0.10845153559E+02  0.10225322554E+03  0.12065814254E+03  0.00000000000E+00 0. -1.
          3    1    1    2  501    0  0.24710945393E+01  0.26692720982E+02  0.14248488435E+03  0.14498465412E+03  0.00000000000E+00 0. -1.
<scales pt_clust_5="13000.00000" pt_clust_6="13000.00000" pt_clust_7="13000.00000" pt_clust_8="13000.00000" pt_clust_9="26.80686"></scales>
<clustering>
<clus scale="   26.807">  1  9  2 -1</clus>
<clus scale="   89.820">  7  8 -1 -1</clus>
<clus scale="   90.050">  5  6 -1 -1</clus>
<clus scale="   99.781">  2  7  1 -1</clus>
<clus scale="   26.807">  1  5  2 -1</clus>
</clustering>
</event>
<event>
 9    1  0.1636528E-005  0.1235817E+03  0.7546771E-02  0.1242066E+00
          2   -1    0    0  502    0 -0.00000000000E+00  0.00000000000E+00  0.59796017285E+03  0.59796017285E+03  0.00000000000E+00 0. -1.
         21   -1    0    0  501  502  0.00000000000E+00 -0.00000000000E+00 -0.54388755409E+02  0.54388755409E+02  0.00000000000E+00 0.  1.
         23    2    1    2    0    0  0.63602345604E+02  0.12855084934E+02  0.47161263658E+03  0.48472153252E+03  0.91246772698E+02 0.  0.
         23    2    1    2    0    0 -0.70127372308E+02  0.99738071785E+01  0.67449540042E+02  0.14345990639E+03  0.10494750647E+03 0.  0.
        -11    1    4    4    0    0 -0.36465323161E+02  0.57637629998E+02  0.34175758818E+02  0.76287604994E+02  0.00000000000E+00 0. -1.
         11    1    4    4    0    0 -0.33662049146E+02 -0.47663822819E+02  0.33273781224E+02  0.67172301400E+02  0.00000000000E+00 0.  1.
        -13    1    3    3    0    0 -0.12872060627E+02  0.26850285328E+02  0.77697917371E+02  0.83208137407E+02  0.00000000000E+00 0. -1.
         13    1    3    3    0    0  0.76474406231E+02 -0.13995200394E+02  0.39391471921E+03  0.40151339511E+03  0.00000000000E+00 0.  1.
          2    1    1    2  501    0  0.65250267038E+01 -0.22828892113E+02  0.45092408178E+01  0.24167489347E+02  0.00000000000E+00 0. -1.
<scales pt_clust_5="13000.00000" pt_clust_6="13000.00000" pt_clust_7="13000.00000" pt_clust_8="13000.00000" pt_clust_9="23.74309"></scales>
<clustering>
<clus scale="   23.743">  2  9  1 -1</clus>
<clus scale="   91.247">  7  8 -1 -1</clus>
<clus scale="  104.948">  5  6 -1 -1</clus>
<clus scale="  112.180">  1  7  2 -1</clus>
<clus scale="   23.743">  2  5  1 -1</clus>
</clustering>
</event>
<event>
 9    1  0.1636528E-005  0.1047277E+03  0.7546771E-02  0.1271921E+00
          2   -1    0    0  502    0 -0.00000000000E+00  0.00000000000E+00  0.87502319171E+03  0.87502319171E+03  0.00000000000E+00 0. -1.
         21   -1    0    0  501  502  0.00000000000E+00 -0.00000000000E+00 -0.23471227402E+02  0.23471227402E+02  0.00000000000E+00 0. -1.
         23    2    1    2    0    0  0.44494242553E+02 -0.12523734563E+02  0.41430731545E+03  0.42707428117E+03  0.92764801814E+02 0.  0.
         23    2    1    2    0    0 -0.52669725069E+02 -0.13707512199E+02  0.43048080550E+03  0.44312408878E+03  0.89906831344E+02 0.  0.
        -11    1    4    4    0    0 -0.70297711668E+02 -0.25089745477E+02  0.39426817998E+03  0.40127130640E+03  0.00000000000E+00 0. -1.
         11    1    4    4    0    0  0.17627986598E+02  0.11382233277E+02  0.36212625516E+02  0.41852782377E+02  0.00000000000E+00 0.  1.
        -13    1    3    3    0    0  0.71758676943E+02 -0.14080103100E+01  0.33171329104E+03  0.33938915372E+03  0.00000000000E+00 0. -1.
         13    1    3    3    0    0 -0.27264434390E+02 -0.11115724253E+02  0.82594024414E+02  0.87685127457E+02  0.00000000000E+00 0.  1.
          2    1    1    2  501    0  0.81754825167E+01  0.26231246762E+02  0.67638433551E+01  0.28296049159E+02  0.00000000000E+00 0. -1.
<scales pt_clust_5="13000.00000" pt_clust_6="13000.00000" pt_clust_7="13000.00000" pt_clust_8="13000.00000" pt_clust_9="27.47575"></scales>
<clustering>
<clus scale="   27.476">  2  9  1 -1</clus>
<clus scale="   89.907">  5  6 -1 -1</clus>
<clus scale="   92.765">  7  8 -1 -1</clus>
<clus scale="  102.205">  2  5  1 -1</clus>
<clus scale="   27.476">  2  5  1 -1</clus>
</clustering>
</event>
<event>
 9    1  0.1636528E-005  0.9691051E+02  0.7546771E-02  0.1287656E+00
         21   -1    0    0  501  502  0.00000000000E+00  0.00000000000E+00  0.17194168180E+03  0.17194168180E+03  0.00000000000E+00 0.  1.
          1   -1    0    0  502    0 -0.00000000000E+00 -0.00000000000E+00 -0.88842069646E+02  0.88842069646E+02  0.00000000000E+00 0. -1.
         23    2    1    2    0    0  0.31278738048E+02 -0.27580767419E+02  0.14741939473E+01  0.10058335031E+03  0.91519281722E+02 0.  0.
         23    2    1    2    0    0 -0.10757258316E+02  0.18699975803E+02  0.20223602722E+02  0.94853767442E+02  0.90126773987E+02 0.  0.
        -11    1    4    4    0    0  0.12425346575E+02  0.39841126863E+02  0.39966298537E+02  0.57784164318E+02  0.00000000000E+00 0.  1.
         11    1    4    4    0    0 -0.23182604892E+02 -0.21141151060E+02 -0.19742695815E+02  0.37069603123E+02  0.00000000000E+00 0. -1.
        -11    1    3    3    0    0 -0.23726265438E+02 -0.37677450251E+02  0.31240020348E+01  0.44635023443E+02  0.00000000000E+00 0. -1.
         11    1    3    3    0    0  0.55005003486E+02  0.10096682832E+02 -0.16498080875E+01  0.55948326869E+02  0.00000000000E+00 0.  1.
          1    1    1    2  501    0 -0.20521479731E+02  0.88807916157E+01  0.61401815486E+02  0.65346633693E+02  0.00000000000E+00 0. -1.
<scales pt_clust_5="13000.00000" pt_clust_6="13000.00000" pt_clust_7="13000.00000" pt_clust_8="13000.00000" pt_clust_9="22.36067"></scales>
<clustering>
<clus scale="   22.361">  1  9  2 -1</clus>
<clus scale="   90.127">  5  6 -1 -1</clus>
<clus scale="   91.519">  7  8 -1 -1</clus>
<clus scale="   95.597">  1  5  2 -1</clus>
<clus scale="   22.361">  1  5  2 -1</clus>
</clustering>
</event>
<event>
 9    1  0.1636528E-005  0.9778620E+02  0.7546771E-02  0.1285402E+00
          1   -1    0    0  502    0 -0.00000000000E+00  0.00000000000E+00  0.34587677654E+03  0.34587677654E+03  0.00000000000E+00 0. -1.
         21   -1    0    0  501  502  0.00000000000E+00 -0.00000000000E+00 -0.10285281713E+03  0.10285281713E+03  0.00000000000E+00 0. -1.
         23    2    1    2    0    0 -0.32967148128E+02  0.18331966442E+02  0.29908215081E+03  0.31485780247E+03  0.90897794207E+02 0.  0.
         23    2    1    2    0    0  0.26932367449E+02  0.80613375113E+01 -0.45430932090E+02  0.10478633587E+03  0.90143602187E+02 0.  0.
        -11    1    3    3    0    0 -0.61323888182E+01  0.47403551166E+02  0.23287912685E+03  0.23773386502E+03  0.00000000000E+00 0. -1.
         11    1    3    3    0    0 -0.26834759310E+02 -0.29071584724E+02  0.66203023963E+02  0.77123937447E+02  0.00000000000E+00 0.  1.
        -11    1    4    4    0    0 -0.16775203940E+02  0.24039563173E+02 -0.50069107953E+02  0.58019166109E+02  0.00000000000E+00 0. -1.
         11    1    4    4    0    0  0.43707571388E+02 -0.15978225662E+02  0.46381758626E+01  0.46767169759E+02  0.00000000000E+00 0.  1.
          1    1    1    2  501    0  0.60347806792E+01 -0.26393303953E+02 -0.10627259306E+02  0.29085455330E+02  0.00000000000E+00 0. -1.
<scales pt_clust_5="13000.00000" pt_clust_6="13000.00000" pt_clust_7="13000.00000" pt_clust_8="13000.00000" pt_clust_9="27.07444"></scales>
<clustering>
<clus scale="   27.074">  2  9  1 -1</clus>
<clus scale="   90.144">  7  8 -1 -1</clus>
<clus scale="   90.898">  5  6 -1 -1</clus>
<clus scale="   97.086">  2  7  1 -1</clus>
<clus scale="   27.074">  2  5  1 -1</clus>
</clustering>
</event>
<event>
 9    1  0.1636528E-005  0.9130458E+02  0.7546771E-02  0.1302607E+00
          1   -1    0    0  502    0 -0.00000000000E+00  0.00000000000E+00  0.17938712797E+03  0.17938712797E+03  0.00000000000E+00 0. -1.
         21   -1    0    0  501  502  0.00000000000E+00 -0.00000000000E+00 -0.80882057750E+02  0.80882057750E+02  0.00000000000E+00 0. -1.
         23    2    1    2    0    0 -0.41393812342E+01 -0.16965118630E+02  0.90992218422E+02  0.12918914710E+03  0.90029451786E+02 0.  0.
         23    2    1    2    0    0  0.27713636961E+02 -0.51458508739E+01 -0.15892116591E+02  0.91174737580E+02  0.85239356803E+02 0.  0.
        -13    1    3    3    0    0  0.22901193306E+00  0.37275886368E+02  0.35877320230E+02  0.51737087837E+02  0.00000000000E+00 0.  1.
         13    1    3    3    0    0 -0.43683931673E+01 -0.54241004997E+02  0.55114898192E+02  0.77452059267E+02  0.00000000000E+00 0. -1.
        -13    1    4    4    0    0  0.12294984979E+02  0.35430773196E+02  0.12237817092E+02  0.39449594575E+02  0.00000000000E+00 0.  1.
         13    1    4    4    0    0  0.15418651982E+02 -0.40576624070E+02 -0.28129933683E+02  0.51725143005E+02  0.00000000000E+00 0. -1.
          1    1    1    2  501    0 -0.23574255727E+02  0.22110969504E+02  0.23404968386E+02  0.39905301034E+02  0.00000000000E+00 0. -1.
<scales pt_clust_5="13000.00000" pt_clust_6="13000.00000" pt_clust_7="13000.00000" pt_clust_8="13000.00000" pt_clust_9="32.32092"></scales>
<clustering>
<clus scale="   32.321">  2  9  1 -1</clus>
<clus scale="   85.239">  7  8 -1 -1</clus>
<clus scale="   86.585">  2  7  1 -1</clus>
<clus scale="   90.029">  5  6 -1 -1</clus>
<clus scale="   32.321">  2  5  1 -1</clus>
</clustering>
</event>
<event>
 9    1  0.1636528E-005  0.9964899E+02  0.7546771E-02  0.1283748E+00
         -1   -1    0    0    0  501 -0.00000000000E+00  0.00000000000E+00  0.38991296729E+03  0.38991296729E+03  0.00000000000E+00 0.  1.
         21   -1    0    0  501  502  0.00000000000E+00 -0.00000000000E+00 -0.61789689007E+02  0.61789689007E+02  0.00000000000E+00 0.  1.
         23    2    1    2    0    0 -0.53335177995E+01  0.64436065786E+01  0.19798493998E+03  0.21813927534E+03  0.91196164999E+02 0.  0.
         23    2    1    2    0    0  0.59675879427E+02 -0.21129353677E+02  0.13443344360E+03  0.17710798825E+03  0.96370268096E+02 0.  0.
        -11    1    3    3    0    0  0.64099589996E+01 -0.41167513744E+02  0.10611015952E+03  0.11399656888E+03  0.00000000000E+00 0. -1.
         11    1    3    3    0    0 -0.11743476799E+02  0.47611120323E+02  0.91874780463E+02  0.10414270647E+03  0.00000000000E+00 0.  1.
        -11    1    4    4    0    0  0.82902686870E+02 -0.30207674950E+02  0.89269804158E+02  0.12551676004E+03  0.00000000000E+00 0.  1.
         11    1    4    4    0    0 -0.23226807443E+02  0.90783212731E+01  0.45163639440E+02  0.51591228214E+02  0.00000000000E+00 0. -1.
         -1    1    1    2    0  502 -0.54342361627E+02  0.14685747098E+02 -0.42951053005E+01  0.56455392697E+02  0.00000000000E+00 0.  1.
<scales pt_clust_5="13000.00000" pt_clust_6="13000.00000" pt_clust_7="13000.00000" pt_clust_8="13000.00000" pt_clust_9="56.29177"></scales>
<clustering>
<clus scale="   56.292">  2  9  1 -1</clus>
<clus scale="   91.196">  5  6 -1 -1</clus>
<clus scale="   94.654">  1  5  2 -1</clus>
<clus scale="   96.370">  7  8 -1 -1</clus>
<clus scale="   56.292">  2  5  1 -1</clus>
</clustering>
</event>
<event>
 9    1  0.1636528E-005  0.1097395E+03  0.7546771E-02  0.1269457E+00
          1   -1    0    0  502    0 -0.00000000000E+00  0.00000000000E+00  0.47479029890E+03  0.47479029890E+03  0.00000000000E+00 0. -1.
         21   -1    0    0  501  502  0.00000000000E+00 -0.00000000000E+00 -0.37782348914E+02  0.37782348914E+02  0.00000000000E+00 0.  1.
         23    2    1    2    0    0  0.15740448019E+02  0.22325947802E+02  0.31047842802E+03  0.32464594258E+03  0.90840101945E+02 0.  0.
         23    2    1    2    0    0 -0.30402667841E+01  0.87688148481E+00  0.11865719880E+03  0.16032889078E+03  0.10777666838E+03 0.  0.
        -13    1    3    3    0    0  0.23173774269E+02 -0.30746713706E+02  0.16968358774E+03  0.17399685102E+03  0.00000000000E+00 0. -1.
         13    1    3    3    0    0 -0.74333262499E+01  0.53072661508E+02  0.14079484028E+03  0.15064909156E+03  0.00000000000E+00 0.  1.
        -13    1    4    4    0    0  0.46585461416E+02 -0.23355613169E+02  0.50033653029E+02  0.72243036462E+02  0.00000000000E+00 0.  1.
         13    1    4    4    0    0 -0.49625728200E+02  0.24232494653E+02  0.68623545770E+02  0.88085854316E+02  0.00000000000E+00 0. -1.
          1    1    1    2  501    0 -0.12700181235E+02 -0.23202829287E+02  0.78723231617E+01  0.27597814448E+02  0.00000000000E+00 0. -1.
<scales pt_clust_5="13000.00000" pt_clust_6="13000.00000" pt_clust_7="13000.00000" pt_clust_8="13000.00000" pt_clust_9="26.45120"></scales>
<clustering>
<clus scale="   26.451">  2  9  1 -1</clus>
<clus scale="   90.840">  5  6 -1 -1</clus>
<clus scale="   93.160">  1  5  2 -1</clus>
<clus scale="  107.777">  7  8 -1 -1</clus>
<clus scale="   26.451">  2  5  1 -1</clus>
</clustering>
</event>
<event>
 9    1  0.1636528E-005  0.1001770E+03  0.7546771E-02  0.1281689E+00
         21   -1    0    0  501  502  0.00000000000E+00  0.00000000000E+00  0.32135271054E+03  0.32135271054E+03  0.00000000000E+00 0. -1.
         -1   -1    0    0    0  501 -0.00000000000E+00 -0.00000000000E+00 -0.94587701529E+02  0.94587701529E+02  0.00000000000E+00 0.  1.
         23    2    1    2    0    0  0.26022930957E+02  0.22114658711E+02 -0.43909815765E+02  0.10798234918E+03  0.92551957019E+02 0.  0.
         23    2    1    2    0    0 -0.38088420950E+02 -0.49977065330E+02  0.16267301065E+03  0.19576946451E+03  0.88964824354E+02 0.  0.
        -13    1    4    4    0    0 -0.30688652666E+02  0.35818094666E+01  0.79958167330E+01  0.31914821741E+02  0.00000000000E+00 0.  1.
         13    1    4    4    0    0 -0.73997682832E+01 -0.53558874796E+02  0.15467719391E+03  0.16385464277E+03  0.00000000000E+00 0. -1.
        -13    1    3    3    0    0  0.33091236495E+02  0.55100090446E+02 -0.34563543085E+02  0.72977314355E+02  0.00000000000E+00 0.  1.
         13    1    3    3    0    0 -0.70683055381E+01 -0.32985431735E+02 -0.93462726799E+01  0.35005034823E+02  0.00000000000E+00 0. -1.
         -1    1    1    2    0  502  0.12065489993E+02  0.27862406619E+02  0.10800181413E+03  0.11218859839E+03  0.00000000000E+00 0.  1.
<scales pt_clust_5="13000.00000" pt_clust_6="13000.00000" pt_clust_7="13000.00000" pt_clust_8="13000.00000" pt_clust_9="30.36264"></scales>
<clustering>
<clus scale="   30.363">  1  9  2 -1</clus>
<clus scale="   88.965">  5  6 -1 -1</clus>
<clus scale="   92.552">  7  8 -1 -1</clus>
<clus scale="   96.873">  1  5  2 -1</clus>
<clus scale="   30.363">  1  5  2 -1</clus>
</clustering>
</event>
<event>
 9    1  0.1636528E-005  0.1014170E+03  0.7546771E-02  0.1290347E+00
          2   -1    0    0  502    0 -0.00000000000E+00  0.00000000000E+00  0.24822525689E+03  0.24822525689E+03  0.00000000000E+00 0. -1.
         21   -1    0    0  501  502  0.00000000000E+00 -0.00000000000E+00 -0.80098295866E+02  0.80098295866E+02  0.00000000000E+00 0.  1.
         23    2    1    2    0    0  0.75891145629E+01 -0.19814230264E+01  0.13449167840E+03  0.16698589734E+03  0.98664875482E+02 0.  0.
         23    2    1    2    0    0 -0.44318156964E+02  0.17680661712E+01  0.67999394510E+02  0.11103894508E+03  0.75752917931E+02 0.  0.
        -11    1    4    4    0    0 -0.26019026514E+02  0.37689677793E+02  0.25327261543E+02  0.52335186349E+02  0.00000000000E+00 0.  1.
         11    1    4    4    0    0 -0.18299130450E+02 -0.35921611621E+02  0.42672132967E+02  0.58703758727E+02  0.00000000000E+00 0. -1.
        -13    1    3    3    0    0 -0.38007146834E+02 -0.71788481779E+01  0.19797527364E+02  0.43451365471E+02  0.00000000000E+00 0. -1.
         13    1    3    3    0    0  0.45596261397E+02  0.51974251516E+01  0.11469415104E+03  0.12353453187E+03  0.00000000000E+00 0.  1.
          2    1    1    2  501    0  0.36729042401E+02  0.21335685512E+00 -0.34364111883E+02  0.50298710345E+02  0.00000000000E+00 0. -1.
<scales pt_clust_5="13000.00000" pt_clust_6="13000.00000" pt_clust_7="13000.00000" pt_clust_8="13000.00000" pt_clust_9="36.72966"></scales>
<clustering>
<clus scale="   36.730">  2  9  1 -1</clus>
<clus scale="   75.753">  5  6 -1 -1</clus>
<clus scale="   79.304">  2  5  1 -1</clus>
<clus scale="   98.665">  7  8 -1 -1</clus>
<clus scale="   36.730">  2  5  1 -1</clus>
</clustering>
</event>
<event>
 9    1  0.1636528E-005  0.9348326E+02  0.7546771E-02  0.1301290E+00
         21   -1    0    0  501  502  0.00000000000E+00  0.00000000000E+00  0.11402627620E+03  0.11402627620E+03  0.00000000000E+00 0.  1.
          1   -1    0    0  502    0 -0.00000000000E+00 -0.00000000000E+00 -0.91014744700E+02  0.91014744700E+02  0.00000000000E+00 0. -1.
         23    2    1    2    0    0 -0.53375188003E+01  0.62401739702E+00 -0.11264204672E+02  0.94169823903E+02  0.93339139284E+02 0.  0.
         23    2    1    2    0    0 -0.10286525851E+02  0.13360194713E+02  0.30628263735E+02  0.89588034289E+02  0.82484046527E+02 0.  0.
        -11    1    4    4    0    0  0.27314518932E+02 -0.85967707680E+01 -0.97052180674E+01  0.30235387708E+02  0.00000000000E+00 0. -1.
         11    1    4    4    0    0 -0.37601044783E+02  0.21956965481E+02  0.40333481803E+02  0.59352646582E+02  0.00000000000E+00 0.  1.
        -11    1    3    3    0    0  0.37443738285E+02  0.21235439700E+02 -0.17113663056E+02  0.46323373141E+02  0.00000000000E+00 0. -1.
         11    1    3    3    0    0 -0.42781257085E+02 -0.20611422303E+02  0.58494583840E+01  0.47846450762E+02  0.00000000000E+00 0.  1.
          1    1    1    2  501    0  0.15624044652E+02 -0.13984212110E+02  0.36474724353E+01  0.21283162706E+02  0.00000000000E+00 0. -1.
<scales pt_clust_5="13000.00000" pt_clust_6="13000.00000" pt_clust_7="13000.00000" pt_clust_8="13000.00000" pt_clust_9="20.96828"></scales>
<clustering>
<clus scale="   20.968">  1  9  2 -1</clus>
<clus scale="   82.484">  5  6 -1 -1</clus>
<clus scale="   82.647">  1  5  2 -1</clus>
<clus scale="   93.339">  7  8 -1 -1</clus>
<clus scale="   20.968">  1  5  2 -1</clus>
</clustering>
</event>
<event>
 9    1  0.1636528E-005  0.9698490E+02  0.7546771E-02  0.1290318E+00
          1   -1    0    0  502    0 -0.00000000000E+00  0.00000000000E+00  0.60653056439E+03  0.60653056439E+03  0.00000000000E+00 0. -1.
         21   -1    0    0  501  502  0.00000000000E+00 -0.00000000000E+00 -0.34780816790E+02  0.34780816790E+02  0.00000000000E+00 0. -1.
         23    2    1    2    0    0 -0.68388752849E+01 -0.33248762674E+02  0.34940262393E+03  0.36173795565E+03  0.87292064444E+02 0.  0.
         23    2    1    2    0    0 -0.18818406175E+02  0.10684644465E+02  0.22558100615E+03  0.24525297217E+03  0.93775988313E+02 0.  0.
        -11    1    4    4    0    0  0.26953908068E+01  0.37830304918E+02  0.35190800188E+02  0.51737699211E+02  0.00000000000E+00 0.  1.
         11    1    4    4    0    0 -0.21513796982E+02 -0.27145660453E+02  0.19039020596E+03  0.19351527296E+03  0.00000000000E+00 0. -1.
        -13    1    3    3    0    0 -0.27984014164E+02  0.20630599658E+02  0.10634628326E+03  0.11188502426E+03  0.00000000000E+00 0.  1.
         13    1    3    3    0    0  0.21145138879E+02 -0.53879362332E+02  0.24305634067E+03  0.24985293139E+03  0.00000000000E+00 0. -1.
          1    1    1    2  501    0  0.25657281460E+02  0.22564118209E+02 -0.32338824865E+01  0.34320453354E+02  0.00000000000E+00 0. -1.
<scales pt_clust_5="13000.00000" pt_clust_6="13000.00000" pt_clust_7="13000.00000" pt_clust_8="13000.00000" pt_clust_9="34.16776"></scales>
<clustering>
<clus scale="   34.168">  2  9  1 -1</clus>
<clus scale="   87.292">  7  8 -1 -1</clus>
<clus scale="   90.731">  1  7  2 -1</clus>
<clus scale="   93.776">  5  6 -1 -1</clus>
<clus scale="   34.168">  2  5  1 -1</clus>
</clustering>
</event>
<event>
 9    1  0.1636528E-005  0.1668962E+03  0.7546771E-02  0.1181428E+00
          1   -1    0    0  502    0 -0.00000000000E+00  0.00000000000E+00  0.11500421876E+04  0.11500421876E+04  0.00000000000E+00 0. -1.
         21   -1    0    0  501  502  0.00000000000E+00 -0.00000000000E+00 -0.53614645761E+02  0.53614645761E+02  0.00000000000E+00 0.  1.
         23    2    1    2    0    0 -0.66750586706E+02 -0.11215581758E+03  0.75786397956E+03  0.77465524797E+03  0.93265070913E+02 0.  0.
         23    2    1    2    0    0  0.13155528774E+03  0.11490660343E+03  0.27383052301E+03  0.33736326113E+03  0.91216738508E+02 0.  0.
        -11    1    3    3    0    0  0.14441418374E+02 -0.25657202575E+02  0.60632170012E+02  0.67402571531E+02  0.00000000000E+00 0.  1.
         11    1    3    3    0    0 -0.81192005080E+02 -0.86498615007E+02  0.69723180955E+03  0.70725267644E+03  0.00000000000E+00 0. -1.
        -13    1    4    4    0    0  0.11914553724E+03  0.57650543000E+02  0.22523165684E+03  0.26124422175E+03  0.00000000000E+00 0.  1.
         13    1    4    4    0    0  0.12409750493E+02  0.57256060432E+02  0.48598866171E+02  0.76119039383E+02  0.00000000000E+00 0. -1.
          1    1    1    2  501    0 -0.64804701031E+02 -0.27507858494E+01  0.64733039234E+02  0.91638324226E+02  0.00000000000E+00 0. -1.
<scales pt_clust_5="13000.00000" pt_clust_6="13000.00000" pt_clust_7="13000.00000" pt_clust_8="13000.00000" pt_clust_9="64.86306"></scales>
<clustering>
<clus scale="   64.863">  2  9  1 -1</clus>
<clus scale="   91.217">  7  8 -1 -1</clus>
<clus scale="   93.265">  5  6 -1 -1</clus>
<clus scale="  165.760">  2  7  1 -1</clus>
<clus scale="   64.863">  2  5  1 -1</clus>
</clustering>
</event>
<event>
 9    1  0.1636528E-005  0.1188172E+03  0.7546771E-02  0.1247624E+00
         21   -1    0    0  501  502  0.00000000000E+00  0.00000000000E+00  0.30566229826E+03  0.30566229826E+03  0.00000000000E+00 0.  1.
          3   -1    0    0  502    0 -0.00000000000E+00 -0.00000000000E+00 -0.82951689948E+02  0.82951689948E+02  0.00000000000E+00 0. -1.
         23    2    1    2    0    0  0.40183271923E+02  0.62791357343E+02  0.56732735904E+01  0.11791835895E+03  0.91187189033E+02 0.  0.
         23    2    1    2    0    0 -0.24867284227E+02 -0.44459660081E+02  0.93982972978E+02  0.14534409737E+03  0.98473672783E+02 0.  0.
        -11    1    4    4    0    0  0.30996530117E+02  0.10043275673E+02  0.32120153453E+02  0.45753213257E+02  0.00000000000E+00 0. -1.
         11    1    4    4    0    0 -0.55863814344E+02 -0.54502935755E+02  0.61862819525E+02  0.99590884114E+02  0.00000000000E+00 0.  1.
        -13    1    3    3    0    0  0.61946563127E+02  0.24732292839E+02 -0.16609997345E+02  0.68738308127E+02  0.00000000000E+00 0. -1.
         13    1    3    3    0    0 -0.21763291204E+02  0.38059064504E+02  0.22283270935E+02  0.49180050819E+02  0.00000000000E+00 0.  1.
          3    1    1    2  501    0 -0.15315987696E+02 -0.18331697262E+02  0.12305436174E+03  0.12535153189E+03  0.00000000000E+00 0. -1.
<scales pt_clust_5="13000.00000" pt_clust_6="13000.00000" pt_clust_7="13000.00000" pt_clust_8="13000.00000" pt_clust_9="23.88788"></scales>
<clustering>
<clus scale="   23.888">  1  9  2 -1</clus>
<clus scale="   91.187">  7  8 -1 -1</clus>
<clus scale="   98.474">  5  6 -1 -1</clus>
<clus scale="  112.852">  2  7  1 -1</clus>
<clus scale="   23.888">  1  5  2 -1</clus>
</clustering>
</event>
<event>
 9    1  0.1636528E-005  0.1557242E+03  0.7546771E-02  0.1194075E+00
         21   -1    0    0  501  502  0.00000000000E+00  0.00000000000E+00  0.81221412835E+03  0.81221412835E+03  0.00000000000E+00 0.  1.
          3   -1    0    0  502    0 -0.00000000000E+00 -0.00000000000E+00 -0.40759438983E+02  0.40759438983E+02  0.00000000000E+00 0. -1.
         23    2    1    2    0    0  0.91009642430E+02  0.73007815677E+02  0.20792419981E+03  0.25540630184E+03  0.91580620149E+02 0.  0.
         23    2    1    2    0    0 -0.11095212179E+03 -0.81332631775E+02  0.41133529663E+03  0.44384549801E+03  0.94216397389E+02 0.  0.
        -13    1    4    4    0    0 -0.70786527566E+02 -0.96512631915E+02  0.34148742088E+03  0.36185505278E+03  0.00000000000E+00 0.  1.
         13    1    4    4    0    0 -0.40165594219E+02  0.15180000141E+02  0.69847875746E+02  0.81990445233E+02  0.00000000000E+00 0. -1.
        -13    1    3    3    0    0  0.65069852911E+02  0.45214995703E+01  0.52999938307E+02  0.84044768884E+02  0.00000000000E+00 0.  1.
         13    1    3    3    0    0  0.25939789519E+02  0.68486316106E+02  0.15492426151E+03  0.17136153296E+03  0.00000000000E+00 0. -1.
          3    1    1    2  501    0  0.19942479356E+02  0.83248160979E+01  0.15219519293E+03  0.15372176748E+03  0.00000000000E+00 0. -1.
<scales pt_clust_5="13000.00000" pt_clust_6="13000.00000" pt_clust_7="13000.00000" pt_clust_8="13000.00000" pt_clust_9="21.61030"></scales>
<clustering>
<clus scale="   21.610">  1  9  2 -1</clus>
<clus scale="   91.581">  7  8 -1 -1</clus>
<clus scale="   94.216">  5  6 -1 -1</clus>
<clus scale="  154.144">  2  7  1 -1</clus>
<clus scale="   21.610">  1  5  2 -1</clus>
</clustering>
</event>
<event>
 9    1  0.1636528E-005  0.1448304E+03  0.7546771E-02  0.1227164E+00
         21   -1    0    0  501  502  0.00000000000E+00  0.00000000000E+00  0.46298460521E+03  0.46298460521E+03  0.00000000000E+00 0.  1.
          1   -1    0    0  502    0 -0.00000000000E+00 -0.00000000000E+00 -0.74244098390E+02  0.74244098390E+02  0.00000000000E+00 0. -1.
         23    2    1    2    0    0 -0.10668525381E+02 -0.14766907476E+02  0.49010159656E+02  0.10652878983E+03  0.92814375623E+02 0.  0.
         23    2    1    2    0    0 -0.67791977153E+02 -0.69707324333E+02  0.11356657321E+03  0.17684562693E+03  0.94457111871E+02 0.  0.
        -13    1    4    4    0    0  0.67967485332E+01 -0.25309668699E+02 -0.80630386538E+01  0.27418747466E+02  0.00000000000E+00 0. -1.
         13    1    4    4    0    0 -0.74588725686E+02 -0.44397655633E+02  0.12162961187E+03  0.14942687947E+03  0.00000000000E+00 0.  1.
        -13    1    3    3    0    0  0.19177731103E+02 -0.20958051694E+02 -0.17500454405E+02  0.33366018724E+02  0.00000000000E+00 0. -1.
         13    1    3    3    0    0 -0.29846256484E+02  0.61911442183E+01  0.66510614060E+02  0.73162771103E+02  0.00000000000E+00 0.  1.
          1    1    1    2  501    0  0.78460502533E+02  0.84474231809E+02  0.22616377395E+03  0.25385428684E+03  0.00000000000E+00 0. -1.
<scales pt_clust_5="13000.00000" pt_clust_6="13000.00000" pt_clust_7="13000.00000" pt_clust_8="13000.00000" pt_clust_9="109.78931"></scales>
<clustering>
<clus scale="   92.814">  7  8 -1 -1</clus>
<clus scale="   94.457">  5  6 -1 -1</clus>
<clus scale="   94.585">  2  7  1 -1</clus>
<clus scale="  109.789">  1  9  2 -1</clus>
<clus scale="  109.789">  1  5  2 -1</clus>
</clustering>
</event>
<event>
 9    1  0.1636528E-005  0.1353453E+03  0.7546771E-02  0.1220208E+00
         21   -1    0    0  501  502  0.00000000000E+00  0.00000000000E+00  0.75455715080E+02  0.75455715080E+02  0.00000000000E+00 0.  1.
          1   -1    0    0  502    0 -0.00000000000E+00 -0.00000000000E+00 -0.39841534311E+03  0.39841534311E+03  0.00000000000E+00 0. -1.
         23    2    1    2    0    0  0.53000698204E+02  0.99167395786E+02 -0.24704680220E+03  0.28628319682E+03  0.91009339661E+02 0.  0.
         23    2    1    2    0    0 -0.39756959098E+02 -0.65385068794E+02 -0.88217907745E+02  0.14927262571E+03  0.92973622722E+02 0.  0.
        -11    1    4    4    0    0 -0.33366662972E+02 -0.64794793669E+01  0.92339281402E+01  0.35221914764E+02  0.00000000000E+00 0.  1.
         11    1    4    4    0    0 -0.63902961261E+01 -0.58905589427E+02 -0.97451835886E+02  0.11405071095E+03  0.00000000000E+00 0. -1.
        -11    1    3    3    0    0  0.61721626816E+02  0.27663180307E+02 -0.15714075258E+03  0.17107900772E+03  0.00000000000E+00 0. -1.
         11    1    3    3    0    0 -0.87209286123E+01  0.71504215479E+02 -0.89906049626E+02  0.11520418910E+03  0.00000000000E+00 0.  1.
          1    1    1    2  501    0 -0.13243739106E+02 -0.33782326992E+02  0.12305081918E+02  0.38315235658E+02  0.00000000000E+00 0. -1.
<scales pt_clust_5="13000.00000" pt_clust_6="13000.00000" pt_clust_7="13000.00000" pt_clust_8="13000.00000" pt_clust_9="36.28557"></scales>
<clustering>
<clus scale="   36.286">  1  9  2 -1</clus>
<clus scale="   91.009">  7  8 -1 -1</clus>
<clus scale="   92.974">  5  6 -1 -1</clus>
<clus scale="  134.004">  2  7  1 -1</clus>
<clus scale="   36.286">  1  5  2 -1</clus>
</clustering>
</event>
<event>
 9    1  0.1636528E-005  0.9837527E+02  0.7546771E-02  0.1284421E+00
          4   -1    0    0  502    0 -0.00000000000E+00  0.00000000000E+00  0.12756434893E+03  0.12756434893E+03  0.00000000000E+00 0. -1.
         21   -1    0    0  501  502  0.00000000000E+00 -0.00000000000E+00 -0.17859279256E+03  0.17859279256E+03  0.00000000000E+00 0.  1.
         23    2    1    2    0    0  0.22095645630E+02 -0.39467521120E+02  0.55704357548E+02  0.11838040795E+03  0.94154356020E+02 0.  0.
         23    2    1    2    0    0  0.13025930646E+01 -0.11265577838E+02 -0.42802263302E+02  0.10287420957E+03  0.92857198205E+02 0.  0.
        -11    1    3    3    0    0  0.12525245152E+01 -0.63220613160E+02  0.11862001694E+02  0.64336007260E+02  0.00000000000E+00 0.  1.
         11    1    3    3    0    0  0.20843121115E+02  0.23753092039E+02  0.43842355854E+02  0.54044400691E+02  0.00000000000E+00 0. -1.
        -13    1    4    4    0    0 -0.11765554824E+02 -0.50128517654E+02 -0.31428934966E+02  0.60324742151E+02  0.00000000000E+00 0.  1.
         13    1    4    4    0    0  0.13068147889E+02  0.38862939815E+02 -0.11373328336E+02  0.42549467421E+02  0.00000000000E+00 0. -1.
          4    1    1    2  501    0 -0.23398238695E+02  0.50733098958E+02 -0.63930537869E+02  0.84902523968E+02  0.00000000000E+00 0. -1.
<scales pt_clust_5="13000.00000" pt_clust_6="13000.00000" pt_clust_7="13000.00000" pt_clust_8="13000.00000" pt_clust_9="55.86882"></scales>
<clustering>
<clus scale="   55.869">  2  9  1 -1</clus>
<clus scale="   92.857">  7  8 -1 -1</clus>
<clus scale="   94.154">  5  6 -1 -1</clus>
<clus scale="   97.134">  2  7  1 -1</clus>
<clus scale="   55.869">  2  5  1 -1</clus>
</clustering>
</event>
<event>
 9    1  0.1636528E-005  0.2021785E+03  0.7546771E-02  0.1148347E+00
          1   -1    0    0  502    0 -0.00000000000E+00  0.00000000000E+00  0.40606625182E+03  0.40606625182E+03  0.00000000000E+00 0. -1.
         21   -1    0    0  501  502  0.00000000000E+00 -0.00000000000E+00 -0.21944641805E+03  0.21944641805E+03  0.00000000000E+00 0.  1.
         23    2    1    2    0    0  0.35726861940E+01 -0.18663481355E+03  0.30587864984E+03  0.36986086221E+03  0.91596895439E+02 0.  0.
         23    2    1    2    0    0 -0.28945225976E+02  0.15282260864E+03 -0.71823173241E+02  0.19211306998E+03  0.86926909663E+02 0.  0.
        -13    1    3    3    0    0 -0.43030032354E+02 -0.80035177138E+02  0.11900273838E+03  0.14972930577E+03  0.00000000000E+00 0.  1.
         13    1    3    3    0    0  0.46602718548E+02 -0.10659963641E+03  0.18687591146E+03  0.22013155644E+03  0.00000000000E+00 0. -1.
        -13    1    4    4    0    0  0.30729726524E+02  0.44290505885E+02 -0.27902471970E+02  0.60700189010E+02  0.00000000000E+00 0.  1.
         13    1    4    4    0    0 -0.59674952499E+02  0.10853210275E+03 -0.43920701271E+02  0.13141288097E+03  0.00000000000E+00 0. -1.
          1    1    1    2  501    0  0.25372539782E+02  0.33812204911E+02 -0.47435642826E+02  0.63538737682E+02  0.00000000000E+00 0. -1.
<scales pt_clust_5="13000.00000" pt_clust_6="13000.00000" pt_clust_7="13000.00000" pt_clust_8="13000.00000" pt_clust_9="42.27329"></scales>
<clustering>
<clus scale="   42.273">  2  9  1 -1</clus>
<clus scale="   86.927">  7  8 -1 -1</clus>
<clus scale="   91.597">  5  6 -1 -1</clus>
<clus scale="  200.106">  2  7  1 -1</clus>
<clus scale="   42.273">  2  5  1 -1</clus>
</clustering>
</event>
<event>
 9    1  0.1636528E-005  0.1068619E+03  0.7546771E-02  0.1268107E+00
          1   -1    0    0  502    0 -0.00000000000E+00  0.00000000000E+00  0.41216284767E+03  0.41216284767E+03  0.00000000000E+00 0. -1.
         21   -1    0    0  501  502  0.00000000000E+00 -0.00000000000E+00 -0.93448182271E+02  0.93448182271E+02  0.00000000000E+00 0.  1.
         23    2    1    2    0    0  0.32955690716E+02 -0.31303436548E+02  0.34073447512E+03  0.35668897600E+03  0.95189602247E+02 0.  0.
         23    2    1    2    0    0 -0.51414659255E+02  0.50108610842E+02 -0.28171830049E+01  0.11631670204E+03  0.91472939097E+02 0.  0.
        -11    1    4    4    0    0 -0.71007516487E+02  0.57537072795E+02 -0.14170943464E+02  0.92484581321E+02  0.00000000000E+00 0.  1.
         11    1    4    4    0    0  0.19592857232E+02 -0.74284619535E+01  0.11353760459E+02  0.23832120721E+02  0.00000000000E+00 0. -1.
        -13    1    3    3    0    0  0.30890238940E+02  0.28702815271E+02  0.98930922343E+02  0.10754248399E+03  0.00000000000E+00 0.  1.
         13    1    3    3    0    0  0.20654517767E+01 -0.60006251819E+02  0.24180355278E+03  0.24914649202E+03  0.00000000000E+00 0. -1.
          1    1    1    2  501    0  0.18458968538E+02 -0.18805174294E+02 -0.19202626714E+02  0.32605351899E+02  0.00000000000E+00 0. -1.
<scales pt_clust_5="13000.00000" pt_clust_6="13000.00000" pt_clust_7="13000.00000" pt_clust_8="13000.00000" pt_clust_9="26.35087"></scales>
<clustering>
<clus scale="   26.351">  2  9  1 -1</clus>
<clus scale="   91.473">  5  6 -1 -1</clus>
<clus scale="   95.190">  7  8 -1 -1</clus>
<clus scale="  103.565">  2  5  1 -1</clus>
<clus scale="   26.351">  2  5  1 -1</clus>
</clustering>
</event>
<event>
 9    1  0.1636528E-005  0.1834821E+03  0.7546771E-02  0.1165186E+00
         21   -1    0    0  501  502  0.00000000000E+00  0.00000000000E+00  0.30323631921E+03  0.30323631921E+03  0.00000000000E+00 0. -1.
         -1   -1    0    0    0  501 -0.00000000000E+00 -0.00000000000E+00 -0.14286757690E+03  0.14286757690E+03  0.00000000000E+00 0.  1.
         23    2    1    2    0    0  0.14259694951E+03  0.60111481706E+02  0.21855699910E+02  0.18198157709E+03  0.93232733198E+02 0.  0.
         23    2    1    2    0    0 -0.15859788232E+03 -0.40460595290E+02  0.83177816867E+02  0.20326039025E+03  0.87211747944E+02 0.  0.
        -11    1    3    3    0    0  0.61470695699E+02 -0.19608973883E+02 -0.62375741064E+01  0.64823341608E+02  0.00000000000E+00 0. -1.
         11    1    3    3    0    0  0.81126253812E+02  0.79720455589E+02  0.28093274017E+02  0.11715823548E+03  0.00000000000E+00 0.  1.
        -13    1    4    4    0    0 -0.14822937949E+03 -0.19173480324E+02  0.41156436902E+02  0.15502717049E+03  0.00000000000E+00 0.  1.
         13    1    4    4    0    0 -0.10368502829E+02 -0.21287114966E+02  0.42021379966E+02  0.48233219763E+02  0.00000000000E+00 0. -1.
         -1    1    1    2    0  502  0.16000932805E+02 -0.19650886416E+02  0.55335225535E+02  0.60861928762E+02  0.00000000000E+00 0.  1.
<scales pt_clust_5="13000.00000" pt_clust_6="13000.00000" pt_clust_7="13000.00000" pt_clust_8="13000.00000" pt_clust_9="25.34141"></scales>
<clustering>
<clus scale="   25.341">  1  9  2 -1</clus>
<clus scale="   87.212">  7  8 -1 -1</clus>
<clus scale="   93.233">  5  6 -1 -1</clus>
<clus scale="  180.497">  1  7  2 -1</clus>
<clus scale="   25.341">  1  5  2 -1</clus>
</clustering>
</event>
<event>
 9    1  0.1636528E-005  0.9393980E+02  0.7546771E-02  0.1293605E+00
          1   -1    0    0  502    0 -0.00000000000E+00  0.00000000000E+00  0.42435834667E+03  0.42435834667E+03  0.00000000000E+00 0. -1.
         21   -1    0    0  501  502  0.00000000000E+00 -0.00000000000E+00 -0.46784029053E+02  0.46784029053E+02  0.00000000000E+00 0. -1.
         23    2    1    2    0    0 -0.33239063729E+02  0.21691464350E+02  0.23143548475E+03  0.25178422850E+03  0.90871112784E+02 0.  0.
         23    2    1    2    0    0 -0.20958014509E+02 -0.19473201010E+02  0.13294792357E+03  0.16353481814E+03  0.90829744206E+02 0.  0.
        -11    1    4    4    0    0 -0.20832918700E+02  0.34004677359E+02  0.73134079080E+02  0.83300192718E+02  0.00000000000E+00 0. -1.
         11    1    4    4    0    0 -0.12509580902E+00 -0.53477878369E+02  0.59813844486E+02  0.80234625418E+02  0.00000000000E+00 0.  1.
        -11    1    3    3    0    0  0.51481069904E+01  0.49595201797E+02  0.14261743913E+03  0.15108249730E+03  0.00000000000E+00 0. -1.
         11    1    3    3    0    0 -0.38387170719E+02 -0.27903737448E+02  0.88818045622E+02  0.10070173120E+03  0.00000000000E+00 0.  1.
          1    1    1    2  501    0  0.54197078238E+02 -0.22182633400E+01  0.13190909300E+02  0.55823329083E+02  0.00000000000E+00 0. -1.
<scales pt_clust_5="13000.00000" pt_clust_6="13000.00000" pt_clust_7="13000.00000" pt_clust_8="13000.00000" pt_clust_9="54.24246"></scales>
<clustering>
<clus scale="   54.242">  2  9  1 -1</clus>
<clus scale="   90.830">  5  6 -1 -1</clus>
<clus scale="   90.871">  7  8 -1 -1</clus>
<clus scale="   93.900">  2  5  1 -1</clus>
<clus scale="   54.242">  2  5  1 -1</clus>
</clustering>
</event>
<event>
 9    1  0.1636528E-005  0.1582915E+03  0.7546771E-02  0.1190762E+00
         -1   -1    0    0    0  501 -0.00000000000E+00  0.00000000000E+00  0.83151867507E+02  0.83151867507E+02  0.00000000000E+00 0.  1.
         21   -1    0    0  501  502  0.00000000000E+00 -0.00000000000E+00 -0.71444266806E+03  0.71444266806E+03  0.00000000000E+00 0. -1.
         23    2    1    2    0    0  0.12249250592E+03 -0.35046882469E+02 -0.25806217444E+02  0.15851012643E+03  0.90701716334E+02 0.  0.
         23    2    1    2    0    0 -0.12983341922E+03  0.57127095826E+02 -0.42307386015E+03  0.45519559305E+03  0.89951736868E+02 0.  0.
        -11    1    3    3    0    0  0.94474240635E+02 -0.46841651484E+02 -0.52733351697E+02  0.11789965580E+03  0.00000000000E+00 0.  1.
         11    1    3    3    0    0  0.28018265286E+02  0.11794769016E+02  0.26927134253E+02  0.40610470631E+02  0.00000000000E+00 0. -1.
        -13    1    4    4    0    0 -0.17023222558E+02  0.43401815978E+02 -0.68534813279E+02  0.82888650415E+02  0.00000000000E+00 0.  1.
         13    1    4    4    0    0 -0.11281019666E+03  0.13725279849E+02 -0.35453904687E+03  0.37230694263E+03  0.00000000000E+00 0. -1.
         -1    1    1    2    0  502  0.73409132990E+01 -0.22080213358E+02 -0.18241072296E+03  0.18388881609E+03  0.00000000000E+00 0.  1.
<scales pt_clust_5="13000.00000" pt_clust_6="13000.00000" pt_clust_7="13000.00000" pt_clust_8="13000.00000" pt_clust_9="23.26854"></scales>
<clustering>
<clus scale="   23.269">  2  9  1 -1</clus>
<clus scale="   89.952">  7  8 -1 -1</clus>
<clus scale="   90.702">  5  6 -1 -1</clus>
<clus scale="  157.863">  2  7  1 -1</clus>
<clus scale="   23.269">  2  5  1 -1</clus>
</clustering>
</event>
<event>
 9    1  0.1636528E-005  0.1709535E+03  0.7546771E-02  0.1178368E+00
          1   -1    0    0  502    0 -0.00000000000E+00  0.00000000000E+00  0.69129850759E+03  0.69129850759E+03  0.00000000000E+00 0. -1.
         21   -1    0    0  501  502  0.00000000000E+00 -0.00000000000E+00 -0.18125638507E+03  0.18125638507E+03  0.00000000000E+00 0. -1.
         23    2    1    2    0    0 -0.56542987978E+02 -0.11899275801E+03  0.44217425180E+03  0.46895308543E+03  0.83919851213E+02 0.  0.
         23    2    1    2    0    0  0.12152237101E+03  0.21729681206E+03 -0.24339132773E+01  0.26638537930E+03  0.94708263555E+02 0.  0.
        -11    1    4    4    0    0  0.36731870175E+02  0.78223774522E+02  0.44052539280E+02  0.96999048470E+02  0.00000000000E+00 0.  1.
         11    1    4    4    0    0  0.84790500834E+02  0.13907303753E+03 -0.46486452558E+02  0.16938633083E+03  0.00000000000E+00 0. -1.
        -13    1    3    3    0    0 -0.42637370467E+02 -0.63264730168E+02  0.36421842012E+03  0.37212286815E+03  0.00000000000E+00 0. -1.
         13    1    3    3    0    0 -0.13905617510E+02 -0.55728027839E+02  0.77955831680E+02  0.96830217277E+02  0.00000000000E+00 0.  1.
          1    1    1    2  501    0 -0.64979383031E+02 -0.98304054049E+02  0.70301784001E+02  0.13721642794E+03  0.00000000000E+00 0. -1.
<scales pt_clust_5="13000.00000" pt_clust_6="13000.00000" pt_clust_7="13000.00000" pt_clust_8="13000.00000" pt_clust_9="117.83890"></scales>
<clustering>
<clus scale="   83.920">  7  8 -1 -1</clus>
<clus scale="   94.708">  5  6 -1 -1</clus>
<clus scale="  117.839">  2  9  1 -1</clus>
<clus scale="  165.221">  1  7  2 -1</clus>
<clus scale="  117.839">  2  5  1 -1</clus>
</clustering>
</event>
<event>
 9    1  0.1636528E-005  0.1164506E+03  0.7546771E-02  0.1249971E+00
         21   -1    0    0  501  502  0.00000000000E+00  0.00000000000E+00  0.44260116118E+02  0.44260116118E+02  0.00000000000E+00 0.  1.
          1   -1    0    0  502    0 -0.00000000000E+00 -0.00000000000E+00 -0.68388664584E+03  0.68388664584E+03  0.00000000000E+00 0. -1.
         23    2    1    2    0    0 -0.67510672258E+02 -0.38565700710E+00 -0.52097984883E+03  0.53329187438E+03  0.91773529877E+02 0.  0.
         23    2    1    2    0    0  0.70478328300E+02 -0.30291464784E+02 -0.10677604286E+03  0.16182755298E+03  0.94351820200E+02 0.  0.
        -11    1    4    4    0    0  0.64149109007E+02 -0.60150154855E+02 -0.61836843382E+02  0.10750323025E+03  0.00000000000E+00 0.  1.
         11    1    4    4    0    0  0.63292192931E+01  0.29858690071E+02 -0.44939199483E+02  0.54324322727E+02  0.00000000000E+00 0. -1.
        -13    1    3    3    0    0 -0.15791495756E+02  0.40090959714E+02 -0.13337875058E+03  0.14016614247E+03  0.00000000000E+00 0.  1.
         13    1    3    3    0    0 -0.51719176502E+02 -0.40476616721E+02 -0.38760109825E+03  0.39312573190E+03  0.00000000000E+00 0. -1.
          1    1    1    2  501    0 -0.29676560425E+01  0.30677121791E+02 -0.11870638024E+02  0.33027334601E+02  0.00000000000E+00 0. -1.
<scales pt_clust_5="13000.00000" pt_clust_6="13000.00000" pt_clust_7="13000.00000" pt_clust_8="13000.00000" pt_clust_9="30.82033"></scales>
<clustering>
<clus scale="   30.820">  1  9  2 -1</clus>
<clus scale="   91.774">  7  8 -1 -1</clus>
<clus scale="   94.352">  5  6 -1 -1</clus>
<clus scale="  114.372">  2  7  1 -1</clus>
<clus scale="   30.820">  1  5  2 -1</clus>
</clustering>
</event>
<event>
 9    1  0.1636528E-005  0.9969672E+02  0.7546771E-02  0.1281617E+00
         21   -1    0    0  501  502  0.00000000000E+00  0.00000000000E+00  0.19931027967E+03  0.19931027967E+03  0.00000000000E+00 0. -1.
         -4   -1    0    0    0  501 -0.00000000000E+00 -0.00000000000E+00 -0.81227975204E+02  0.81227975204E+02  0.00000000000E+00 0.  1.
         23    2    1    2    0    0  0.21266258290E+02 -0.14791975795E+02  0.19319573907E+02  0.95338009911E+02  0.89694113008E+02 0.  0.
         23    2    1    2    0    0 -0.45093866896E+02  0.50659038785E+02  0.73348212769E+02  0.13519925643E+03  0.91099306155E+02 0.  0.
        -13    1    4    4    0    0 -0.17017291043E+02  0.46047401347E+02 -0.73440656004E+01  0.49637552969E+02  0.00000000000E+00 0.  1.
         13    1    4    4    0    0 -0.28076575853E+02  0.46116374385E+01  0.80692278369E+02  0.85561703466E+02  0.00000000000E+00 0. -1.
        -13    1    3    3    0    0 -0.14870785919E+01  0.23370150387E+02 -0.23824849569E+02  0.33406568049E+02  0.00000000000E+00 0.  1.
         13    1    3    3    0    0  0.22753336881E+02 -0.38162126182E+02  0.43144423476E+02  0.61931441862E+02  0.00000000000E+00 0. -1.
         -4    1    1    2    0  502  0.23827608607E+02 -0.35867062991E+02  0.25414517792E+02  0.50000988531E+02  0.00000000000E+00 0.  1.
<scales pt_clust_5="13000.00000" pt_clust_6="13000.00000" pt_clust_7="13000.00000" pt_clust_8="13000.00000" pt_clust_9="43.06044"></scales>
<clustering>
<clus scale="   43.060">  1  9  2 -1</clus>
<clus scale="   89.694">  7  8 -1 -1</clus>
<clus scale="   91.099">  5  6 -1 -1</clus>
<clus scale="   98.414">  2  7  1 -1</clus>
<clus scale="   43.060">  1  5  2 -1</clus>
</clustering>
</event>
<event>
 9    1  0.1636528E-005  0.1965486E+03  0.7546771E-02  0.1152833E+00
         -3   -1    0    0    0  501 -0.00000000000E+00  0.00000000000E+00  0.44015292684E+03  0.44015292684E+03  0.00000000000E+00 0.  1.
         21   -1    0    0  501  502  0.00000000000E+00 -0.00000000000E+00 -0.31151243075E+03  0.31151243075E+03  0.00000000000E+00 0.  1.
         23    2    1    2    0    0 -0.16683605308E+03 -0.49536827072E+02  0.21905532914E+03  0.29488567594E+03  0.93188834148E+02 0.  0.
         23    2    1    2    0    0  0.17213799754E+03  0.10213922990E+02  0.12807157820E+03  0.23471952470E+03  0.94631452021E+02 0.  0.
        -11    1    3    3    0    0 -0.55286789071E+02 -0.64125742683E+02  0.10139779299E+03  0.13209940326E+03  0.00000000000E+00 0.  1.
         11    1    3    3    0    0 -0.11154926401E+03  0.14588915611E+02  0.11765753615E+03  0.16278627268E+03  0.00000000000E+00 0. -1.
        -11    1    4    4    0    0  0.12740352836E+03 -0.22867047415E+02  0.12348375970E+03  0.17889326373E+03  0.00000000000E+00 0. -1.
         11    1    4    4    0    0  0.44734469173E+02  0.33080970406E+02  0.45878185013E+01  0.55826260969E+02  0.00000000000E+00 0.  1.
         -3    1    1    2    0  502 -0.53019444539E+01  0.39322904082E+02 -0.21848641125E+03  0.22206015694E+03  0.00000000000E+00 0.  1.
<scales pt_clust_5="13000.00000" pt_clust_6="13000.00000" pt_clust_7="13000.00000" pt_clust_8="13000.00000" pt_clust_9="39.67873"></scales>
<clustering>
<clus scale="   39.679">  2  9  1 -1</clus>
<clus scale="   93.189">  5  6 -1 -1</clus>
<clus scale="   94.631">  7  8 -1 -1</clus>
<clus scale="  195.858">  1  5  2 -1</clus>
<clus scale="   39.679">  2  5  1 -1</clus>
</clustering>
</event>
<event>
 9    1  0.1636528E-005  0.1019727E+03  0.7546771E-02  0.1276287E+00
          1   -1    0    0  502    0 -0.00000000000E+00  0.00000000000E+00  0.25136440271E+03  0.25136440271E+03  0.00000000000E+00 0. -1.
         21   -1    0    0  501  502  0.00000000000E+00 -0.00000000000E+00 -0.83650685466E+02  0.83650685466E+02  0.00000000000E+00 0. -1.
         23    2    1    2    0    0 -0.49701891707E+02 -0.16431165095E+02  0.15968162129E+03  0.19157091064E+03  0.91983326736E+02 0.  0.
         23    2    1    2    0    0  0.20577523371E+02  0.20468832818E+02  0.36072776236E+02  0.10281399982E+03  0.91799051127E+02 0.  0.
        -11    1    4    4    0    0 -0.20849240328E+02  0.42941085723E+02  0.93710822419E+01  0.48646118526E+02  0.00000000000E+00 0. -1.
         11    1    4    4    0    0  0.41426763700E+02 -0.22472252905E+02  0.26701693994E+02  0.54167881290E+02  0.00000000000E+00 0.  1.
        -11    1    3    3    0    0  0.21916194015E+02 -0.21175924414E+02  0.72500895320E+02  0.78645528525E+02  0.00000000000E+00 0.  1.
         11    1    3    3    0    0 -0.71618085722E+02  0.47447593182E+01  0.87180725973E+02  0.11292538211E+03  0.00000000000E+00 0. -1.
          1    1    1    2  501    0  0.29124368336E+02 -0.40376677224E+01 -0.28040680282E+02  0.40630177728E+02  0.00000000000E+00 0. -1.
<scales pt_clust_5="13000.00000" pt_clust_6="13000.00000" pt_clust_7="13000.00000" pt_clust_8="13000.00000" pt_clust_9="29.40292"></scales>
<clustering>
<clus scale="   29.403">  2  9  1 -1</clus>
<clus scale="   91.799">  5  6 -1 -1</clus>
<clus scale="   91.983">  7  8 -1 -1</clus>
<clus scale="  101.807">  2  5  1 -1</clus>
<clus scale="   29.403">  2  5  1 -1</clus>
</clustering>
</event>
<event>
 9    1  0.1636528E-005  0.1016230E+03  0.7546771E-02  0.1280267E+00
         21   -1    0    0  501  502  0.00000000000E+00  0.00000000000E+00  0.26110706408E+03  0.26110706408E+03  0.00000000000E+00 0. -1.
         -2   -1    0    0    0  501 -0.00000000000E+00 -0.00000000000E+00 -0.97188791489E+02  0.97188791489E+02  0.00000000000E+00 0.  1.
         23    2    1    2    0    0  0.40084660414E+02  0.32251846202E+02 -0.18816454991E+02  0.10323296887E+03  0.87498715986E+02 0.  0.
         23    2    1    2    0    0 -0.12095872604E+02 -0.10889683102E+02  0.32980383139E+02  0.10122505671E+03  0.94307534706E+02 0.  0.
        -11    1    3    3    0    0  0.99619888151E+01  0.39575873703E+02  0.26257348902E+02  0.48527717563E+02  0.00000000000E+00 0. -1.
         11    1    3    3    0    0  0.30122671599E+02 -0.73240275007E+01 -0.45073803893E+02  0.54705251306E+02  0.00000000000E+00 0.  1.
        -13    1    4    4    0    0 -0.37464872862E+02 -0.38599920336E+02  0.43071086366E+01  0.53964078175E+02  0.00000000000E+00 0. -1.
         13    1    4    4    0    0  0.25369000258E+02  0.27710237234E+02  0.28673274502E+02  0.47260978537E+02  0.00000000000E+00 0.  1.
         -2    1    1    2    0  502 -0.27988787810E+02 -0.21362163100E+02  0.14975434444E+03  0.15383782998E+03  0.00000000000E+00 0.  1.
<scales pt_clust_5="13000.00000" pt_clust_6="13000.00000" pt_clust_7="13000.00000" pt_clust_8="13000.00000" pt_clust_9="35.20958"></scales>
<clustering>
<clus scale="   35.210">  1  9  2 -1</clus>
<clus scale="   87.499">  5  6 -1 -1</clus>
<clus scale="   94.308">  7  8 -1 -1</clus>
<clus scale="   95.338">  2  5  1 -1</clus>
<clus scale="   35.210">  1  5  2 -1</clus>
</clustering>
</event>
<event>
 9    1  0.1636528E-005  0.1054254E+03  0.7546771E-02  0.1269632E+00
         21   -1    0    0  501  502  0.00000000000E+00  0.00000000000E+00  0.16706837655E+03  0.16706837655E+03  0.00000000000E+00 0.  1.
         -1   -1    0    0    0  501 -0.00000000000E+00 -0.00000000000E+00 -0.11136854699E+03  0.11136854699E+03  0.00000000000E+00 0.  1.
         23    2    1    2    0    0  0.23063643654E+02  0.35263947757E+02 -0.93912762842E+01  0.10096172364E+03  0.91266619861E+02 0.  0.
         23    2    1    2    0    0 -0.17663158143E+01 -0.75648262625E+02  0.51554646464E+02  0.12985477578E+03  0.92079322923E+02 0.  0.
        -11    1    4    4    0    0  0.16187251237E+02 -0.92889958870E+02  0.40648940474E+02  0.10267866343E+03  0.00000000000E+00 0.  1.
         11    1    4    4    0    0 -0.17953567051E+02  0.17241696245E+02  0.10905705990E+02  0.27176112349E+02  0.00000000000E+00 0. -1.
        -11    1    3    3    0    0  0.49628048083E+02 -0.50386834397E+01  0.61287494624E+01  0.50258263572E+02  0.00000000000E+00 0.  1.
         11    1    3    3    0    0 -0.26564404429E+02  0.40302631197E+02 -0.15520025747E+02  0.50703460072E+02  0.00000000000E+00 0. -1.
         -1    1    1    2    0  502 -0.21297327839E+02  0.40384314868E+02  0.13536459382E+02  0.47620424117E+02  0.00000000000E+00 0.  1.
<scales pt_clust_5="13000.00000" pt_clust_6="13000.00000" pt_clust_7="13000.00000" pt_clust_8="13000.00000" pt_clust_9="45.65599"></scales>
<clustering>
<clus scale="   45.656">  1  9  2 -1</clus>
<clus scale="   91.267">  7  8 -1 -1</clus>
<clus scale="   92.079">  5  6 -1 -1</clus>
<clus scale="  104.716">  2  7  1 -1</clus>
<clus scale="   45.656">  1  5  2 -1</clus>
</clustering>
</event>
<event>
 9    1  0.1636528E-005  0.1031428E+03  0.7546771E-02  0.1275091E+00
         21   -1    0    0  501  502  0.00000000000E+00  0.00000000000E+00  0.23089793575E+03  0.23089793575E+03  0.00000000000E+00 0. -1.
          1   -1    0    0  502    0 -0.00000000000E+00 -0.00000000000E+00 -0.19421116325E+03  0.19421116325E+03  0.00000000000E+00 0. -1.
         23    2    1    2    0    0  0.46195486085E+02  0.10990209613E+02 -0.13262583841E+03  0.16813483850E+03  0.91787271789E+02 0.  0.
         23    2    1    2    0    0 -0.22974473413E+02  0.16059700813E+01  0.12635204666E+02  0.98085340821E+02  0.94502275732E+02 0.  0.
        -13    1    4    4    0    0 -0.41244261404E+02  0.37633612786E+02  0.14369322222E+02  0.57652886582E+02  0.00000000000E+00 0. -1.
         13    1    4    4    0    0  0.18269787991E+02 -0.36027642705E+02 -0.17341175559E+01  0.40432454239E+02  0.00000000000E+00 0.  1.
        -13    1    3    3    0    0 -0.22740796423E+02 -0.15601404473E+02 -0.22876803828E+02  0.35831491692E+02  0.00000000000E+00 0.  1.
         13    1    3    3    0    0  0.68936282509E+02  0.26591614086E+02 -0.10974903458E+03  0.13230334681E+03  0.00000000000E+00 0. -1.
          1    1    1    2  501    0 -0.23221012672E+02 -0.12596179694E+02  0.15667740623E+03  0.15888891968E+03  0.00000000000E+00 0. -1.
<scales pt_clust_5="13000.00000" pt_clust_6="13000.00000" pt_clust_7="13000.00000" pt_clust_8="13000.00000" pt_clust_9="26.41740"></scales>
<clustering>
<clus scale="   26.417">  1  9  2 -1</clus>
<clus scale="   91.787">  7  8 -1 -1</clus>
<clus scale="   94.502">  5  6 -1 -1</clus>
<clus scale="  100.661">  2  7  1 -1</clus>
<clus scale="   26.417">  1  5  2 -1</clus>
</clustering>
</event>
<event>
 9    1  0.1636528E-005  0.3096233E+03  0.7546771E-02  0.1081437E+00
         21   -1    0    0  501  502  0.00000000000E+00  0.00000000000E+00  0.40490816584E+03  0.40490816584E+03  0.00000000000E+00 0.  1.
          1   -1    0    0  502    0 -0.00000000000E+00 -0.00000000000E+00 -0.39429546754E+03  0.39429546754E+03  0.00000000000E+00 0. -1.
         23    2    1    2    0    0  0.10375765342E+03 -0.25662004272E+03 -0.15150500568E+03  0.33532785011E+03  0.11345264803E+03 0.  0.
         23    2    1    2    0    0 -0.13481004349E+03  0.27932623548E+03  0.28123491391E+02  0.32446892861E+03  0.91061853775E+02 0.  0.
        -11    1    4    4    0    0 -0.11175810936E+03  0.27739450431E+03  0.32844577228E+02  0.30085935631E+03  0.00000000000E+00 0.  1.
         11    1    4    4    0    0 -0.23051934137E+02  0.19317311726E+01 -0.47210858366E+01  0.23609572301E+02  0.00000000000E+00 0. -1.
        -13    1    3    3    0    0 -0.22982519119E+02 -0.22927624967E+02 -0.89694877083E+01  0.33679725080E+02  0.00000000000E+00 0.  1.
         13    1    3    3    0    0  0.12674017254E+03 -0.23369241775E+03 -0.14253551797E+03  0.30164812503E+03  0.00000000000E+00 0. -1.
          1    1    1    2  501    0  0.31052390070E+02 -0.22706192762E+02  0.13399421259E+03  0.13940685466E+03  0.00000000000E+00 0. -1.
<scales pt_clust_5="13000.00000" pt_clust_6="13000.00000" pt_clust_7="13000.00000" pt_clust_8="13000.00000" pt_clust_9="38.46846"></scales>
<clustering>
<clus scale="   38.468">  1  9  2 -1</clus>
<clus scale="   91.062">  5  6 -1 -1</clus>
<clus scale="  113.453">  7  8 -1 -1</clus>
<clus scale="  302.138">  1  5  2 -1</clus>
<clus scale="   38.468">  1  5  2 -1</clus>
</clustering>
</event>
<event>
 9    1  0.1636528E-005  0.1102573E+03  0.7546771E-02  0.1260412E+00
         21   -1    0    0  501  502  0.00000000000E+00  0.00000000000E+00  0.10484199373E+03  0.10484199373E+03  0.00000000000E+00 0.  1.
         -1   -1    0    0    0  501 -0.00000000000E+00 -0.00000000000E+00 -0.26222437025E+03  0.26222437025E+03  0.00000000000E+00 0.  1.
         23    2    1    2    0    0  0.55530546498E+02 -0.46778019321E+02 -0.10887101459E+03  0.16130180106E+03  0.94305612357E+02 0.  0.
         23    2    1    2    0    0  0.20492633839E+02  0.47274440049E+02  0.13563728661E+02  0.10761627076E+03  0.93501156535E+02 0.  0.
        -13    1    4    4    0    0 -0.29830121611E+02 -0.68408791094E+01 -0.59683571532E+01  0.31181004946E+02  0.00000000000E+00 0. -1.
         13    1    4    4    0    0  0.50322755451E+02  0.54115319158E+02  0.19532085815E+02  0.76435265814E+02  0.00000000000E+00 0.  1.
        -13    1    3    3    0    0  0.66078886108E+02 -0.65327264801E+02 -0.10390527405E+03  0.13939288609E+03  0.00000000000E+00 0.  1.
         13    1    3    3    0    0 -0.10548339611E+02  0.18549245480E+02 -0.49657405447E+01  0.21908914980E+02  0.00000000000E+00 0. -1.
         -1    1    1    2    0  502 -0.76023180337E+02 -0.49642072807E+00 -0.62075090586E+02  0.98148292157E+02  0.00000000000E+00 0.  1.
<scales pt_clust_5="13000.00000" pt_clust_6="13000.00000" pt_clust_7="13000.00000" pt_clust_8="13000.00000" pt_clust_9="76.02484"></scales>
<clustering>
<clus scale="   76.025">  1  9  2 -1</clus>
<clus scale="   93.501">  5  6 -1 -1</clus>
<clus scale="   94.306">  7  8 -1 -1</clus>
<clus scale="  109.570">  1  5  2 -1</clus>
<clus scale="   76.025">  1  5  2 -1</clus>
</clustering>
</event>
<event>
 9    1  0.1636528E-005  0.9722574E+02  0.7546771E-02  0.1286308E+00
          1   -1    0    0  502    0 -0.00000000000E+00  0.00000000000E+00  0.11807060500E+03  0.11807060500E+03  0.00000000000E+00 0. -1.
         21   -1    0    0  501  502  0.00000000000E+00 -0.00000000000E+00 -0.29817969306E+03  0.29817969306E+03  0.00000000000E+00 0. -1.
         23    2    1    2    0    0 -0.21190296725E+02  0.15853607425E+02  0.50920276083E+02  0.10818609487E+03  0.91711455466E+02 0.  0.
         23    2    1    2    0    0  0.13778871997E+02 -0.53478115554E+02 -0.41530259739E+02  0.11472397613E+03  0.91580904501E+02 0.  0.
        -11    1    4    4    0    0  0.37900408594E+02  0.31284222519E+01 -0.36947084512E+02  0.53021835609E+02  0.00000000000E+00 0.  1.
         11    1    4    4    0    0 -0.24121536597E+02 -0.56606537806E+02 -0.45831752267E+01  0.61702140525E+02  0.00000000000E+00 0. -1.
        -13    1    3    3    0    0  0.34233575408E+02 -0.13873981903E+01  0.32669323814E+02  0.47340757043E+02  0.00000000000E+00 0.  1.
         13    1    3    3    0    0 -0.55423872133E+02  0.17241005615E+02  0.18250952269E+02  0.60845337829E+02  0.00000000000E+00 0. -1.
          1    1    1    2  501    0  0.74114247279E+01  0.37624508129E+02 -0.18949910440E+03  0.19334022706E+03  0.00000000000E+00 0. -1.
<scales pt_clust_5="13000.00000" pt_clust_6="13000.00000" pt_clust_7="13000.00000" pt_clust_8="13000.00000" pt_clust_9="38.34753"></scales>
<clustering>
<clus scale="   38.348">  2  9  1 -1</clus>
<clus scale="   91.581">  5  6 -1 -1</clus>
<clus scale="   91.711">  7  8 -1 -1</clus>
<clus scale="   97.103">  2  5  1 -1</clus>
<clus scale="   38.348">  2  5  1 -1</clus>
</clustering>
</event>
<event>
 9    1  0.1636528E-005  0.2223845E+03  0.7546771E-02  0.1132251E+00
         21   -1    0    0  501  502  0.00000000000E+00  0.00000000000E+00  0.52257657087E+03  0.52257657087E+03  0.00000000000E+00 0. -1.
         -2   -1    0    0    0  501 -0.00000000000E+00 -0.00000000000E+00 -0.19559265838E+03  0.19559265838E+03  0.00000000000E+00 0.  1.
         23    2    1    2    0    0  0.19463640464E+03  0.30667855571E+02 -0.13749214309E+02  0.21883742651E+03  0.94217466381E+02 0.  0.
         23    2    1    2    0    0 -0.21248922057E+03 -0.57997786686E+02  0.37963657332E+03  0.44854670332E+03  0.92492189606E+02 0.  0.
        -11    1    3    3    0    0  0.13437821125E+03  0.33275849304E+02  0.33249090382E+02  0.14237376099E+03  0.00000000000E+00 0. -1.
         11    1    3    3    0    0  0.60258193393E+02 -0.26079937333E+01 -0.46998304691E+02  0.76463665529E+02  0.00000000000E+00 0.  1.
        -13    1    4    4    0    0 -0.18139842262E+03 -0.22080522994E+02  0.34268352025E+03  0.38836185739E+03  0.00000000000E+00 0. -1.
         13    1    4    4    0    0 -0.31090797956E+02 -0.35917263692E+02  0.36953053068E+02  0.60184845931E+02  0.00000000000E+00 0.  1.
         -2    1    1    2    0  502  0.17852815929E+02  0.27329931115E+02 -0.38903446518E+02  0.50785099412E+02  0.00000000000E+00 0.  1.
<scales pt_clust_5="13000.00000" pt_clust_6="13000.00000" pt_clust_7="13000.00000" pt_clust_8="13000.00000" pt_clust_9="32.64428"></scales>
<clustering>
<clus scale="   32.644">  1  9  2 -1</clus>
<clus scale="   92.492">  7  8 -1 -1</clus>
<clus scale="   94.217">  5  6 -1 -1</clus>
<clus scale="  221.659">  1  7  2 -1</clus>
<clus scale="   32.644">  1  5  2 -1</clus>
</clustering>
</event>
<event>
 9    1  0.1636528E-005  0.1241355E+03  0.7546771E-02  0.1236445E+00
          2   -1    0    0  502    0 -0.00000000000E+00  0.00000000000E+00  0.29779572223E+03  0.29779572223E+03  0.00000000000E+00 0.  1.
         21   -1    0    0  501  502  0.00000000000E+00 -0.00000000000E+00 -0.74064638478E+02  0.74064638478E+02  0.00000000000E+00 0.  1.
         23    2    1    2    0    0 -0.68249810511E+02  0.81355058622E+02  0.13566080348E+03  0.19453912209E+03  0.90360025587E+02 0.  0.
         23    2    1    2    0    0  0.40384454994E+02 -0.46856739646E+02  0.59687447984E+02  0.12466957940E+03  0.90296480134E+02 0.  0.
        -13    1    3    3    0    0  0.72966648255E+01  0.58944103047E+02  0.45662847595E+02  0.74918250461E+02  0.00000000000E+00 0.  1.
         13    1    3    3    0    0 -0.75546475336E+02  0.22410955575E+02  0.89997955887E+02  0.11962087163E+03  0.00000000000E+00 0. -1.
        -13    1    4    4    0    0  0.28875836970E+02  0.23811200422E+02  0.15338271446E+02  0.40448112406E+02  0.00000000000E+00 0.  1.
         13    1    4    4    0    0  0.11508618024E+02 -0.70667940068E+02  0.44349176537E+02  0.84221466989E+02  0.00000000000E+00 0. -1.
          2    1    1    2  501    0  0.27865355517E+02 -0.34498318976E+02  0.28382832288E+02  0.52651659223E+02  0.00000000000E+00 0.  1.
<scales pt_clust_5="13000.00000" pt_clust_6="13000.00000" pt_clust_7="13000.00000" pt_clust_8="13000.00000" pt_clust_9="44.34650"></scales>
<clustering>
<clus scale="   44.346">  2  9  1 -1</clus>
<clus scale="   90.296">  7  8 -1 -1</clus>
<clus scale="   90.360">  5  6 -1 -1</clus>
<clus scale="  124.089">  2  7  1 -1</clus>
<clus scale="   44.346">  2  5  1 -1</clus>
</clustering>
</event>
<event>
 9    1  0.1636528E-005  0.9337555E+02  0.7546771E-02  0.1295659E+00
          4   -1    0    0  502    0 -0.00000000000E+00  0.00000000000E+00  0.21007339269E+03  0.21007339269E+03  0.00000000000E+00 0. -1.
         21   -1    0    0  501  502  0.00000000000E+00 -0.00000000000E+00 -0.17473795644E+03  0.17473795644E+03  0.00000000000E+00 0.  1.
         23    2    1    2    0    0  0.17776194061E+02 -0.10221455098E+02  0.15291457929E+03  0.17997358435E+03  0.92666883422E+02 0.  0.
         23    2    1    2    0    0  0.24265293370E+02 -0.20893312586E+02 -0.27363693081E+02  0.10055716809E+03  0.91310664119E+02 0.  0.
        -11    1    3    3    0    0 -0.21498720571E+02  0.25358252229E+02  0.25250519280E+02  0.41747151594E+02  0.00000000000E+00 0.  1.
         11    1    3    3    0    0  0.39274914633E+02 -0.35579707327E+02  0.12766406001E+03  0.13822643275E+03  0.00000000000E+00 0. -1.
        -13    1    4    4    0    0 -0.19481965278E+02  0.17050440873E+02 -0.33483282255E+02  0.42324870887E+02  0.00000000000E+00 0.  1.
         13    1    4    4    0    0  0.43747258648E+02 -0.37943753459E+02  0.61195891735E+01  0.58232297202E+02  0.00000000000E+00 0. -1.
          4    1    1    2  501    0 -0.42041487431E+02  0.31114767684E+02 -0.90215449965E+02  0.10428059669E+03  0.00000000000E+00 0. -1.
<scales pt_clust_5="13000.00000" pt_clust_6="13000.00000" pt_clust_7="13000.00000" pt_clust_8="13000.00000" pt_clust_9="52.30311"></scales>
<clustering>
<clus scale="   52.303">  2  9  1 -1</clus>
<clus scale="   91.311">  7  8 -1 -1</clus>
<clus scale="   92.030">  2  7  1 -1</clus>
<clus scale="   92.667">  5  6 -1 -1</clus>
<clus scale="   52.303">  2  5  1 -1</clus>
</clustering>
</event>
<event>
 9    1  0.1636528E-005  0.1153143E+03  0.7546771E-02  0.1251168E+00
          1   -1    0    0  502    0 -0.00000000000E+00  0.00000000000E+00  0.17857830877E+03  0.17857830877E+03  0.00000000000E+00 0. -1.
         21   -1    0    0  501  502  0.00000000000E+00 -0.00000000000E+00 -0.16994840834E+03  0.16994840834E+03  0.00000000000E+00 0. -1.
         23    2    1    2    0    0  0.49835976869E+02  0.43377516512E+02  0.97704773643E+02  0.14916280313E+03  0.91313117983E+02 0.  0.
         23    2    1    2    0    0 -0.33406600048E+02 -0.87568922686E+02 -0.62756831510E+02  0.14536906125E+03  0.91702927546E+02 0.  0.
        -11    1    3    3    0    0 -0.22241698898E+02 -0.76892632399E+01  0.13533867164E+02  0.27147440017E+02  0.00000000000E+00 0.  1.
         11    1    3    3    0    0  0.72077675767E+02  0.51066779752E+02  0.84170906478E+02  0.12201536311E+03  0.00000000000E+00 0. -1.
        -13    1    4    4    0    0 -0.64790508057E+02 -0.68870067484E+02 -0.43722616176E+02  0.10417563676E+03  0.00000000000E+00 0. -1.
         13    1    4    4    0    0  0.31383908008E+02 -0.18698855202E+02 -0.19034215334E+02  0.41193424489E+02  0.00000000000E+00 0.  1.
          1    1    1    2  501    0 -0.16429376821E+02  0.44191406174E+02 -0.26318041702E+02  0.53994852731E+02  0.00000000000E+00 0. -1.
<scales pt_clust_5="13000.00000" pt_clust_6="13000.00000" pt_clust_7="13000.00000" pt_clust_8="13000.00000" pt_clust_9="47.14663"></scales>
<clustering>
<clus scale="   47.147">  2  9  1 -1</clus>
<clus scale="   91.313">  5  6 -1 -1</clus>
<clus scale="   91.703">  7  8 -1 -1</clus>
<clus scale="  115.005">  1  5  2 -1</clus>
<clus scale="   47.147">  2  5  1 -1</clus>
</clustering>
</event>
<event>
 9    1  0.1636528E-005  0.9962322E+02  0.7546771E-02  0.1285918E+00
          2   -1    0    0  502    0 -0.00000000000E+00  0.00000000000E+00  0.25471598967E+03  0.25471598967E+03  0.00000000000E+00 0. -1.
         21   -1    0    0  501  502  0.00000000000E+00 -0.00000000000E+00 -0.13023480149E+03  0.13023480149E+03  0.00000000000E+00 0.  1.
         23    2    1    2    0    0 -0.47548413796E+01  0.15340206042E+02  0.12083194293E+03  0.15133253271E+03  0.89684149032E+02 0.  0.
         23    2    1    2    0    0  0.22811823688E+02  0.78694163843E+00  0.95231072438E+02  0.13889038201E+03  0.98491535064E+02 0.  0.
        -11    1    3    3    0    0  0.39244876825E+02 -0.53288026167E+01  0.73456765205E+02  0.83453297410E+02  0.00000000000E+00 0. -1.
         11    1    3    3    0    0 -0.43999718204E+02  0.20669008658E+02  0.47375177724E+02  0.67879235303E+02  0.00000000000E+00 0.  1.
        -11    1    4    4    0    0 -0.18189095573E+02  0.38471015447E+02  0.57865399599E+02  0.71828035599E+02  0.00000000000E+00 0.  1.
         11    1    4    4    0    0  0.41000919262E+02 -0.37684073808E+02  0.37365672839E+02  0.67062346409E+02  0.00000000000E+00 0. -1.
          2    1    1    2  501    0 -0.18056982309E+02 -0.16127147680E+02 -0.91581827190E+02  0.94727876435E+02  0.00000000000E+00 0. -1.
<scales pt_clust_5="13000.00000" pt_clust_6="13000.00000" pt_clust_7="13000.00000" pt_clust_8="13000.00000" pt_clust_9="24.21032"></scales>
<clustering>
<clus scale="   24.210">  2  9  1 -1</clus>
<clus scale="   89.684">  5  6 -1 -1</clus>
<clus scale="   90.926">  1  5  2 -1</clus>
<clus scale="   98.492">  7  8 -1 -1</clus>
<clus scale="   24.210">  2  5  1 -1</clus>
</clustering>
</event>
<event>
 9    1  0.1636528E-005  0.1465809E+03  0.7546771E-02  0.1205245E+00
         21   -1    0    0  501  502  0.00000000000E+00  0.00000000000E+00  0.10088924838E+03  0.10088924838E+03  0.00000000000E+00 0.  1.
         -4   -1    0    0    0  501 -0.00000000000E+00 -0.00000000000E+00 -0.35455544520E+03  0.35455544520E+03  0.00000000000E+00 0.  1.
         23    2    1    2    0    0  0.87334513056E+02 -0.62016374203E+02 -0.12634311834E+03  0.18875607678E+03  0.90514778511E+02 0.  0.
         23    2    1    2    0    0 -0.78097713400E+02  0.98705497670E+02 -0.15625606506E+03  0.21905955046E+03  0.87915303961E+02 0.  0.
        -13    1    3    3    0    0  0.72208968382E+02 -0.80425131758E+02 -0.12448193250E+03  0.16485778251E+03  0.00000000000E+00 0.  1.
         13    1    3    3    0    0  0.15125544674E+02  0.18408757555E+02 -0.18611858374E+01  0.23898294273E+02  0.00000000000E+00 0. -1.
        -13    1    4    4    0    0 -0.45434665251E+02  0.10319180790E+03 -0.14612563546E+03  0.18456857631E+03  0.00000000000E+00 0.  1.
         13    1    4    4    0    0 -0.32663048149E+02 -0.44863102255E+01 -0.10130429602E+02  0.34490974149E+02  0.00000000000E+00 0. -1.
         -4    1    1    2    0  502 -0.92367996567E+01 -0.36689123467E+02  0.28932986572E+02  0.47629066342E+02  0.00000000000E+00 0.  1.
<scales pt_clust_5="13000.00000" pt_clust_6="13000.00000" pt_clust_7="13000.00000" pt_clust_8="13000.00000" pt_clust_9="37.83398"></scales>
<clustering>
<clus scale="   37.834">  1  9  2 -1</clus>
<clus scale="   87.915">  7  8 -1 -1</clus>
<clus scale="   90.515">  5  6 -1 -1</clus>
<clus scale="  144.990">  1  7  2 -1</clus>
<clus scale="   37.834">  1  5  2 -1</clus>
</clustering>
</event>
<event>
 9    1  0.1636528E-005  0.1741184E+03  0.7546771E-02  0.1186658E+00
          3   -1    0    0  502    0 -0.00000000000E+00  0.00000000000E+00  0.48935269052E+03  0.48935269052E+03  0.00000000000E+00 0. -1.
         21   -1    0    0  501  502  0.00000000000E+00 -0.00000000000E+00 -0.17396862598E+03  0.17396862598E+03  0.00000000000E+00 0. -1.
         23    2    1    2    0    0  0.21269931982E+02 -0.88728742618E+02  0.12188488473E+03  0.17812447057E+03  0.92451079599E+02 0.  0.
         23    2    1    2    0    0  0.13194931948E+03  0.66137257690E+02  0.26408421154E+03  0.31499472811E+03  0.87729403190E+02 0.  0.
        -11    1    4    4    0    0  0.65308060162E+02  0.78491155042E+02  0.13577689982E+03  0.16988634633E+03  0.00000000000E+00 0. -1.
         11    1    4    4    0    0  0.66641259314E+02 -0.12353897353E+02  0.12830731172E+03  0.14510838178E+03  0.00000000000E+00 0.  1.
        -13    1    3    3    0    0  0.62218544458E+01 -0.73392992208E+02  0.23341803948E+02  0.77266309538E+02  0.00000000000E+00 0. -1.
         13    1    3    3    0    0  0.15048077536E+02 -0.15335750410E+02  0.98543080778E+02  0.10085816104E+03  0.00000000000E+00 0.  1.
          3    1    1    2  501    0 -0.15321925146E+03  0.22591484928E+02 -0.70585031719E+02  0.17020211782E+03  0.00000000000E+00 0. -1.
<scales pt_clust_5="13000.00000" pt_clust_6="13000.00000" pt_clust_7="13000.00000" pt_clust_8="13000.00000" pt_clust_9="150.40197"></scales>
<clustering>
<clus scale="   87.729">  5  6 -1 -1</clus>
<clus scale="   92.451">  7  8 -1 -1</clus>
<clus scale="  129.894">  1  7  2 -1</clus>
<clus scale="  150.402">  2  9  1 -1</clus>
<clus scale="  150.402">  2  5  1 -1</clus>
</clustering>
</event>
<event>
 9    1  0.1636528E-005  0.3416459E+03  0.7546771E-02  0.1066229E+00
          2   -1    0    0  502    0 -0.00000000000E+00  0.00000000000E+00  0.94376928964E+03  0.94376928964E+03  0.00000000000E+00 0. -1.
         21   -1    0    0  501  502  0.00000000000E+00 -0.00000000000E+00 -0.23454763733E+03  0.23454763733E+03  0.00000000000E+00 0. -1.
         23    2    1    2    0    0 -0.22703977742E+03  0.25773014168E+03  0.52820810731E+03  0.63674347864E+03  0.92013947317E+02 0.  0.
         23    2    1    2    0    0  0.19084495953E+03 -0.24435037385E+03  0.28535667244E+03  0.43032340891E+03  0.87297777601E+02 0.  0.
        -11    1    4    4    0    0  0.12941781256E+03 -0.95874362413E+02  0.13268572128E+03  0.20867765622E+03  0.00000000000E+00 0.  1.
         11    1    4    4    0    0  0.61427146971E+02 -0.14847601143E+03  0.15267095116E+03  0.22164575268E+03  0.00000000000E+00 0. -1.
        -13    1    3    3    0    0 -0.83269242321E+02  0.84087172260E+02  0.26477473140E+03  0.29001737472E+03  0.00000000000E+00 0.  1.
         13    1    3    3    0    0 -0.14377053510E+03  0.17364296942E+03  0.26343337591E+03  0.34672610391E+03  0.00000000000E+00 0. -1.
          2    1    1    2  501    0  0.36194817896E+02 -0.13379767831E+02 -0.10434312743E+03  0.11125003942E+03  0.00000000000E+00 0. -1.
<scales pt_clust_5="13000.00000" pt_clust_6="13000.00000" pt_clust_7="13000.00000" pt_clust_8="13000.00000" pt_clust_9="38.58864"></scales>
<clustering>
<clus scale="   38.589">  2  9  1 -1</clus>
<clus scale="   87.298">  5  6 -1 -1</clus>
<clus scale="   92.014">  7  8 -1 -1</clus>
<clus scale="  340.406">  2  5  1 -1</clus>
<clus scale="   38.589">  2  5  1 -1</clus>
</clustering>
</event>
<event>
 9    1  0.1636528E-005  0.1141844E+03  0.7546771E-02  0.1253076E+00
          2   -1    0    0  502    0 -0.00000000000E+00  0.00000000000E+00  0.11465110525E+03  0.11465110525E+03  0.00000000000E+00 0. -1.
         21   -1    0    0  501  502  0.00000000000E+00 -0.00000000000E+00 -0.42021902651E+03  0.42021902651E+03  0.00000000000E+00 0. -1.
         23    2    1    2    0    0 -0.70843171880E+02  0.29340929985E+02  0.41047204543E+02  0.12599296647E+03  0.91157607601E+02 0.  0.
         23    2    1    2    0    0  0.55908324959E+02  0.64092491593E+01 -0.66202272218E+02  0.12580033222E+03  0.90973421755E+02 0.  0.
        -11    1    3    3    0    0 -0.55289760456E+02  0.95974358363E+01  0.68646252769E+02  0.88664403258E+02  0.00000000000E+00 0. -1.
         11    1    3    3    0    0 -0.15553411424E+02  0.19743494149E+02 -0.27599048226E+02  0.37328563207E+02  0.00000000000E+00 0.  1.
        -11    1    4    4    0    0  0.28636825398E+02 -0.38638779265E+02 -0.52883935427E+02  0.71482401039E+02  0.00000000000E+00 0.  1.
         11    1    4    4    0    0  0.27271499560E+02  0.45048028424E+02 -0.13318336791E+02  0.54317931183E+02  0.00000000000E+00 0. -1.
          2    1    1    2  501    0  0.14934846921E+02 -0.35750179144E+02 -0.28041285359E+03  0.28307683307E+03  0.00000000000E+00 0. -1.
<scales pt_clust_5="13000.00000" pt_clust_6="13000.00000" pt_clust_7="13000.00000" pt_clust_8="13000.00000" pt_clust_9="38.74435"></scales>
<clustering>
<clus scale="   38.744">  2  9  1 -1</clus>
<clus scale="   90.973">  7  8 -1 -1</clus>
<clus scale="   91.158">  5  6 -1 -1</clus>
<clus scale="  114.037">  2  7  1 -1</clus>
<clus scale="   38.744">  2  5  1 -1</clus>
</clustering>
</event>
<event>
 9    1  0.1636528E-005  0.1336947E+03  0.7546771E-02  0.1222476E+00
          3   -1    0    0  502    0 -0.00000000000E+00  0.00000000000E+00  0.29388395353E+03  0.29388395353E+03  0.00000000000E+00 0. -1.
         21   -1    0    0  501  502  0.00000000000E+00 -0.00000000000E+00 -0.96918105046E+02  0.96918105046E+02  0.00000000000E+00 0.  1.
         23    2    1    2    0    0 -0.86065490569E+02  0.35651337282E+01  0.11203936260E+03  0.16782368427E+03  0.90509620405E+02 0.  0.
         23    2    1    2    0    0  0.11375388575E+03 -0.47728471673E+01  0.11311756570E+03  0.18344556793E+03  0.88847994514E+02 0.  0.
        -11    1    4    4    0    0  0.94816286612E+02 -0.30110393467E+02  0.46738820408E+02  0.10991488223E+03  0.00000000000E+00 0.  1.
         11    1    4    4    0    0  0.18937599140E+02  0.25337546300E+02  0.66378745287E+02  0.73530685700E+02  0.00000000000E+00 0. -1.
        -13    1    3    3    0    0 -0.23024374801E+02  0.17138629638E+01 -0.13918215389E+02  0.26958781145E+02  0.00000000000E+00 0.  1.
         13    1    3    3    0    0 -0.63041115769E+02  0.18512707644E+01  0.12595757798E+03  0.14086490313E+03  0.00000000000E+00 0. -1.
          3    1    1    2  501    0 -0.27688395182E+02  0.12077134392E+01 -0.28191079807E+02  0.39532806379E+02  0.00000000000E+00 0. -1.
<scales pt_clust_5="13000.00000" pt_clust_6="13000.00000" pt_clust_7="13000.00000" pt_clust_8="13000.00000" pt_clust_9="27.71472"></scales>
<clustering>
<clus scale="   27.715">  2  9  1 -1</clus>
<clus scale="   88.848">  5  6 -1 -1</clus>
<clus scale="   90.510">  7  8 -1 -1</clus>
<clus scale="  132.575">  2  5  1 -1</clus>
<clus scale="   27.715">  2  5  1 -1</clus>
</clustering>
</event>
<event>
 9    1  0.1636528E-005  0.9223154E+02  0.7546771E-02  0.1298110E+00
         -3   -1    0    0    0  501 -0.00000000000E+00  0.00000000000E+00  0.41160177567E+02  0.41160177567E+02  0.00000000000E+00 0.  1.
         21   -1    0    0  501  502  0.00000000000E+00 -0.00000000000E+00 -0.35494105826E+03  0.35494105826E+03  0.00000000000E+00 0. -1.
         23    2    1    2    0    0  0.18297237996E+02  0.13416888521E+02 -0.61052710631E+02  0.11145524788E+03  0.90443556922E+02 0.  0.
         23    2    1    2    0    0  0.15536095944E+02 -0.37375416243E+01 -0.15367346661E+03  0.17952596836E+03  0.91425923467E+02 0.  0.
        -11    1    3    3    0    0 -0.32172410356E+02 -0.13179385544E+02 -0.13902453907E+02  0.37443803440E+02  0.00000000000E+00 0. -1.
         11    1    3    3    0    0  0.50469648352E+02  0.26596274066E+02 -0.47150256724E+02  0.74011444440E+02  0.00000000000E+00 0.  1.
        -13    1    4    4    0    0  0.17753211297E+02 -0.32635037922E+02 -0.14439019075E+03  0.14909308970E+03  0.00000000000E+00 0. -1.
         13    1    4    4    0    0 -0.22171153529E+01  0.28897496298E+02 -0.92832758560E+01  0.30432878658E+02  0.00000000000E+00 0.  1.
         -3    1    1    2    0  502 -0.33833333940E+02 -0.96793468971E+01 -0.99054703453E+02  0.10512001959E+03  0.00000000000E+00 0.  1.
<scales pt_clust_5="13000.00000" pt_clust_6="13000.00000" pt_clust_7="13000.00000" pt_clust_8="13000.00000" pt_clust_9="35.19068"></scales>
<clustering>
<clus scale="   35.191">  2  9  1 -1</clus>
<clus scale="   90.444">  5  6 -1 -1</clus>
<clus scale="   91.258">  1  5  2 -1</clus>
<clus scale="   91.426">  7  8 -1 -1</clus>
<clus scale="   35.191">  2  5  1 -1</clus>
</clustering>
</event>
<event>
 9    1  0.1636528E-005  0.9368449E+02  0.7546771E-02  0.1295010E+00
         21   -1    0    0  501  502  0.00000000000E+00  0.00000000000E+00  0.25749171058E+03  0.25749171058E+03  0.00000000000E+00 0. -1.
          4   -1    0    0  502    0 -0.00000000000E+00 -0.00000000000E+00 -0.17087674452E+03  0.17087674452E+03  0.00000000000E+00 0. -1.
         23    2    1    2    0    0 -0.30530511438E+01  0.16421351588E+02 -0.10437076240E+03  0.13954790971E+03  0.91111915536E+02 0.  0.
         23    2    1    2    0    0  0.57991707239E+02  0.38376957491E+02  0.46431455338E+02  0.12475638571E+03  0.92587508644E+02 0.  0.
        -11    1    3    3    0    0 -0.33398217870E+02 -0.24532174007E+02 -0.51604100293E+02  0.66183469881E+02  0.00000000000E+00 0.  1.
         11    1    3    3    0    0  0.30345166727E+02  0.40953525594E+02 -0.52766662102E+02  0.73364439831E+02  0.00000000000E+00 0. -1.
        -11    1    4    4    0    0 -0.47856229454E+01 -0.21553311400E+02  0.28637922437E+02  0.36160448293E+02  0.00000000000E+00 0.  1.
         11    1    4    4    0    0  0.62777330184E+02  0.59930268890E+02  0.17793532901E+02  0.88595937421E+02  0.00000000000E+00 0. -1.
          4    1    1    2  501    0 -0.54938656095E+02 -0.54798309078E+02  0.14455427312E+03  0.16406415968E+03  0.00000000000E+00 0. -1.
<scales pt_clust_5="13000.00000" pt_clust_6="13000.00000" pt_clust_7="13000.00000" pt_clust_8="13000.00000" pt_clust_9="77.59582"></scales>
<clustering>
<clus scale="   77.596">  1  9  2 -1</clus>
<clus scale="   91.112">  5  6 -1 -1</clus>
<clus scale="   92.226">  2  5  1 -1</clus>
<clus scale="   92.588">  7  8 -1 -1</clus>
<clus scale="   77.596">  1  5  2 -1</clus>
</clustering>
</event>
<event>
 9    1  0.1636528E-005  0.1004966E+03  0.7546771E-02  0.1282402E+00
         -3   -1    0    0    0  501 -0.00000000000E+00  0.00000000000E+00  0.11477907499E+03  0.11477907499E+03  0.00000000000E+00 0.  1.
         21   -1    0    0  501  502  0.00000000000E+00 -0.00000000000E+00 -0.13567465447E+03  0.13567465447E+03  0.00000000000E+00 0. -1.
         23    2    1    2    0    0  0.11629333582E+02  0.37809143145E+02  0.46913481727E+02  0.10783700635E+03  0.88674531096E+02 0.  0.
         23    2    1    2    0    0 -0.11252916927E+02 -0.15848605152E+02 -0.34683807114E+02  0.10287141675E+03  0.94877581569E+02 0.  0.
        -11    1    3    3    0    0 -0.23716159852E+02 -0.15951172549E+02  0.29735886964E+02  0.41244625315E+02  0.00000000000E+00 0.  1.
         11    1    3    3    0    0  0.35345493435E+02  0.53760315694E+02  0.17177594764E+02  0.66592381032E+02  0.00000000000E+00 0. -1.
        -13    1    4    4    0    0 -0.21216841284E+02 -0.37471022039E+02 -0.56187290805E+02  0.70790136987E+02  0.00000000000E+00 0.  1.
         13    1    4    4    0    0  0.99639243570E+01  0.21622416886E+02  0.21503483691E+02  0.32081279767E+02  0.00000000000E+00 0. -1.
         -3    1    1    2    0  502 -0.37641665566E+00 -0.21960537993E+02 -0.33125254094E+02  0.39745306355E+02  0.00000000000E+00 0.  1.
<scales pt_clust_5="13000.00000" pt_clust_6="13000.00000" pt_clust_7="13000.00000" pt_clust_8="13000.00000" pt_clust_9="21.96376"></scales>
<clustering>
<clus scale="   21.964">  2  9  1 -1</clus>
<clus scale="   88.675">  5  6 -1 -1</clus>
<clus scale="   94.662">  1  5  2 -1</clus>
<clus scale="   94.878">  7  8 -1 -1</clus>
<clus scale="   21.964">  2  5  1 -1</clus>
</clustering>
</event>
<event>
 9    1  0.1636528E-005  0.9837172E+02  0.7546771E-02  0.1284961E+00
          2   -1    0    0  502    0 -0.00000000000E+00  0.00000000000E+00  0.21011202379E+03  0.21011202379E+03  0.00000000000E+00 0. -1.
         21   -1    0    0  501  502  0.00000000000E+00 -0.00000000000E+00 -0.12197501716E+03  0.12197501716E+03  0.00000000000E+00 0. -1.
         23    2    1    2    0    0 -0.28118375058E+02 -0.29007956076E+02  0.89876883172E+02  0.13318750700E+03  0.89604427124E+02 0.  0.
         23    2    1    2    0    0  0.33018421125E+02  0.35319680162E+01  0.71541850109E+02  0.12116120441E+03  0.91973421195E+02 0.  0.
        -11    1    4    4    0    0  0.17522181612E+02 -0.24864531741E+02  0.81760865458E+02  0.87235949629E+02  0.00000000000E+00 0. -1.
         11    1    4    4    0    0  0.15496239513E+02  0.28396499757E+02 -0.10219015349E+02  0.33925254785E+02  0.00000000000E+00 0.  1.
        -13    1    3    3    0    0 -0.33954926667E+02 -0.54597120714E+02  0.37064894174E+02  0.74213132365E+02  0.00000000000E+00 0. -1.
         13    1    3    3    0    0  0.58365516092E+01  0.25589164638E+02  0.52811988998E+02  0.58974374634E+02  0.00000000000E+00 0.  1.
          2    1    1    2  501    0 -0.49000460672E+01  0.25475988060E+02 -0.73281726646E+02  0.77738329538E+02  0.00000000000E+00 0. -1.
<scales pt_clust_5="13000.00000" pt_clust_6="13000.00000" pt_clust_7="13000.00000" pt_clust_8="13000.00000" pt_clust_9="25.94295"></scales>
<clustering>
<clus scale="   25.943">  2  9  1 -1</clus>
<clus scale="   89.604">  7  8 -1 -1</clus>
<clus scale="   91.973">  5  6 -1 -1</clus>
<clus scale="   96.160">  1  7  2 -1</clus>
<clus scale="   25.943">  2  5  1 -1</clus>
</clustering>
</event>
<event>
 9    1  0.1636528E-005  0.2042073E+03  0.7546771E-02  0.1153944E+00
         21   -1    0    0  501  502  0.00000000000E+00  0.00000000000E+00  0.47199026298E+03  0.47199026298E+03  0.00000000000E+00 0.  1.
         -1   -1    0    0    0  501 -0.00000000000E+00 -0.00000000000E+00 -0.21650738326E+03  0.21650738326E+03  0.00000000000E+00 0.  1.
         23    2    1    2    0    0 -0.38639448701E+02 -0.13844512667E+03  0.35173970866E+01  0.17016506177E+03  0.91014922251E+02 0.  0.
         23    2    1    2    0    0  0.18916590469E+03 -0.15780470636E+01  0.23019330302E+03  0.31159910645E+03  0.91207547135E+02 0.  0.
        -13    1    4    4    0    0  0.58435018120E+02  0.38462167825E+02  0.52884881168E+02  0.87697208351E+02  0.00000000000E+00 0. -1.
         13    1    4    4    0    0  0.13073088657E+03 -0.40040214888E+02  0.17730842185E+03  0.22390189810E+03  0.00000000000E+00 0.  1.
        -13    1    3    3    0    0  0.82776583334E+01 -0.10192279827E+03 -0.23396184538E+02  0.10490070488E+03  0.00000000000E+00 0.  1.
         13    1    3    3    0    0 -0.46917107035E+02 -0.36522328397E+02  0.26913581625E+02  0.65264356887E+02  0.00000000000E+00 0. -1.
         -1    1    1    2    0  502 -0.15052645598E+03  0.14002317373E+03  0.21772179613E+02  0.20673347803E+03  0.00000000000E+00 0.  1.
<scales pt_clust_5="13000.00000" pt_clust_6="13000.00000" pt_clust_7="13000.00000" pt_clust_8="13000.00000" pt_clust_9="182.70692"></scales>
<clustering>
<clus scale="   91.015">  7  8 -1 -1</clus>
<clus scale="   91.208">  5  6 -1 -1</clus>
<clus scale="  170.129">  2  7  1 -1</clus>
<clus scale="  182.707">  1  9  2 -1</clus>
<clus scale="  182.707">  1  5  2 -1</clus>
</clustering>
</event>
<event>
 9    1  0.1636528E-005  0.1031671E+03  0.7546771E-02  0.1281713E+00
         21   -1    0    0  501  502  0.00000000000E+00  0.00000000000E+00  0.27689004592E+02  0.27689004592E+02  0.00000000000E+00 0. -1.
         -2   -1    0    0    0  501 -0.00000000000E+00 -0.00000000000E+00 -0.71467199037E+03  0.71467199037E+03  0.00000000000E+00 0.  1.
         23    2    1    2    0    0 -0.15066526070E+02  0.15965158722E+02 -0.55340130719E+03  0.56311247920E+03  0.10178787225E+03 0.  0.
         23    2    1    2    0    0 -0.97607552002E+01 -0.97826465132E+01 -0.12355933782E+03  0.15177007572E+03  0.87041791149E+02 0.  0.
        -11    1    4    4    0    0  0.16373315911E+02 -0.38068171452E+02 -0.95554976699E+02  0.10415385122E+03  0.00000000000E+00 0.  1.
         11    1    4    4    0    0 -0.26134071111E+02  0.28285524938E+02 -0.28004361117E+02  0.47616224498E+02  0.00000000000E+00 0. -1.
        -13    1    3    3    0    0 -0.62471035064E+01  0.59270506536E+02 -0.33982108245E+03  0.34500780763E+03  0.00000000000E+00 0. -1.
         13    1    3    3    0    0 -0.88194225635E+01 -0.43305347814E+02 -0.21358022474E+03  0.21810467158E+03  0.00000000000E+00 0.  1.
         -2    1    1    2    0  502  0.24827281270E+02 -0.61825122085E+01 -0.10022340771E+02  0.27478440040E+02  0.00000000000E+00 0.  1.
<scales pt_clust_5="13000.00000" pt_clust_6="13000.00000" pt_clust_7="13000.00000" pt_clust_8="13000.00000" pt_clust_9="25.58549"></scales>
<clustering>
<clus scale="   25.585">  1  9  2 -1</clus>
<clus scale="   87.042">  5  6 -1 -1</clus>
<clus scale="   88.651">  1  5  2 -1</clus>
<clus scale="  101.788">  7  8 -1 -1</clus>
<clus scale="   25.585">  1  5  2 -1</clus>
</clustering>
</event>
<event>
 9    1  0.1636528E-005  0.9550074E+02  0.7546771E-02  0.1290129E+00
         21   -1    0    0  501  502  0.00000000000E+00  0.00000000000E+00  0.42606665467E+03  0.42606665467E+03  0.00000000000E+00 0. -1.
          3   -1    0    0  502    0 -0.00000000000E+00 -0.00000000000E+00 -0.89798600865E+02  0.89798600865E+02  0.00000000000E+00 0. -1.
         23    2    1    2    0    0 -0.24944909230E+02 -0.27934779188E+02 -0.50132798174E+02  0.10789696113E+03  0.87896850822E+02 0.  0.
         23    2    1    2    0    0  0.37370984625E+02  0.10464832657E+02  0.21906114460E+03  0.23926090261E+03  0.88044825100E+02 0.  0.
        -11    1    4    4    0    0  0.18656309719E+02 -0.38996633339E+02  0.92985776749E+02  0.10254340535E+03  0.00000000000E+00 0. -1.
         11    1    4    4    0    0  0.18714674906E+02  0.49461465996E+02  0.12607536785E+03  0.13671749725E+03  0.00000000000E+00 0.  1.
        -13    1    3    3    0    0  0.26410684631E+02  0.11026090750E+02 -0.27182542511E+02  0.39471376430E+02  0.00000000000E+00 0.  1.
         13    1    3    3    0    0 -0.51355593861E+02 -0.38960869937E+02 -0.22950255663E+02  0.68425584704E+02  0.00000000000E+00 0. -1.
          3    1    1    2  501    0 -0.12426075394E+02  0.17469946531E+02  0.16733970738E+03  0.16870739180E+03  0.00000000000E+00 0. -1.
<scales pt_clust_5="13000.00000" pt_clust_6="13000.00000" pt_clust_7="13000.00000" pt_clust_8="13000.00000" pt_clust_9="21.43843"></scales>
<clustering>
<clus scale="   21.438">  1  9  2 -1</clus>
<clus scale="   87.897">  7  8 -1 -1</clus>
<clus scale="   88.045">  5  6 -1 -1</clus>
<clus scale="   95.364">  2  7  1 -1</clus>
<clus scale="   21.438">  1  5  2 -1</clus>
</clustering>
</event>
<event>
 9    1  0.1636528E-005  0.1257909E+03  0.7546771E-02  0.1235674E+00
          1   -1    0    0  502    0 -0.00000000000E+00  0.00000000000E+00  0.60174243420E+03  0.60174243420E+03  0.00000000000E+00 0. -1.
         21   -1    0    0  501  502  0.00000000000E+00 -0.00000000000E+00 -0.62462437876E+02  0.62462437876E+02  0.00000000000E+00 0. -1.
         23    2    1    2    0    0  0.62724386836E+01 -0.68572348208E+02  0.31796258762E+03  0.33841959653E+03  0.93199279825E+02 0.  0.
         23    2    1    2    0    0 -0.21087507597E+02  0.11430398125E+03  0.23466603580E+03  0.27589485188E+03  0.86831663765E+02 0.  0.
        -11    1    4    4    0    0 -0.21651229866E+02 -0.75423682500E+01  0.30906560646E+02  0.38482185027E+02  0.00000000000E+00 0.  1.
         11    1    4    4    0    0  0.56372226885E+00  0.12184634950E+03  0.20375947515E+03  0.23741266686E+03  0.00000000000E+00 0. -1.
        -11    1    3    3    0    0  0.36641555180E+02 -0.16282960248E+02  0.21748077423E+03  0.22114616325E+03  0.00000000000E+00 0. -1.
         11    1    3    3    0    0 -0.30369116496E+02 -0.52289387961E+02  0.10048181340E+03  0.11727343328E+03  0.00000000000E+00 0.  1.
          1    1    1    2  501    0  0.14815068913E+02 -0.45731633042E+02 -0.13348627101E+02  0.49890423661E+02  0.00000000000E+00 0. -1.
<scales pt_clust_5="13000.00000" pt_clust_6="13000.00000" pt_clust_7="13000.00000" pt_clust_8="13000.00000" pt_clust_9="48.07149"></scales>
<clustering>
<clus scale="   48.071">  2  9  1 -1</clus>
<clus scale="   86.832">  5  6 -1 -1</clus>
<clus scale="   93.199">  7  8 -1 -1</clus>
<clus scale="  121.149">  2  5  1 -1</clus>
<clus scale="   48.071">  2  5  1 -1</clus>
</clustering>
</event>
<event>
 9    1  0.1636528E-005  0.1027979E+03  0.7546771E-02  0.1275407E+00
          2   -1    0    0  502    0 -0.00000000000E+00  0.00000000000E+00  0.21211516398E+03  0.21211516398E+03  0.00000000000E+00 0. -1.
         21   -1    0    0  501  502  0.00000000000E+00 -0.00000000000E+00 -0.47276528293E+03  0.47276528293E+03  0.00000000000E+00 0. -1.
         23    2    1    2    0    0  0.54510877249E+01  0.40576839287E+02  0.15966108715E+03  0.18995288402E+03  0.94415259119E+02 0.  0.
         23    2    1    2    0    0  0.59769338947E+02 -0.40294037908E+02 -0.65836252884E+02  0.13450242991E+03  0.92523013838E+02 0.  0.
        -13    1    3    3    0    0 -0.35747739843E+02 -0.90874990167E+01  0.43151351162E+02  0.56767267411E+02  0.00000000000E+00 0.  1.
         13    1    3    3    0    0  0.41198827568E+02  0.49664338304E+02  0.11650973598E+03  0.13318561661E+03  0.00000000000E+00 0. -1.
        -13    1    4    4    0    0 -0.18639603159E+02 -0.32200907319E+02 -0.30539048201E+02  0.48134880317E+02  0.00000000000E+00 0.  1.
         13    1    4    4    0    0  0.78408942106E+02 -0.80931305889E+01 -0.35297204683E+02  0.86367549596E+02  0.00000000000E+00 0. -1.
          2    1    1    2  501    0 -0.65220426671E+02 -0.28280137919E+00 -0.35447495321E+03  0.36042513298E+03  0.00000000000E+00 0. -1.
<scales pt_clust_5="13000.00000" pt_clust_6="13000.00000" pt_clust_7="13000.00000" pt_clust_8="13000.00000" pt_clust_9="65.22104"></scales>
<clustering>
<clus scale="   65.221">  2  9  1 -1</clus>
<clus scale="   92.523">  7  8 -1 -1</clus>
<clus scale="   94.415">  5  6 -1 -1</clus>
<clus scale="  101.063">  2  7  1 -1</clus>
<clus scale="   65.221">  2  5  1 -1</clus>
</clustering>
</event>
<event>
 9    1  0.1636528E-005  0.9599787E+02  0.7546771E-02  0.1291964E+00
          2   -1    0    0  502    0 -0.00000000000E+00  0.00000000000E+00  0.29938839292E+03  0.29938839292E+03  0.00000000000E+00 0. -1.
         21   -1    0    0  501  502  0.00000000000E+00 -0.00000000000E+00 -0.14203456002E+03  0.14203456002E+03  0.00000000000E+00 0. -1.
         23    2    1    2    0    0 -0.21572549194E+02 -0.11457057883E+02  0.22028908154E+03  0.24015039434E+03  0.92456981349E+02 0.  0.
         23    2    1    2    0    0  0.59323949569E+02 -0.35462056485E+02 -0.82036609233E+02  0.13809476582E+03  0.86967066471E+02 0.  0.
        -13    1    3    3    0    0 -0.31116638762E+02  0.22443026307E+02  0.18958275905E+03  0.19342584410E+03  0.00000000000E+00 0. -1.
         13    1    3    3    0    0  0.95440895677E+01 -0.33900084190E+02  0.30706322492E+02  0.46724550236E+02  0.00000000000E+00 0.  1.
        -13    1    4    4    0    0  0.48126161433E+02 -0.64184401951E+02 -0.60805795077E+02  0.10066334776E+03  0.00000000000E+00 0. -1.
         13    1    4    4    0    0  0.11197788136E+02  0.28722345466E+02 -0.21230814156E+02  0.37431418059E+02  0.00000000000E+00 0.  1.
          2    1    1    2  501    0 -0.37751400375E+02  0.46919114368E+02  0.19101360592E+02  0.63177792774E+02  0.00000000000E+00 0. -1.
<scales pt_clust_5="13000.00000" pt_clust_6="13000.00000" pt_clust_7="13000.00000" pt_clust_8="13000.00000" pt_clust_9="60.22102"></scales>
<clustering>
<clus scale="   60.221">  2  9  1 -1</clus>
<clus scale="   86.967">  7  8 -1 -1</clus>
<clus scale="   90.722">  2  7  1 -1</clus>
<clus scale="   92.457">  5  6 -1 -1</clus>
<clus scale="   60.221">  2  5  1 -1</clus>
</clustering>
</event>
<event>
 9    1  0.1636528E-005  0.1975078E+03  0.7546771E-02  0.1176398E+00
          2   -1    0    0  502    0 -0.00000000000E+00  0.00000000000E+00  0.90418695623E+03  0.90418695623E+03  0.00000000000E+00 0. -1.
         21   -1    0    0  501  502  0.00000000000E+00 -0.00000000000E+00 -0.10643573721E+03  0.10643573721E+03  0.00000000000E+00 0. -1.
         23    2    1    2    0    0  0.65488211004E+02  0.11120821841E+01  0.46876033163E+03  0.48195735450E+03  0.90866388396E+02 0.  0.
         23    2    1    2    0    0 -0.89829125846E+02 -0.17172989110E+03  0.27486140187E+03  0.34801950295E+03  0.89489423098E+02 0.  0.
        -11    1    3    3    0    0  0.27805945695E+02  0.45442761193E+02  0.24809347548E+03  0.25374906451E+03  0.00000000000E+00 0.  1.
         11    1    3    3    0    0  0.37682265310E+02 -0.44330679009E+02  0.22066685615E+03  0.22820829000E+03  0.00000000000E+00 0. -1.
        -13    1    4    4    0    0 -0.20161480401E+02 -0.30679801551E+02  0.69931875088E+01  0.37371649505E+02  0.00000000000E+00 0.  1.
         13    1    4    4    0    0 -0.69667645445E+02 -0.14105008955E+03  0.26786821436E+03  0.31064785344E+03  0.00000000000E+00 0. -1.
          2    1    1    2  501    0  0.24340914842E+02  0.17061780892E+03  0.54129485522E+02  0.18064583598E+03  0.00000000000E+00 0. -1.
<scales pt_clust_5="13000.00000" pt_clust_6="13000.00000" pt_clust_7="13000.00000" pt_clust_8="13000.00000" pt_clust_9="176.07092"></scales>
<clustering>
<clus scale="   89.489">  7  8 -1 -1</clus>
<clus scale="   90.866">  5  6 -1 -1</clus>
<clus scale="  112.012">  1  5  2 -1</clus>
<clus scale="  176.071">  2  9  1 -1</clus>
<clus scale="  176.071">  2  5  1 -1</clus>
</clustering>
</event>
<event>
 9    1  0.1636528E-005  0.1321633E+03  0.7546771E-02  0.1225089E+00
         21   -1    0    0  501  502  0.00000000000E+00  0.00000000000E+00  0.65956192252E+03  0.65956192252E+03  0.00000000000E+00 0. -1.
          1   -1    0    0  502    0 -0.00000000000E+00 -0.00000000000E+00 -0.13792384589E+03  0.13792384589E+03  0.00000000000E+00 0. -1.
         23    2    1    2    0    0 -0.30069148414E+02  0.87309462634E+02 -0.57061189307E+02  0.14175666084E+03  0.91169488401E+02 0.  0.
         23    2    1    2    0    0 -0.68358574091E+02 -0.15228023837E+03  0.38937095456E+03  0.43267210198E+03  0.87938853310E+02 0.  0.
        -11    1    4    4    0    0 -0.87855862714E+02 -0.12681920403E+03  0.34501191251E+03  0.37793515700E+03  0.00000000000E+00 0. -1.
         11    1    4    4    0    0  0.19497288624E+02 -0.25461034334E+02  0.44359042052E+02  0.54736944971E+02  0.00000000000E+00 0.  1.
        -11    1    3    3    0    0  0.65654798229E+01  0.21139760984E+02 -0.62127340321E+02  0.65953024458E+02  0.00000000000E+00 0.  1.
         11    1    3    3    0    0 -0.36634628237E+02  0.66169701651E+02  0.50661510141E+01  0.75803636382E+02  0.00000000000E+00 0. -1.
          1    1    1    2  501    0  0.98427722504E+02  0.64970775732E+02  0.18932831138E+03  0.22305700559E+03  0.00000000000E+00 0. -1.
<scales pt_clust_5="13000.00000" pt_clust_6="13000.00000" pt_clust_7="13000.00000" pt_clust_8="13000.00000" pt_clust_9="117.93735"></scales>
<clustering>
<clus scale="   87.939">  5  6 -1 -1</clus>
<clus scale="   91.169">  7  8 -1 -1</clus>
<clus scale="  117.937">  1  9  2 -1</clus>
<clus scale="  129.956">  1  5  2 -1</clus>
<clus scale="  117.937">  1  5  2 -1</clus>
</clustering>
</event>
<event>
 9    1  0.1636528E-005  0.1096267E+03  0.7546771E-02  0.1261273E+00
          1   -1    0    0  502    0 -0.00000000000E+00  0.00000000000E+00  0.80338129465E+03  0.80338129465E+03  0.00000000000E+00 0. -1.
         21   -1    0    0  501  502  0.00000000000E+00 -0.00000000000E+00 -0.30113642450E+02  0.30113642450E+02  0.00000000000E+00 0.  1.
         23    2    1    2    0    0 -0.32630282738E+02 -0.86502754682E+02  0.45621901370E+03  0.47413546302E+03  0.90117628186E+02 0.  0.
         23    2    1    2    0    0 -0.11882069389E+02  0.26882419560E+02  0.17619944865E+03  0.20006594586E+03  0.90090448628E+02 0.  0.
        -11    1    4    4    0    0  0.15398707731E+02 -0.26822771689E+02  0.87851078520E+02  0.93136422940E+02  0.00000000000E+00 0. -1.
         11    1    4    4    0    0 -0.27280777120E+02  0.53705191249E+02  0.88348370133E+02  0.10692952292E+03  0.00000000000E+00 0.  1.
        -13    1    3    3    0    0  0.29314953629E+02 -0.21957929144E+02  0.90436050915E+02  0.97571494114E+02  0.00000000000E+00 0. -1.
         13    1    3    3    0    0 -0.61945236366E+02 -0.64544825539E+02  0.36578296279E+03  0.37656396890E+03  0.00000000000E+00 0.  1.
          1    1    1    2  501    0  0.44512352127E+02  0.59620335122E+02  0.14084918984E+03  0.15929352822E+03  0.00000000000E+00 0. -1.
<scales pt_clust_5="13000.00000" pt_clust_6="13000.00000" pt_clust_7="13000.00000" pt_clust_8="13000.00000" pt_clust_9="74.40386"></scales>
<clustering>
<clus scale="   74.404">  2  9  1 -1</clus>
<clus scale="   90.090">  5  6 -1 -1</clus>
<clus scale="   90.118">  7  8 -1 -1</clus>
<clus scale="  109.604">  2  5  1 -1</clus>
<clus scale="   74.404">  2  5  1 -1</clus>
</clustering>
</event>
<event>
 9    1  0.1636528E-005  0.1169196E+03  0.7546771E-02  0.1248770E+00
         -1   -1    0    0    0  501 -0.00000000000E+00  0.00000000000E+00  0.21822724044E+03  0.21822724044E+03  0.00000000000E+00 0.  1.
         21   -1    0    0  501  502  0.00000000000E+00 -0.00000000000E+00 -0.16832392295E+03  0.16832392295E+03  0.00000000000E+00 0.  1.
         23    2    1    2    0    0 -0.87962206098E+02  0.32517014174E+01  0.11408354131E+03  0.17027412739E+03  0.90721005279E+02 0.  0.
         23    2    1    2    0    0  0.35693256188E+02  0.53575458047E+02  0.50516345285E+01  0.11257351925E+03  0.92211387488E+02 0.  0.
        -11    1    4    4    0    0 -0.30958472377E+01 -0.24471225764E+02 -0.38532707697E+01  0.24965433225E+02  0.00000000000E+00 0. -1.
         11    1    4    4    0    0  0.38789103426E+02  0.78046683811E+02  0.89049052982E+01  0.87608086024E+02  0.00000000000E+00 0.  1.
        -13    1    3    3    0    0 -0.48102543122E+02 -0.12931652273E+02  0.15904973464E+01  0.49835850220E+02  0.00000000000E+00 0. -1.
         13    1    3    3    0    0 -0.39859662976E+02  0.16183353690E+02  0.11249304396E+03  0.12043827717E+03  0.00000000000E+00 0.  1.
         -1    1    1    2    0  502  0.52268949910E+02 -0.56827159464E+02 -0.69231858336E+02  0.10370351675E+03  0.00000000000E+00 0.  1.
<scales pt_clust_5="13000.00000" pt_clust_6="13000.00000" pt_clust_7="13000.00000" pt_clust_8="13000.00000" pt_clust_9="77.20990"></scales>
<clustering>
<clus scale="   77.210">  2  9  1 -1</clus>
<clus scale="   90.721">  7  8 -1 -1</clus>
<clus scale="   92.211">  5  6 -1 -1</clus>
<clus scale="  115.748">  1  7  2 -1</clus>
<clus scale="   77.210">  2  5  1 -1</clus>
</clustering>
</event>
<event>
 9    1  0.1636528E-005  0.1246891E+03  0.7546771E-02  0.1237089E+00
         -2   -1    0    0    0  501 -0.00000000000E+00  0.00000000000E+00  0.11581249771E+03  0.11581249771E+03  0.00000000000E+00 0.  1.
         21   -1    0    0  501  502  0.00000000000E+00 -0.00000000000E+00 -0.18480128560E+03  0.18480128560E+03  0.00000000000E+00 0. -1.
         23    2    1    2    0    0  0.88879230272E+01 -0.92657864058E+02  0.13931671949E+02  0.13081408679E+03  0.90850200171E+02 0.  0.
         23    2    1    2    0    0 -0.20614175522E+02  0.72754123661E+02 -0.39795428618E+02  0.12087697995E+03  0.85495388183E+02 0.  0.
        -11    1    3    3    0    0  0.21153150468E+02 -0.49607353999E+02  0.49836164901E+02  0.73430161906E+02  0.00000000000E+00 0.  1.
         11    1    3    3    0    0 -0.12265227441E+02 -0.43050510060E+02 -0.35904492953E+02  0.57383924881E+02  0.00000000000E+00 0. -1.
        -13    1    4    4    0    0 -0.34734799422E+02  0.26013579609E+00 -0.30892867058E+02  0.46485946227E+02  0.00000000000E+00 0. -1.
         13    1    4    4    0    0  0.14120623900E+02  0.72493987865E+02 -0.89025615599E+01  0.74391033722E+02  0.00000000000E+00 0.  1.
         -2    1    1    2    0  502  0.11726252495E+02  0.19903740397E+02 -0.43125031220E+02  0.48922716575E+02  0.00000000000E+00 0.  1.
<scales pt_clust_5="13000.00000" pt_clust_6="13000.00000" pt_clust_7="13000.00000" pt_clust_8="13000.00000" pt_clust_9="23.10117"></scales>
<clustering>
<clus scale="   23.101">  2  9  1 -1</clus>
<clus scale="   85.495">  7  8 -1 -1</clus>
<clus scale="   90.850">  5  6 -1 -1</clus>
<clus scale="  120.843">  2  7  1 -1</clus>
<clus scale="   23.101">  2  5  1 -1</clus>
</clustering>
</event>
<event>
 9    1  0.1636528E-005  0.1492948E+03  0.7546771E-02  0.1213902E+00
         -3   -1    0    0    0  501 -0.00000000000E+00  0.00000000000E+00  0.25036465769E+03  0.25036465769E+03  0.00000000000E+00 0.  1.
         21   -1    0    0  501  502  0.00000000000E+00 -0.00000000000E+00 -0.13428867722E+03  0.13428867722E+03  0.00000000000E+00 0.  1.
         23    2    1    2    0    0  0.66751080897E+02  0.23171044305E+02  0.63353698307E+02  0.13046508334E+03  0.89525654356E+02 0.  0.
         23    2    1    2    0    0  0.46917219898E+02 -0.33482946329E+02  0.37614020871E+02  0.13905755415E+03  0.12082986213E+03 0.  0.
        -11    1    4    4    0    0 -0.95313414845E+01 -0.30954216330E+02  0.67695098380E+02  0.75044229117E+02  0.00000000000E+00 0. -1.
         11    1    4    4    0    0  0.56448561383E+02 -0.25287299991E+01 -0.30081077509E+02  0.64013325032E+02  0.00000000000E+00 0.  1.
        -11    1    3    3    0    0 -0.22308623607E+02  0.33146529352E+01  0.91918831113E+01  0.24354718772E+02  0.00000000000E+00 0. -1.
         11    1    3    3    0    0  0.89059704504E+02  0.19856391370E+02  0.54161815196E+02  0.10611036457E+03  0.00000000000E+00 0.  1.
         -3    1    1    2    0  502 -0.11366830080E+03  0.10311902024E+02  0.15108261294E+02  0.11513069742E+03  0.00000000000E+00 0.  1.
<scales pt_clust_5="13000.00000" pt_clust_6="13000.00000" pt_clust_7="13000.00000" pt_clust_8="13000.00000" pt_clust_9="87.68751"></scales>
<clustering>
<clus scale="   89.526">  7  8 -1 -1</clus>
<clus scale="  114.050">  1  7  2 -1</clus>
<clus scale="   87.688">  2  9  1 -1</clus>
<clus scale="  120.830">  5  6 -1 -1</clus>
<clus scale="   87.688">  2  5  1 -1</clus>
</clustering>
</event>
<event>
 9    1  0.1636528E-005  0.2014738E+03  0.7546771E-02  0.1148982E+00
         -1   -1    0    0    0  501 -0.00000000000E+00  0.00000000000E+00  0.80454656122E+03  0.80454656122E+03  0.00000000000E+00 0.  1.
         21   -1    0    0  501  502  0.00000000000E+00 -0.00000000000E+00 -0.16939550029E+03  0.16939550029E+03  0.00000000000E+00 0.  1.
         23    2    1    2    0    0 -0.15948296925E+03  0.12967358895E+03  0.61767041545E+03  0.65789116009E+03  0.95152400126E+02 0.  0.
         23    2    1    2    0    0  0.10568166199E+03 -0.65081334047E+02  0.11169627507E+03  0.18978402169E+03  0.90209330453E+02 0.  0.
        -13    1    3    3    0    0 -0.87620495952E+02  0.11002888454E+03  0.49285725795E+03  0.51253486072E+03  0.00000000000E+00 0.  1.
         13    1    3    3    0    0 -0.71862473302E+02  0.19644704410E+02  0.12481315751E+03  0.14535629937E+03  0.00000000000E+00 0. -1.
        -13    1    4    4    0    0  0.99005621714E+02 -0.38545195338E+02  0.12086759677E+03  0.16092489292E+03  0.00000000000E+00 0. -1.
         13    1    4    4    0    0  0.66760402774E+01 -0.26536138710E+02 -0.91713216948E+01  0.28859128764E+02  0.00000000000E+00 0.  1.
         -1    1    1    2    0  502  0.53801307263E+02 -0.64592254903E+02 -0.94215629598E+02  0.12626687973E+03  0.00000000000E+00 0.  1.
<scales pt_clust_5="13000.00000" pt_clust_6="13000.00000" pt_clust_7="13000.00000" pt_clust_8="13000.00000" pt_clust_9="84.06390"></scales>
<clustering>
<clus scale="   84.064">  2  9  1 -1</clus>
<clus scale="   90.209">  7  8 -1 -1</clus>
<clus scale="   95.152">  5  6 -1 -1</clus>
<clus scale="  199.187">  2  7  1 -1</clus>
<clus scale="   84.064">  2  5  1 -1</clus>
</clustering>
</event>
<event>
 9    1  0.1636528E-005  0.1106478E+03  0.7546771E-02  0.1260593E+00
         21   -1    0    0  501  502  0.00000000000E+00  0.00000000000E+00  0.39298587462E+03  0.39298587462E+03  0.00000000000E+00 0.  1.
          1   -1    0    0  502    0 -0.00000000000E+00 -0.00000000000E+00 -0.99388718142E+02  0.99388718142E+02  0.00000000000E+00 0. -1.
         23    2    1    2    0    0  0.46519315510E+02  0.18694241771E+01 -0.27176899853E+02  0.10736271004E+03  0.92847327155E+02 0.  0.
         23    2    1    2    0    0 -0.97296322300E+02 -0.44786832656E+02  0.18944467057E+03  0.23781264382E+03  0.95880840834E+02 0.  0.
        -11    1    4    4    0    0 -0.51989956790E+02 -0.25581533115E+02  0.17813375431E+03  0.18732059382E+03  0.00000000000E+00 0.  1.
         11    1    4    4    0    0 -0.45306365511E+02 -0.19205299541E+02  0.11310916257E+02  0.50492049996E+02  0.00000000000E+00 0. -1.
        -13    1    3    3    0    0 -0.11902932496E+02 -0.33502150007E+02 -0.10215121591E+02  0.36992196018E+02  0.00000000000E+00 0.  1.
         13    1    3    3    0    0  0.58422248006E+02  0.35371574184E+02 -0.16961778262E+02  0.70370514025E+02  0.00000000000E+00 0. -1.
          1    1    1    2  501    0  0.50777006790E+02  0.42917408479E+02  0.13132938576E+03  0.14719923890E+03  0.00000000000E+00 0. -1.
<scales pt_clust_5="13000.00000" pt_clust_6="13000.00000" pt_clust_7="13000.00000" pt_clust_8="13000.00000" pt_clust_9="66.48465"></scales>
<clustering>
<clus scale="   66.485">  1  9  2 -1</clus>
<clus scale="   92.847">  7  8 -1 -1</clus>
<clus scale="   95.881">  5  6 -1 -1</clus>
<clus scale="  108.030">  2  7  1 -1</clus>
<clus scale="   66.485">  1  5  2 -1</clus>
</clustering>
</event>
<event>
 9    1  0.1636528E-005  0.1657270E+03  0.7546771E-02  0.1182714E+00
         21   -1    0    0  501  502  0.00000000000E+00  0.00000000000E+00  0.24291442076E+03  0.24291442076E+03  0.00000000000E+00 0.  1.
         -3   -1    0    0    0  501 -0.00000000000E+00 -0.00000000000E+00 -0.38571699250E+03  0.38571699250E+03  0.00000000000E+00 0.  1.
         23    2    1    2    0    0  0.55575217903E+02 -0.13783434053E+03 -0.25868103853E+03  0.31335311422E+03  0.95850843603E+02 0.  0.
         23    2    1    2    0    0 -0.85483868494E+02  0.70675179246E+02 -0.30847669450E+02  0.15116419428E+03  0.97962044623E+02 0.  0.
        -13    1    3    3    0    0 -0.26892714337E+02 -0.46372321437E+02 -0.73959226339E+02  0.91343184970E+02  0.00000000000E+00 0. -1.
         13    1    3    3    0    0  0.82467932240E+02 -0.91462019097E+02 -0.18472181220E+03  0.22200992925E+03  0.00000000000E+00 0.  1.
        -13    1    4    4    0    0 -0.69769424836E+02  0.28255629206E+02  0.24979135582E+02  0.79310216481E+02  0.00000000000E+00 0.  1.
         13    1    4    4    0    0 -0.15714443658E+02  0.42419550040E+02 -0.55826805032E+02  0.71853977796E+02  0.00000000000E+00 0. -1.
         -3    1    1    2    0  502  0.29908650591E+02  0.67159161288E+02  0.14672613624E+03  0.16411410476E+03  0.00000000000E+00 0.  1.
<scales pt_clust_5="13000.00000" pt_clust_6="13000.00000" pt_clust_7="13000.00000" pt_clust_8="13000.00000" pt_clust_9="73.51789"></scales>
<clustering>
<clus scale="   73.518">  1  9  2 -1</clus>
<clus scale="   95.851">  5  6 -1 -1</clus>
<clus scale="   97.962">  7  8 -1 -1</clus>
<clus scale="  164.488">  2  5  1 -1</clus>
<clus scale="   73.518">  1  5  2 -1</clus>
</clustering>
</event>
<event>
 9    1  0.1636528E-005  0.1139855E+03  0.7546771E-02  0.1257353E+00
         -1   -1    0    0    0  501 -0.00000000000E+00  0.00000000000E+00  0.27951534379E+03  0.27951534379E+03  0.00000000000E+00 0.  1.
         21   -1    0    0  501  502  0.00000000000E+00 -0.00000000000E+00 -0.19709307533E+03  0.19709307533E+03  0.00000000000E+00 0. -1.
         23    2    1    2    0    0  0.51815866274E+02 -0.89026479472E+01  0.14776926753E+03  0.18114257266E+03  0.90624136205E+02 0.  0.
         23    2    1    2    0    0 -0.56772395727E+02 -0.27196745073E+02  0.81650076307E+02  0.14401990386E+03  0.10055958377E+03 0.  0.
        -11    1    3    3    0    0  0.21852516313E+02  0.40126279886E+02  0.81478040311E+02  0.93414783945E+02  0.00000000000E+00 0.  1.
         11    1    3    3    0    0  0.29963349961E+02 -0.49028927833E+02  0.66291227223E+02  0.87727788711E+02  0.00000000000E+00 0. -1.
        -11    1    4    4    0    0 -0.66551495216E+02  0.57157553189E+01  0.86559820580E+02  0.10933605953E+03  0.00000000000E+00 0.  1.
         11    1    4    4    0    0  0.97790994893E+01 -0.32912500392E+02 -0.49097442726E+01  0.34683844333E+02  0.00000000000E+00 0. -1.
         -1    1    1    2    0  502  0.49565294525E+01  0.36099393020E+02 -0.14699707538E+03  0.15144594261E+03  0.00000000000E+00 0.  1.
<scales pt_clust_5="13000.00000" pt_clust_6="13000.00000" pt_clust_7="13000.00000" pt_clust_8="13000.00000" pt_clust_9="36.43808"></scales>
<clustering>
<clus scale="   36.438">  2  9  1 -1</clus>
<clus scale="   90.624">  5  6 -1 -1</clus>
<clus scale="  100.560">  7  8 -1 -1</clus>
<clus scale="  105.324">  1  5  2 -1</clus>
<clus scale="   36.438">  2  5  1 -1</clus>
</clustering>
</event>
<event>
 9    1  0.2078295E-005  0.2926388E+03  0.7546771E-02  0.1117729E+00
         21   -1    0    0  501  502  0.00000000000E+00  0.00000000000E+00  0.51165111300E+03  0.51165111300E+03  0.00000000000E+00 0. -1.
          2   -1    0    0  502    0 -0.00000000000E+00 -0.00000000000E+00 -0.10303854117E+04  0.10303854117E+04  0.00000000000E+00 0. -1.
         23    2    1    2    0    0  0.22079970263E+02 -0.10328096468E+03  0.47976289390E+02  0.14743955326E+03  0.91006674318E+02 0.  0.
         23    2    1    2    0    0 -0.69061270329E+01  0.37560826204E+03 -0.89074162934E+03  0.97105415409E+03  0.91631101812E+02 0.  0.
        -11    1    4    4    0    0  0.15316873153E+02  0.22621451739E+03 -0.42889203728E+03  0.48513502669E+03  0.00000000000E+00 0. -1.
         11    1    4    4    0    0 -0.22223000186E+02  0.14939374464E+03 -0.46184959207E+03  0.48591912739E+03  0.00000000000E+00 0.  1.
        -13    1    3    3    0    0 -0.73797034413E+01 -0.19261174166E+02  0.54394208963E+02  0.58173729654E+02  0.00000000000E+00 0.  1.
         13    1    3    3    0    0  0.29459673705E+02 -0.84019790514E+02 -0.64179195732E+01  0.89265823608E+02  0.00000000000E+00 0. -1.
          2    1    1    2  501    0 -0.15173843230E+02 -0.27232729736E+03  0.32403104128E+03  0.42354281734E+03  0.00000000000E+00 0. -1.
<scales pt_clust_5="13000.00000" pt_clust_6="13000.00000" pt_clust_7="13000.00000" pt_clust_8="13000.00000" pt_clust_9="277.92306"></scales>
<clustering>
<clus scale="   91.007">  7  8 -1 -1</clus>
<clus scale="   91.631">  5  6 -1 -1</clus>
<clus scale="  139.416">  2  7  1 -1</clus>
<clus scale="  277.923">  1  9  2 -1</clus>
<clus scale="  277.923">  1  5  2 -1</clus>
</clustering>
</event>
<event>
 9    1  0.1636528E-005  0.9858618E+02  0.7546771E-02  0.1285420E+00
          1   -1    0    0  502    0 -0.00000000000E+00  0.00000000000E+00  0.16241686693E+03  0.16241686693E+03  0.00000000000E+00 0. -1.
         21   -1    0    0  501  502  0.00000000000E+00 -0.00000000000E+00 -0.92403019162E+02  0.92403019162E+02  0.00000000000E+00 0.  1.
         23    2    1    2    0    0  0.26456843865E+02  0.14778900406E+02  0.79227615347E+02  0.12531139896E+03  0.92236387570E+02 0.  0.
         23    2    1    2    0    0  0.25784618017E+01 -0.10817840858E+02  0.49114436209E+01  0.96977570159E+02  0.96212539149E+02 0.  0.
        -11    1    4    4    0    0  0.49308248908E+02 -0.46899856988E+01 -0.53795322094E+00  0.49533713468E+02  0.00000000000E+00 0.  1.
         11    1    4    4    0    0 -0.46729787106E+02 -0.61278551595E+01  0.54493968418E+01  0.47443856692E+02  0.00000000000E+00 0. -1.
        -13    1    3    3    0    0 -0.30182167716E+02  0.24856737607E+02  0.38101545592E+02  0.54594399246E+02  0.00000000000E+00 0. -1.
         13    1    3    3    0    0  0.56639011581E+02 -0.10077837201E+02  0.41126069755E+02  0.70716999717E+02  0.00000000000E+00 0.  1.
          1    1    1    2  501    0 -0.29035305666E+02 -0.39610595476E+01 -0.14125211195E+02  0.32530916974E+02  0.00000000000E+00 0. -1.
<scales pt_clust_5="13000.00000" pt_clust_6="13000.00000" pt_clust_7="13000.00000" pt_clust_8="13000.00000" pt_clust_9="29.30425"></scales>
<clustering>
<clus scale="   29.304">  2  9  1 -1</clus>
<clus scale="   92.236">  7  8 -1 -1</clus>
<clus scale="   94.710">  1  7  2 -1</clus>
<clus scale="   96.213">  5  6 -1 -1</clus>
<clus scale="   29.304">  2  5  1 -1</clus>
</clustering>
</event>
<event>
 9    1  0.1636528E-005  0.9905320E+02  0.7546771E-02  0.1297463E+00
          1   -1    0    0  502    0 -0.00000000000E+00  0.00000000000E+00  0.72334835875E+03  0.72334835875E+03  0.00000000000E+00 0. -1.
         21   -1    0    0  501  502  0.00000000000E+00 -0.00000000000E+00 -0.23266942169E+02  0.23266942169E+02  0.00000000000E+00 0.  1.
         23    2    1    2    0    0 -0.98136370695E+01 -0.52991279152E+02  0.53305189313E+03  0.54308973723E+03  0.88869335401E+02 0.  0.
         23    2    1    2    0    0  0.18468621031E+02  0.11094130536E+02  0.58175232808E+02  0.86566013414E+02  0.60375055039E+02 0.  0.
        -11    1    4    4    0    0  0.20378495770E+02 -0.22221892347E+02  0.21828039075E+02  0.37223096045E+02  0.00000000000E+00 0.  1.
         11    1    4    4    0    0 -0.19098747392E+01  0.33316022882E+02  0.36347193733E+02  0.49342917369E+02  0.00000000000E+00 0. -1.
        -11    1    3    3    0    0 -0.24278931902E+02 -0.73646151021E+02  0.43433736347E+03  0.44120535740E+03  0.00000000000E+00 0. -1.
         11    1    3    3    0    0  0.14465294833E+02  0.20654871869E+02  0.98714529664E+02  0.10188437983E+03  0.00000000000E+00 0.  1.
          1    1    1    2  501    0 -0.86549839615E+01  0.41897148616E+02  0.10885429065E+03  0.11695955028E+03  0.00000000000E+00 0. -1.
<scales pt_clust_5="13000.00000" pt_clust_6="13000.00000" pt_clust_7="13000.00000" pt_clust_8="13000.00000" pt_clust_9="42.78177"></scales>
<clustering>
<clus scale="   42.782">  2  9  1 -1</clus>
<clus scale="   60.375">  5  6 -1 -1</clus>
<clus scale="   74.558">  2  5  1 -1</clus>
<clus scale="   88.869">  7  8 -1 -1</clus>
<clus scale="   42.782">  2  5  1 -1</clus>
</clustering>
</event>
<event>
 9    1  0.1636528E-005  0.1041969E+03  0.7546771E-02  0.1272492E+00
         21   -1    0    0  501  502  0.00000000000E+00  0.00000000000E+00  0.26413841902E+03  0.26413841902E+03  0.00000000000E+00 0. -1.
         -1   -1    0    0    0  501 -0.00000000000E+00 -0.00000000000E+00 -0.92290556054E+02  0.92290556054E+02  0.00000000000E+00 0.  1.
         23    2    1    2    0    0 -0.13364945138E+02  0.42538656494E+02 -0.22412751606E+02  0.10484604397E+03  0.92207388238E+02 0.  0.
         23    2    1    2    0    0  0.38124153607E+02 -0.58848462119E+02  0.18975682039E+03  0.22159439454E+03  0.90442424918E+02 0.  0.
        -11    1    3    3    0    0  0.40717544533E+00 -0.27791138940E+02  0.47661598817E+01  0.28199813394E+02  0.00000000000E+00 0. -1.
         11    1    3    3    0    0 -0.13772120583E+02  0.70329795434E+02 -0.27178911488E+02  0.76646230572E+02  0.00000000000E+00 0.  1.
        -13    1    4    4    0    0  0.22653708424E+02  0.53686723213E+01  0.29673960655E+01  0.23469524649E+02  0.00000000000E+00 0.  1.
         13    1    4    4    0    0  0.15470445183E+02 -0.64217134440E+02  0.18678942433E+03  0.19812486989E+03  0.00000000000E+00 0. -1.
         -1    1    1    2    0  502 -0.24759208469E+02  0.16309805625E+02  0.45037941835E+01  0.29988536569E+02  0.00000000000E+00 0.  1.
<scales pt_clust_5="13000.00000" pt_clust_6="13000.00000" pt_clust_7="13000.00000" pt_clust_8="13000.00000" pt_clust_9="29.64842"></scales>
<clustering>
<clus scale="   29.648">  1  9  2 -1</clus>
<clus scale="   90.442">  7  8 -1 -1</clus>
<clus scale="   92.207">  5  6 -1 -1</clus>
<clus scale="  102.638">  1  7  2 -1</clus>
<clus scale="   29.648">  1  5  2 -1</clus>
</clustering>
</event>
<event>
 9    1  0.1636528E-005  0.1033631E+03  0.7546771E-02  0.1273841E+00
          3   -1    0    0  502    0 -0.00000000000E+00  0.00000000000E+00  0.45149793134E+03  0.45149793134E+03  0.00000000000E+00 0. -1.
         21   -1    0    0  501  502  0.00000000000E+00 -0.00000000000E+00 -0.10388841674E+03  0.10388841674E+03  0.00000000000E+00 0. -1.
         23    2    1    2    0    0  0.43634543124E+02  0.10662948469E+02  0.31050760113E+03  0.32708322228E+03  0.92470493195E+02 0.  0.
         23    2    1    2    0    0 -0.38895618472E+02 -0.39117640343E+02  0.10792348107E+03  0.15183207681E+03  0.91446393367E+02 0.  0.
        -11    1    3    3    0    0  0.72313727979E+01  0.48994791436E+02  0.13557485318E+03  0.14433753204E+03  0.00000000000E+00 0.  1.
         11    1    3    3    0    0  0.36403170327E+02 -0.38331842967E+02  0.17493274795E+03  0.18274569024E+03  0.00000000000E+00 0. -1.
        -11    1    4    4    0    0 -0.58373484252E+00 -0.50784091164E+02  0.18855881810E+02  0.54174799866E+02  0.00000000000E+00 0. -1.
         11    1    4    4    0    0 -0.38311883630E+02  0.11666450821E+02  0.89067599263E+02  0.97657276946E+02  0.00000000000E+00 0.  1.
          3    1    1    2  501    0 -0.47389246524E+01  0.28454691874E+02 -0.70821567607E+02  0.76471048997E+02  0.00000000000E+00 0. -1.
<scales pt_clust_5="13000.00000" pt_clust_6="13000.00000" pt_clust_7="13000.00000" pt_clust_8="13000.00000" pt_clust_9="28.84661"></scales>
<clustering>
<clus scale="   28.847">  2  9  1 -1</clus>
<clus scale="   91.446">  7  8 -1 -1</clus>
<clus scale="   92.470">  5  6 -1 -1</clus>
<clus scale="  102.448">  2  7  1 -1</clus>
<clus scale="   28.847">  2  5  1 -1</clus>
</clustering>
</event>
<event>
 9    1  0.1636528E-005  0.1524306E+03  0.7546771E-02  0.1199598E+00
         21   -1    0    0  501  502  0.00000000000E+00  0.00000000000E+00  0.35555194273E+03  0.35555194273E+03  0.00000000000E+00 0. -1.
         -1   -1    0    0    0  501 -0.00000000000E+00 -0.00000000000E+00 -0.16443171058E+03  0.16443171058E+03  0.00000000000E+00 0.  1.
         23    2    1    2    0    0 -0.10658598611E+03  0.67775710343E+02 -0.58844421509E+02  0.16022168191E+03  0.79083513217E+02 0.  0.
         23    2    1    2    0    0  0.57747766487E+02 -0.93110048782E+02  0.26664055923E+03  0.30227209206E+03  0.90922736926E+02 0.  0.
        -13    1    3    3    0    0 -0.10808359252E+03  0.33004934384E+02 -0.53413187611E+02  0.12499742908E+03  0.00000000000E+00 0. -1.
         13    1    3    3    0    0  0.14976064069E+01  0.34770775959E+02 -0.54312338976E+01  0.35224252830E+02  0.00000000000E+00 0.  1.
        -13    1    4    4    0    0  0.59519728677E+02 -0.70066562083E+02  0.26333974712E+03  0.27892605407E+03  0.00000000000E+00 0. -1.
         13    1    4    4    0    0 -0.17719621894E+01 -0.23043486698E+02  0.33008121122E+01  0.23346037990E+02  0.00000000000E+00 0.  1.
         -1    1    1    2    0  502  0.48838219623E+02  0.25334338439E+02 -0.16675905576E+02  0.57489879343E+02  0.00000000000E+00 0.  1.
<scales pt_clust_5="13000.00000" pt_clust_6="13000.00000" pt_clust_7="13000.00000" pt_clust_8="13000.00000" pt_clust_9="55.01821"></scales>
<clustering>
<clus scale="   55.018">  1  9  2 -1</clus>
<clus scale="   79.084">  5  6 -1 -1</clus>
<clus scale="   90.923">  7  8 -1 -1</clus>
<clus scale="  145.679">  2  5  1 -1</clus>
<clus scale="   55.018">  1  5  2 -1</clus>
</clustering>
</event>
<event>
 9    1  0.1636528E-005  0.1232607E+03  0.7546771E-02  0.1239704E+00
         21   -1    0    0  501  502  0.00000000000E+00  0.00000000000E+00  0.10980595786E+04  0.10980595786E+04  0.00000000000E+00 0. -1.
         -4   -1    0    0    0  501 -0.00000000000E+00 -0.00000000000E+00 -0.16136032932E+03  0.16136032932E+03  0.00000000000E+00 0.  1.
         23    2    1    2    0    0 -0.24169658281E+02 -0.70145729191E+02 -0.11278927396E+03  0.16141159130E+03  0.88474209702E+02 0.  0.
         23    2    1    2    0    0  0.30384637338E+02  0.15695732014E+03  0.38100559659E+03  0.42388347544E+03  0.94620872864E+02 0.  0.
        -11    1    4    4    0    0  0.44297523402E+02  0.63438010407E+02  0.94242580050E+02  0.12193570289E+03  0.00000000000E+00 0.  1.
         11    1    4    4    0    0 -0.13912886063E+02  0.93519309737E+02  0.28676301654E+03  0.30194777255E+03  0.00000000000E+00 0. -1.
        -13    1    3    3    0    0  0.28250586983E+02 -0.53051439517E+02 -0.63835260077E+02  0.87678340135E+02  0.00000000000E+00 0.  1.
         13    1    3    3    0    0 -0.52420245263E+02 -0.17094289674E+02 -0.48954013881E+02  0.73733251169E+02  0.00000000000E+00 0. -1.
         -4    1    1    2    0  502 -0.62149790580E+01 -0.86811590953E+02  0.66848292665E+03  0.67412484119E+03  0.00000000000E+00 0.  1.
<scales pt_clust_5="13000.00000" pt_clust_6="13000.00000" pt_clust_7="13000.00000" pt_clust_8="13000.00000" pt_clust_9="87.03378"></scales>
<clustering>
<clus scale="   87.034">  1  9  2 -1</clus>
<clus scale="   88.474">  7  8 -1 -1</clus>
<clus scale="   94.621">  5  6 -1 -1</clus>
<clus scale="  118.608">  2  7  1 -1</clus>
<clus scale="   87.034">  1  5  2 -1</clus>
</clustering>
</event>
<event>
 9    1  0.1636528E-005  0.2336285E+03  0.7546771E-02  0.1125023E+00
         21   -1    0    0  501  502  0.00000000000E+00  0.00000000000E+00  0.99053563439E+02  0.99053563439E+02  0.00000000000E+00 0. -1.
          1   -1    0    0  502    0 -0.00000000000E+00 -0.00000000000E+00 -0.82642786757E+03  0.82642786757E+03  0.00000000000E+00 0. -1.
         23    2    1    2    0    0 -0.16418663978E+03  0.14913848363E+03 -0.46481398094E+03  0.52435717931E+03  0.98482864697E+02 0.  0.
         23    2    1    2    0    0  0.13380200485E+03 -0.14899930535E+03 -0.28833186475E+03  0.36128184007E+03  0.85355340991E+02 0.  0.
        -11    1    4    4    0    0  0.12491112796E+02 -0.66575437949E+02 -0.63525894989E+02  0.92864719734E+02  0.00000000000E+00 0.  1.
         11    1    4    4    0    0  0.12131089205E+03 -0.82423867398E+02 -0.22480596976E+03  0.26841712033E+03  0.00000000000E+00 0. -1.
        -11    1    3    3    0    0 -0.16488955564E+03  0.10534890677E+03 -0.34269224041E+03  0.39461998094E+03  0.00000000000E+00 0. -1.
         11    1    3    3    0    0  0.70291586638E+00  0.43789576858E+02 -0.12212174053E+03  0.12973719837E+03  0.00000000000E+00 0.  1.
          1    1    1    2  501    0  0.30384634926E+02 -0.13917828003E+00  0.25771541560E+02  0.39842411631E+02  0.00000000000E+00 0. -1.
<scales pt_clust_5="13000.00000" pt_clust_6="13000.00000" pt_clust_7="13000.00000" pt_clust_8="13000.00000" pt_clust_9="30.38495"></scales>
<clustering>
<clus scale="   30.385">  1  9  2 -1</clus>
<clus scale="   85.355">  5  6 -1 -1</clus>
<clus scale="   98.483">  7  8 -1 -1</clus>
<clus scale="  228.405">  1  5  2 -1</clus>
<clus scale="   30.385">  1  5  2 -1</clus>
</clustering>
</event>
<event>
 9    1  0.1636528E-005  0.9775684E+02  0.7546771E-02  0.1287616E+00
         -1   -1    0    0    0  501 -0.00000000000E+00  0.00000000000E+00  0.12460643313E+03  0.12460643313E+03  0.00000000000E+00 0.  1.
         21   -1    0    0  501  502  0.00000000000E+00 -0.00000000000E+00 -0.23533776743E+03  0.23533776743E+03  0.00000000000E+00 0.  1.
         23    2    1    2    0    0  0.11447947733E+02  0.97667111423E+01  0.21589039589E+02  0.93527158489E+02  0.89748529742E+02 0.  0.
         23    2    1    2    0    0 -0.22173987759E+02 -0.28627877260E+02  0.27730825242E+02  0.10490178623E+03  0.94467692872E+02 0.  0.
        -11    1    3    3    0    0  0.41238025864E+02  0.24346305335E+02 -0.86281593842E+01  0.48659659833E+02  0.00000000000E+00 0. -1.
         11    1    3    3    0    0 -0.29790078131E+02 -0.14579594193E+02  0.30217198973E+02  0.44867498657E+02  0.00000000000E+00 0.  1.
        -13    1    4    4    0    0 -0.22300856609E+02  0.31876409563E+02  0.20480279593E+02  0.43964480485E+02  0.00000000000E+00 0. -1.
         13    1    4    4    0    0  0.12686884965E+00 -0.60504286822E+02  0.72505456492E+01  0.60937305748E+02  0.00000000000E+00 0.  1.
         -1    1    1    2    0  502  0.10726040026E+02  0.18861166117E+02 -0.16005119914E+03  0.16151525583E+03  0.00000000000E+00 0.  1.
<scales pt_clust_5="13000.00000" pt_clust_6="13000.00000" pt_clust_7="13000.00000" pt_clust_8="13000.00000" pt_clust_9="21.69773"></scales>
<clustering>
<clus scale="   21.698">  2  9  1 -1</clus>
<clus scale="   89.749">  5  6 -1 -1</clus>
<clus scale="   93.204">  1  5  2 -1</clus>
<clus scale="   94.468">  7  8 -1 -1</clus>
<clus scale="   21.698">  2  5  1 -1</clus>
</clustering>
</event>
<event>
 9    1  0.1636528E-005  0.9381932E+02  0.7546771E-02  0.1294076E+00
         21   -1    0    0  501  502  0.00000000000E+00  0.00000000000E+00  0.70880473795E+02  0.70880473795E+02  0.00000000000E+00 0.  1.
          4   -1    0    0  502    0 -0.00000000000E+00 -0.00000000000E+00 -0.26921919473E+03  0.26921919473E+03  0.00000000000E+00 0. -1.
         23    2    1    2    0    0  0.24183561244E+01 -0.10579645436E+02 -0.19255432485E+03  0.21432346633E+03  0.93485843091E+02 0.  0.
         23    2    1    2    0    0  0.22219657371E+02 -0.54560611245E+01 -0.31321639933E+00  0.95874540015E+02  0.93103960936E+02 0.  0.
        -11    1    3    3    0    0  0.45349607679E+02  0.84010503225E+01 -0.11143006780E+03  0.12059778014E+03  0.00000000000E+00 0.  1.
         11    1    3    3    0    0 -0.42931251555E+02 -0.18980695758E+02 -0.81124257046E+02  0.93725686195E+02  0.00000000000E+00 0. -1.
        -11    1    4    4    0    0 -0.11429158053E+02  0.19857038886E+02 -0.34651630548E+02  0.41541101896E+02  0.00000000000E+00 0. -1.
         11    1    4    4    0    0  0.33648815424E+02 -0.25313100011E+02  0.34338414148E+02  0.54333438119E+02  0.00000000000E+00 0.  1.
          4    1    1    2  501    0 -0.24638013495E+02  0.16035706560E+02 -0.54711796869E+01  0.29901662178E+02  0.00000000000E+00 0. -1.
<scales pt_clust_5="13000.00000" pt_clust_6="13000.00000" pt_clust_7="13000.00000" pt_clust_8="13000.00000" pt_clust_9="29.39686"></scales>
<clustering>
<clus scale="   29.397">  1  9  2 -1</clus>
<clus scale="   93.104">  7  8 -1 -1</clus>
<clus scale="   93.439">  1  7  2 -1</clus>
<clus scale="   93.486">  5  6 -1 -1</clus>
<clus scale="   29.397">  1  5  2 -1</clus>
</clustering>
</event>
<event>
 9    1  0.1636528E-005  0.9558558E+02  0.7546771E-02  0.1290524E+00
         -1   -1    0    0    0  501 -0.00000000000E+00  0.00000000000E+00  0.26316147007E+03  0.26316147007E+03  0.00000000000E+00 0.  1.
         21   -1    0    0  501  502  0.00000000000E+00 -0.00000000000E+00 -0.91814696610E+02  0.91814696610E+02  0.00000000000E+00 0.  1.
         23    2    1    2    0    0  0.38013127443E+02 -0.16871682388E+02  0.13899153207E+03  0.17190346296E+03  0.92209018352E+02 0.  0.
         23    2    1    2    0    0  0.14826735880E+02  0.42314514095E+01  0.69335922568E+02  0.11735058130E+03  0.93412801557E+02 0.  0.
        -11    1    3    3    0    0 -0.45760040574E+01 -0.22029966477E+02  0.12465740847E+03  0.12667173609E+03  0.00000000000E+00 0. -1.
         11    1    3    3    0    0  0.42589131500E+02  0.51582840892E+01  0.14334123601E+02  0.45231726875E+02  0.00000000000E+00 0.  1.
        -13    1    4    4    0    0 -0.36648985730E+01 -0.37561393409E+02  0.44719873849E+01  0.38003794909E+02  0.00000000000E+00 0.  1.
         13    1    4    4    0    0  0.18491634453E+02  0.41792844818E+02  0.64863935183E+02  0.79346786388E+02  0.00000000000E+00 0. -1.
         -1    1    1    2    0  502 -0.52839863323E+02  0.12640230978E+02 -0.36980681179E+02  0.65722122422E+02  0.00000000000E+00 0.  1.
<scales pt_clust_5="13000.00000" pt_clust_6="13000.00000" pt_clust_7="13000.00000" pt_clust_8="13000.00000" pt_clust_9="54.33072"></scales>
<clustering>
<clus scale="   54.331">  2  9  1 -1</clus>
<clus scale="   92.209">  5  6 -1 -1</clus>
<clus scale="   93.413">  7  8 -1 -1</clus>
<clus scale="   94.410">  1  5  2 -1</clus>
<clus scale="   54.331">  2  5  1 -1</clus>
</clustering>
</event>
<event>
 9    1  0.1636528E-005  0.1206722E+03  0.7546771E-02  0.1250557E+00
         21   -1    0    0  501  502  0.00000000000E+00  0.00000000000E+00  0.97149203719E+02  0.97149203719E+02  0.00000000000E+00 0. -1.
          1   -1    0    0  502    0 -0.00000000000E+00 -0.00000000000E+00 -0.32305207809E+03  0.32305207809E+03  0.00000000000E+00 0. -1.
         23    2    1    2    0    0  0.17795381295E+02 -0.43976190309E+02 -0.23839925244E+03  0.25998320670E+03  0.92230598446E+02 0.  0.
         23    2    1    2    0    0 -0.25803586299E+02  0.92121287809E+01 -0.12208872116E+02  0.11682428860E+03  0.11290779187E+03 0.  0.
        -11    1    4    4    0    0 -0.56291374496E+02  0.10264376508E+02  0.30108475750E+02  0.64657533047E+02  0.00000000000E+00 0.  1.
         11    1    4    4    0    0  0.30487788197E+02 -0.10522477274E+01 -0.42317347865E+02  0.52166755551E+02  0.00000000000E+00 0. -1.
        -11    1    3    3    0    0  0.55669884752E+01 -0.59828133275E+02 -0.23092313991E+03  0.23861243354E+03  0.00000000000E+00 0. -1.
         11    1    3    3    0    0  0.12228392820E+02  0.15851942967E+02 -0.74761125268E+01  0.21370773156E+02  0.00000000000E+00 0.  1.
          1    1    1    2  501    0  0.80082050042E+01  0.34764061528E+02  0.24705250186E+02  0.43393786514E+02  0.00000000000E+00 0. -1.
<scales pt_clust_5="13000.00000" pt_clust_6="13000.00000" pt_clust_7="13000.00000" pt_clust_8="13000.00000" pt_clust_9="35.67452"></scales>
<clustering>
<clus scale="   35.675">  1  9  2 -1</clus>
<clus scale="   92.231">  7  8 -1 -1</clus>
<clus scale="  101.588">  2  7  1 -1</clus>
<clus scale="  112.908">  5  6 -1 -1</clus>
<clus scale="   35.675">  1  5  2 -1</clus>
</clustering>
</event>
<event>
 9    1  0.1636528E-005  0.9231875E+02  0.7546771E-02  0.1298651E+00
         21   -1    0    0  501  502  0.00000000000E+00  0.00000000000E+00  0.48667884700E+03  0.48667884700E+03  0.00000000000E+00 0. -1.
          1   -1    0    0  502    0 -0.00000000000E+00 -0.00000000000E+00 -0.36304751355E+02  0.36304751355E+02  0.00000000000E+00 0. -1.
         23    2    1    2    0    0  0.79768335186E+01 -0.31958644883E+01  0.73528556226E+02  0.11689024143E+03  0.90460137842E+02 0.  0.
         23    2    1    2    0    0 -0.36562568567E+02 -0.23343663953E+02  0.17679520806E+03  0.20227572791E+03  0.88188301055E+02 0.  0.
        -13    1    3    3    0    0  0.11897424882E+02 -0.24223179228E+02 -0.11409770948E+02  0.29300068325E+02  0.00000000000E+00 0. -1.
         13    1    3    3    0    0 -0.39205913637E+01  0.21027314740E+02  0.84938327174E+02  0.87590173107E+02  0.00000000000E+00 0.  1.
        -13    1    4    4    0    0 -0.50796918900E+02 -0.41281826474E+02  0.82888987719E+02  0.10561770899E+03  0.00000000000E+00 0.  1.
         13    1    4    4    0    0  0.14234350333E+02  0.17938162521E+02  0.93906220337E+02  0.96658018922E+02  0.00000000000E+00 0. -1.
          1    1    1    2  501    0  0.28585735048E+02  0.26539528441E+02  0.20005033136E+03  0.20381762902E+03  0.00000000000E+00 0. -1.
<scales pt_clust_5="13000.00000" pt_clust_6="13000.00000" pt_clust_7="13000.00000" pt_clust_8="13000.00000" pt_clust_9="39.00629"></scales>
<clustering>
<clus scale="   39.006">  1  9  2 -1</clus>
<clus scale="   88.188">  7  8 -1 -1</clus>
<clus scale="   90.094">  1  7  2 -1</clus>
<clus scale="   90.460">  5  6 -1 -1</clus>
<clus scale="   39.006">  1  5  2 -1</clus>
</clustering>
</event>
<event>
 9    1  0.1636528E-005  0.1070772E+03  0.7546771E-02  0.1266116E+00
          4   -1    0    0  502    0 -0.00000000000E+00  0.00000000000E+00  0.14738687020E+03  0.14738687020E+03  0.00000000000E+00 0. -1.
         21   -1    0    0  501  502  0.00000000000E+00 -0.00000000000E+00 -0.26417105048E+03  0.26417105048E+03  0.00000000000E+00 0.  1.
         23    2    1    2    0    0  0.26138478040E+02  0.41674548625E+02  0.55003547110E+02  0.11754142224E+03  0.91491025297E+02 0.  0.
         23    2    1    2    0    0  0.65709892493E+01 -0.77038653407E+02 -0.43621803899E+01  0.11979869525E+03  0.91403319133E+02 0.  0.
        -11    1    3    3    0    0  0.44150007747E+02  0.60484461239E+02  0.27789311882E+02  0.79873894924E+02  0.00000000000E+00 0.  1.
         11    1    3    3    0    0 -0.18011529708E+02 -0.18809912614E+02  0.27214235228E+02  0.37667527315E+02  0.00000000000E+00 0. -1.
        -11    1    4    4    0    0  0.26196073875E+02  0.92292818379E+01 -0.13452812905E+02  0.30860850681E+02  0.00000000000E+00 0.  1.
         11    1    4    4    0    0 -0.19625084626E+02 -0.86267935244E+02  0.90906325147E+01  0.88937844574E+02  0.00000000000E+00 0. -1.
          4    1    1    2  501    0 -0.32709467289E+02  0.35364104782E+02 -0.16742554700E+03  0.17421780318E+03  0.00000000000E+00 0. -1.
<scales pt_clust_5="13000.00000" pt_clust_6="13000.00000" pt_clust_7="13000.00000" pt_clust_8="13000.00000" pt_clust_9="48.17187"></scales>
<clustering>
<clus scale="   48.172">  2  9  1 -1</clus>
<clus scale="   91.403">  7  8 -1 -1</clus>
<clus scale="   91.491">  5  6 -1 -1</clus>
<clus scale="  107.002">  2  7  1 -1</clus>
<clus scale="   48.172">  2  5  1 -1</clus>
</clustering>
</event>
<event>
 9    1  0.1636528E-005  0.1017098E+03  0.7546771E-02  0.1277399E+00
         21   -1    0    0  501  502  0.00000000000E+00  0.00000000000E+00  0.26718483395E+02  0.26718483395E+02  0.00000000000E+00 0.  1.
          3   -1    0    0  502    0 -0.00000000000E+00 -0.00000000000E+00 -0.53349223869E+03  0.53349223869E+03  0.00000000000E+00 0. -1.
         23    2    1    2    0    0  0.34020478890E+02  0.17879565101E+02 -0.28839225645E+03  0.30483844541E+03  0.90990726927E+02 0.  0.
         23    2    1    2    0    0 -0.56269401250E+02 -0.13449486898E+02 -0.19795593416E+03  0.22484615947E+03  0.89566228818E+02 0.  0.
        -11    1    3    3    0    0  0.16113626512E+02  0.47238672179E+02 -0.24198218697E+03  0.24707593958E+03  0.00000000000E+00 0. -1.
         11    1    3    3    0    0  0.17906852377E+02 -0.29359107078E+02 -0.46410069484E+02  0.57762505832E+02  0.00000000000E+00 0.  1.
        -13    1    4    4    0    0 -0.61509807874E+02  0.14733147035E+02 -0.18055371871E+03  0.19131170227E+03  0.00000000000E+00 0.  1.
         13    1    4    4    0    0  0.52404066238E+01 -0.28182633932E+02 -0.17402215446E+02  0.33534457195E+02  0.00000000000E+00 0. -1.
          3    1    1    2  501    0  0.22248922360E+02 -0.44300782029E+01 -0.20425564693E+02  0.30526117213E+02  0.00000000000E+00 0. -1.
<scales pt_clust_5="13000.00000" pt_clust_6="13000.00000" pt_clust_7="13000.00000" pt_clust_8="13000.00000" pt_clust_9="22.68568"></scales>
<clustering>
<clus scale="   22.686">  1  9  2 -1</clus>
<clus scale="   89.566">  7  8 -1 -1</clus>
<clus scale="   90.991">  5  6 -1 -1</clus>
<clus scale="  100.437">  1  7  2 -1</clus>
<clus scale="   22.686">  1  5  2 -1</clus>
</clustering>
</event>
<event>
 9    1  0.1636528E-005  0.9475139E+02  0.7546771E-02  0.1291912E+00
         21   -1    0    0  501  502  0.00000000000E+00  0.00000000000E+00  0.35593903566E+03  0.35593903566E+03  0.00000000000E+00 0.  1.
         -1   -1    0    0    0  501 -0.00000000000E+00 -0.00000000000E+00 -0.16253955703E+03  0.16253955703E+03  0.00000000000E+00 0.  1.
         23    2    1    2    0    0 -0.15767535079E+01  0.28730331052E+02 -0.98046216698E+02  0.13672508399E+03  0.90844757198E+02 0.  0.
         23    2    1    2    0    0 -0.29854725599E+02 -0.14368047145E+02  0.92395819591E+01  0.97439415663E+02  0.91166465494E+02 0.  0.
        -11    1    4    4    0    0  0.50031251370E+01  0.34949737544E+02 -0.42420404137E+01  0.35559953914E+02  0.00000000000E+00 0.  1.
         11    1    4    4    0    0 -0.34857850736E+02 -0.49317784689E+02  0.13481622373E+02  0.61879461749E+02  0.00000000000E+00 0. -1.
        -13    1    3    3    0    0 -0.35820146524E+02  0.41699635021E+02 -0.76618374769E+02  0.94299087005E+02  0.00000000000E+00 0.  1.
         13    1    3    3    0    0  0.34243393016E+02 -0.12969303970E+02 -0.21427841929E+02  0.42425996988E+02  0.00000000000E+00 0. -1.
         -1    1    1    2    0  502  0.31431479106E+02 -0.14362283907E+02  0.28220611336E+03  0.28431409303E+03  0.00000000000E+00 0.  1.
<scales pt_clust_5="13000.00000" pt_clust_6="13000.00000" pt_clust_7="13000.00000" pt_clust_8="13000.00000" pt_clust_9="34.55739"></scales>
<clustering>
<clus scale="   34.557">  1  9  2 -1</clus>
<clus scale="   90.845">  7  8 -1 -1</clus>
<clus scale="   91.166">  5  6 -1 -1</clus>
<clus scale="   94.442">  2  7  1 -1</clus>
<clus scale="   34.557">  1  5  2 -1</clus>
</clustering>
</event>
<event>
 9    1  0.1636528E-005  0.1122726E+03  0.7546771E-02  0.1257527E+00
          2   -1    0    0  502    0 -0.00000000000E+00  0.00000000000E+00  0.11921617156E+03  0.11921617156E+03  0.00000000000E+00 0. -1.
         21   -1    0    0  501  502  0.00000000000E+00 -0.00000000000E+00 -0.21789378022E+03  0.21789378022E+03  0.00000000000E+00 0.  1.
         23    2    1    2    0    0 -0.49633175941E+02  0.51585178138E+02  0.17633609994E+02  0.11356151096E+03  0.86375863595E+02 0.  0.
         23    2    1    2    0    0  0.54253908430E+01 -0.67853372991E+02 -0.13248515935E+03  0.17374303163E+03  0.89447238637E+02 0.  0.
        -11    1    4    4    0    0  0.37827201856E+02 -0.53696382037E+01 -0.26431760641E+02  0.46458241306E+02  0.00000000000E+00 0. -1.
         11    1    4    4    0    0 -0.32401811013E+02 -0.62483734787E+02 -0.10605339871E+03  0.12728479033E+03  0.00000000000E+00 0.  1.
        -13    1    3    3    0    0 -0.38415291420E+02  0.72962631332E+02  0.28285197933E+02  0.87174151031E+02  0.00000000000E+00 0.  1.
         13    1    3    3    0    0 -0.11217884521E+02 -0.21377453195E+02 -0.10651587939E+02  0.26387359925E+02  0.00000000000E+00 0. -1.
          2    1    1    2  501    0  0.44207785098E+02  0.16268194853E+02  0.16173940698E+02  0.49805409192E+02  0.00000000000E+00 0. -1.
<scales pt_clust_5="13000.00000" pt_clust_6="13000.00000" pt_clust_7="13000.00000" pt_clust_8="13000.00000" pt_clust_9="47.10610"></scales>
<clustering>
<clus scale="   47.106">  2  9  1 -1</clus>
<clus scale="   86.376">  7  8 -1 -1</clus>
<clus scale="   89.447">  5  6 -1 -1</clus>
<clus scale="  109.841">  1  7  2 -1</clus>
<clus scale="   47.106">  2  5  1 -1</clus>
</clustering>
</event>
<event>
 9    1  0.1636528E-005  0.2143966E+03  0.7546771E-02  0.1138218E+00
         -1   -1    0    0    0  501 -0.00000000000E+00  0.00000000000E+00  0.50896811014E+03  0.50896811014E+03  0.00000000000E+00 0.  1.
         21   -1    0    0  501  502  0.00000000000E+00 -0.00000000000E+00 -0.21385966190E+03  0.21385966190E+03  0.00000000000E+00 0.  1.
         23    2    1    2    0    0 -0.18979052302E+03  0.49921731662E+02  0.41409158284E+03  0.46714584537E+03  0.90778741748E+02 0.  0.
         23    2    1    2    0    0  0.17984984768E+03 -0.31076776286E+02 -0.97894157093E+02  0.22570369554E+03  0.89705955506E+02 0.  0.
        -11    1    3    3    0    0 -0.69765728680E+01  0.22341891795E+02  0.16399378732E+02  0.28579228834E+02  0.00000000000E+00 0. -1.
         11    1    3    3    0    0 -0.18281395015E+03  0.27579839867E+02  0.39769220410E+03  0.43856661654E+03  0.00000000000E+00 0.  1.
        -13    1    4    4    0    0  0.97678690323E+02  0.68265593302E+01 -0.81483775941E+01  0.98255404497E+02  0.00000000000E+00 0.  1.
         13    1    4    4    0    0  0.82171157357E+02 -0.37903335616E+02 -0.89745779499E+02  0.12744829104E+03  0.00000000000E+00 0. -1.
         -1    1    1    2    0  502  0.99406753419E+01 -0.18844955377E+02 -0.21088977506E+02  0.29978231129E+02  0.00000000000E+00 0.  1.
<scales pt_clust_5="13000.00000" pt_clust_6="13000.00000" pt_clust_7="13000.00000" pt_clust_8="13000.00000" pt_clust_9="21.30609"></scales>
<clustering>
<clus scale="   21.306">  2  9  1 -1</clus>
<clus scale="   89.706">  7  8 -1 -1</clus>
<clus scale="   90.779">  5  6 -1 -1</clus>
<clus scale="  213.945">  2  7  1 -1</clus>
<clus scale="   21.306">  2  5  1 -1</clus>
</clustering>
</event>
<event>
 9    1  0.1636528E-005  0.1156726E+03  0.7546771E-02  0.1251461E+00
          1   -1    0    0  502    0 -0.00000000000E+00  0.00000000000E+00  0.10617230509E+03  0.10617230509E+03  0.00000000000E+00 0. -1.
         21   -1    0    0  501  502  0.00000000000E+00 -0.00000000000E+00 -0.19640447322E+03  0.19640447322E+03  0.00000000000E+00 0. -1.
         23    2    1    2    0    0  0.57603320381E+02 -0.58764700385E+01 -0.87421150540E+01  0.10851143331E+03  0.91354426085E+02 0.  0.
         23    2    1    2    0    0 -0.89782302928E+02 -0.20538821351E+02 -0.36373901562E+02  0.13267543000E+03  0.88300645007E+02 0.  0.
        -11    1    4    4    0    0 -0.51334774294E+02  0.21973992130E+02  0.12644997136E+02  0.57253919818E+02  0.00000000000E+00 0.  1.
         11    1    4    4    0    0 -0.38447528634E+02 -0.42512813481E+02 -0.49018898699E+02  0.75421510180E+02  0.00000000000E+00 0. -1.
        -11    1    3    3    0    0  0.38147482021E+02 -0.46509408739E+02 -0.17437510519E+02  0.62629244438E+02  0.00000000000E+00 0. -1.
         11    1    3    3    0    0  0.19455838360E+02  0.40632938701E+02  0.86953954655E+01  0.45882188876E+02  0.00000000000E+00 0.  1.
          1    1    1    2  501    0  0.32178982547E+02  0.26415291389E+02 -0.45116151510E+02  0.61389915003E+02  0.00000000000E+00 0. -1.
<scales pt_clust_5="13000.00000" pt_clust_6="13000.00000" pt_clust_7="13000.00000" pt_clust_8="13000.00000" pt_clust_9="41.63237"></scales>
<clustering>
<clus scale="   41.632">  2  9  1 -1</clus>
<clus scale="   88.301">  5  6 -1 -1</clus>
<clus scale="   91.354">  7  8 -1 -1</clus>
<clus scale="  113.276">  2  5  1 -1</clus>
<clus scale="   41.632">  2  5  1 -1</clus>
</clustering>
</event>
<event>
 9    1  0.1636528E-005  0.1072597E+03  0.7546771E-02  0.1267644E+00
          1   -1    0    0  502    0 -0.00000000000E+00  0.00000000000E+00  0.43490759202E+03  0.43490759202E+03  0.00000000000E+00 0. -1.
         21   -1    0    0  501  502  0.00000000000E+00 -0.00000000000E+00 -0.52386551916E+02  0.52386551916E+02  0.00000000000E+00 0. -1.
         23    2    1    2    0    0  0.27372644880E+01  0.51154986171E+02  0.31514231990E+03  0.33278299201E+03  0.93837693647E+02 0.  0.
         23    2    1    2    0    0  0.23711064696E+02 -0.54094757380E+02  0.69734399327E+02  0.12779588297E+03  0.89333330224E+02 0.  0.
        -11    1    4    4    0    0  0.16319825664E+02  0.20414955896E+02  0.38799985027E+02  0.46781897909E+02  0.00000000000E+00 0. -1.
         11    1    4    4    0    0  0.73912390321E+01 -0.74509713276E+02  0.30934414300E+02  0.81013985058E+02  0.00000000000E+00 0.  1.
        -13    1    3    3    0    0 -0.38414399240E+02  0.33917109277E+02  0.23985820818E+03  0.24527127105E+03  0.00000000000E+00 0.  1.
         13    1    3    3    0    0  0.41151663727E+02  0.17237876894E+02  0.75284111726E+02  0.87511720962E+02  0.00000000000E+00 0. -1.
          1    1    1    2  501    0 -0.26448329184E+02  0.29397712085E+01 -0.23556791277E+01  0.26715268959E+02  0.00000000000E+00 0. -1.
<scales pt_clust_5="13000.00000" pt_clust_6="13000.00000" pt_clust_7="13000.00000" pt_clust_8="13000.00000" pt_clust_9="26.61121"></scales>
<clustering>
<clus scale="   26.611">  2  9  1 -1</clus>
<clus scale="   89.333">  5  6 -1 -1</clus>
<clus scale="   93.838">  7  8 -1 -1</clus>
<clus scale="  103.342">  2  5  1 -1</clus>
<clus scale="   26.611">  2  5  1 -1</clus>
</clustering>
</event>
<event>
 9    1  0.1636528E-005  0.1309947E+03  0.7546771E-02  0.1226926E+00
         21   -1    0    0  501  502  0.00000000000E+00  0.00000000000E+00  0.78205519535E+02  0.78205519535E+02  0.00000000000E+00 0.  1.
          1   -1    0    0  502    0 -0.00000000000E+00 -0.00000000000E+00 -0.41436755236E+03  0.41436755236E+03  0.00000000000E+00 0. -1.
         23    2    1    2    0    0 -0.54027605829E+02 -0.81564560605E+02 -0.31281329751E+03  0.34082062025E+03  0.93460025418E+02 0.  0.
         23    2    1    2    0    0  0.40070816924E+02  0.61962372000E+02 -0.39449669593E+02  0.12279942350E+03  0.89880009277E+02 0.  0.
        -13    1    3    3    0    0 -0.30779832786E+02 -0.37990674719E+02 -0.38874173178E+02  0.62465116763E+02  0.00000000000E+00 0.  1.
         13    1    3    3    0    0 -0.23247773043E+02 -0.43573885886E+02 -0.27393912433E+03  0.27835550348E+03  0.00000000000E+00 0. -1.
        -13    1    4    4    0    0  0.43570758422E+02  0.34565619502E+01 -0.46440404372E+02  0.63773583624E+02  0.00000000000E+00 0. -1.
         13    1    4    4    0    0 -0.34999414987E+01  0.58505810050E+02  0.69907347784E+01  0.59025839874E+02  0.00000000000E+00 0.  1.
          1    1    1    2  501    0  0.13956788906E+02  0.19602188605E+02  0.16100934273E+02  0.28953028151E+02  0.00000000000E+00 0. -1.
<scales pt_clust_5="13000.00000" pt_clust_6="13000.00000" pt_clust_7="13000.00000" pt_clust_8="13000.00000" pt_clust_9="24.06320"></scales>
<clustering>
<clus scale="   24.063">  1  9  2 -1</clus>
<clus scale="   89.880">  7  8 -1 -1</clus>
<clus scale="   93.460">  5  6 -1 -1</clus>
<clus scale="  128.465">  1  7  2 -1</clus>
<clus scale="   24.063">  1  5  2 -1</clus>
</clustering>
</event>
<event>
 9    1  0.1636528E-005  0.1160559E+03  0.7546771E-02  0.1250854E+00
         21   -1    0    0  501  502  0.00000000000E+00  0.00000000000E+00  0.19787374361E+03  0.19787374361E+03  0.00000000000E+00 0.  1.
          4   -1    0    0  502    0 -0.00000000000E+00 -0.00000000000E+00 -0.17534194898E+03  0.17534194898E+03  0.00000000000E+00 0. -1.
         23    2    1    2    0    0 -0.47810125891E+02  0.17052359261E+02 -0.52352403942E+02  0.11485204421E+03  0.88733459119E+02 0.  0.
         23    2    1    2    0    0  0.11475062778E+03 -0.63662900696E+02  0.23480451069E+02  0.16194830404E+03  0.91952433902E+02 0.  0.
        -11    1    3    3    0    0 -0.17050556049E+02 -0.36488975343E+02 -0.24217561967E+02  0.46996351888E+02  0.00000000000E+00 0. -1.
         11    1    3    3    0    0 -0.30759569842E+02  0.53541334603E+02 -0.28134841975E+02  0.67855692325E+02  0.00000000000E+00 0.  1.
        -13    1    4    4    0    0  0.73761279175E+02 -0.86203419140E+02  0.17212754307E+02  0.11475205744E+03  0.00000000000E+00 0.  1.
         13    1    4    4    0    0  0.40989348600E+02  0.22540518444E+02  0.62676967618E+01  0.47196246599E+02  0.00000000000E+00 0. -1.
          4    1    1    2  501    0 -0.66940501884E+02  0.46610541435E+02  0.51403747500E+02  0.96415344331E+02  0.00000000000E+00 0. -1.
<scales pt_clust_5="13000.00000" pt_clust_6="13000.00000" pt_clust_7="13000.00000" pt_clust_8="13000.00000" pt_clust_9="81.56944"></scales>
<clustering>
<clus scale="   81.569">  1  9  2 -1</clus>
<clus scale="   88.733">  5  6 -1 -1</clus>
<clus scale="   91.952">  7  8 -1 -1</clus>
<clus scale="  113.522">  2  5  1 -1</clus>
<clus scale="   81.569">  1  5  2 -1</clus>
</clustering>
</event>
<event>
 9    1  0.1636528E-005  0.1147008E+03  0.7546771E-02  0.1257676E+00
         21   -1    0    0  501  502  0.00000000000E+00  0.00000000000E+00  0.17468597624E+02  0.17468597624E+02  0.00000000000E+00 0. -1.
          2   -1    0    0  502    0 -0.00000000000E+00 -0.00000000000E+00 -0.98253090541E+03  0.98253090541E+03  0.00000000000E+00 0. -1.
         23    2    1    2    0    0  0.54258877317E+02  0.51186163959E+02 -0.46482775788E+03  0.48090237174E+03  0.98174321980E+02 0.  0.
         23    2    1    2    0    0 -0.18156655367E+02 -0.43201012238E+02 -0.28613654987E+03  0.30182981508E+03  0.83851777007E+02 0.  0.
        -11    1    3    3    0    0  0.42677891507E+02  0.74680441792E+02 -0.42217866988E+03  0.43085194686E+03  0.00000000000E+00 0. -1.
         11    1    3    3    0    0  0.11580985810E+02 -0.23494277832E+02 -0.42649088005E+02  0.50050424882E+02  0.00000000000E+00 0.  1.
        -11    1    4    4    0    0  0.16945578386E+02 -0.40693424694E+02 -0.23885874780E+03  0.24289217534E+03  0.00000000000E+00 0.  1.
         11    1    4    4    0    0 -0.35102233753E+02 -0.25075875446E+01 -0.47277802071E+02  0.58937639742E+02  0.00000000000E+00 0. -1.
          2    1    1    2  501    0 -0.36102221951E+02 -0.79851517211E+01 -0.21409800003E+03  0.21726731622E+03  0.00000000000E+00 0. -1.
<scales pt_clust_5="13000.00000" pt_clust_6="13000.00000" pt_clust_7="13000.00000" pt_clust_8="13000.00000" pt_clust_9="36.97478"></scales>
<clustering>
<clus scale="   36.975">  1  9  2 -1</clus>
<clus scale="   83.852">  7  8 -1 -1</clus>
<clus scale="   98.174">  5  6 -1 -1</clus>
<clus scale="  102.709">  1  7  2 -1</clus>
<clus scale="   36.975">  1  5  2 -1</clus>
</clustering>
</event>
<event>
 9    1  0.1636528E-005  0.1071167E+03  0.7546771E-02  0.1266826E+00
          3   -1    0    0  502    0 -0.00000000000E+00  0.00000000000E+00  0.25973669871E+03  0.25973669871E+03  0.00000000000E+00 0. -1.
         21   -1    0    0  501  502  0.00000000000E+00 -0.00000000000E+00 -0.46648913714E+03  0.46648913714E+03  0.00000000000E+00 0. -1.
         23    2    1    2    0    0 -0.20144103848E+02 -0.55647518395E+02  0.22927522999E+03  0.25238414899E+03  0.87339546303E+02 0.  0.
         23    2    1    2    0    0  0.77714693999E+02  0.29333803715E+02 -0.27740253268E+03  0.30305316817E+03  0.89381272620E+02 0.  0.
        -11    1    3    3    0    0 -0.18696707207E+02  0.20858529719E+02  0.77578976862E+02  0.82481166174E+02  0.00000000000E+00 0.  1.
         11    1    3    3    0    0 -0.14473966410E+01 -0.76506048113E+02  0.15169625313E+03  0.16990298281E+03  0.00000000000E+00 0. -1.
        -11    1    4    4    0    0  0.15315828801E+02 -0.31105208144E+02 -0.91719676870E+02  0.98054106037E+02  0.00000000000E+00 0.  1.
         11    1    4    4    0    0  0.62398865198E+02  0.60439011860E+02 -0.18568285581E+03  0.20499906213E+03  0.00000000000E+00 0. -1.
          3    1    1    2  501    0 -0.57570590151E+02  0.26313714679E+02 -0.15862513574E+03  0.17078851870E+03  0.00000000000E+00 0. -1.
<scales pt_clust_5="13000.00000" pt_clust_6="13000.00000" pt_clust_7="13000.00000" pt_clust_8="13000.00000" pt_clust_9="63.29917"></scales>
<clustering>
<clus scale="   63.299">  2  9  1 -1</clus>
<clus scale="   87.340">  5  6 -1 -1</clus>
<clus scale="   89.381">  7  8 -1 -1</clus>
<clus scale="  105.419">  1  5  2 -1</clus>
<clus scale="   63.299">  2  5  1 -1</clus>
</clustering>
</event>
<event>
 9    1  0.1636528E-005  0.9232498E+02  0.7546771E-02  0.1297863E+00
         21   -1    0    0  501  502  0.00000000000E+00  0.00000000000E+00  0.20637664701E+03  0.20637664701E+03  0.00000000000E+00 0. -1.
         -4   -1    0    0    0  501 -0.00000000000E+00 -0.00000000000E+00 -0.12298712407E+03  0.12298712407E+03  0.00000000000E+00 0.  1.
         23    2    1    2    0    0 -0.22021192789E+02 -0.25130910902E+01 -0.56415739273E+02  0.11018186672E+03  0.92011192568E+02 0.  0.
         23    2    1    2    0    0 -0.32240134584E+02  0.31073622323E+01  0.38099443050E+02  0.10390520048E+03  0.91080410342E+02 0.  0.
        -11    1    4    4    0    0 -0.13226386837E+02  0.38029200678E+02  0.48274324140E+02  0.62861496834E+02  0.00000000000E+00 0.  1.
         11    1    4    4    0    0 -0.19013747747E+02 -0.34921838446E+02 -0.10174881090E+02  0.41043703646E+02  0.00000000000E+00 0. -1.
        -13    1    3    3    0    0 -0.31637469286E+02  0.22099855824E+02 -0.70400786318E+02  0.80284517837E+02  0.00000000000E+00 0.  1.
         13    1    3    3    0    0  0.96162764962E+01 -0.24612946914E+02  0.13985047045E+02  0.29897348884E+02  0.00000000000E+00 0. -1.
         -4    1    1    2    0  502  0.54261327374E+02 -0.59427114211E+00  0.10170581916E+03  0.11527670388E+03  0.00000000000E+00 0.  1.
<scales pt_clust_5="13000.00000" pt_clust_6="13000.00000" pt_clust_7="13000.00000" pt_clust_8="13000.00000" pt_clust_9="54.26458"></scales>
<clustering>
<clus scale="   54.265">  1  9  2 -1</clus>
<clus scale="   91.080">  5  6 -1 -1</clus>
<clus scale="   91.397">  1  5  2 -1</clus>
<clus scale="   92.011">  7  8 -1 -1</clus>
<clus scale="   54.265">  1  5  2 -1</clus>
</clustering>
</event>
<event>
 9    1  0.1636528E-005  0.9272424E+02  0.7546771E-02  0.1300046E+00
         21   -1    0    0  501  502  0.00000000000E+00  0.00000000000E+00  0.16969336485E+03  0.16969336485E+03  0.00000000000E+00 0. -1.
         -1   -1    0    0    0  501 -0.00000000000E+00 -0.00000000000E+00 -0.15428350664E+03  0.15428350664E+03  0.00000000000E+00 0.  1.
         23    2    1    2    0    0 -0.41507636052E+01  0.18715311411E+02 -0.11644112630E+03  0.14492501267E+03  0.84126284142E+02 0.  0.
         23    2    1    2    0    0  0.23745181566E+02 -0.30338089138E+02  0.11011154976E+03  0.14756165082E+03  0.90364008875E+02 0.  0.
        -13    1    4    4    0    0 -0.29421500883E+02  0.22909421504E+01  0.62401204310E+02  0.69027410711E+02  0.00000000000E+00 0.  1.
         13    1    4    4    0    0  0.53166682449E+02 -0.32629031289E+02  0.47710345452E+02  0.78534240104E+02  0.00000000000E+00 0. -1.
        -13    1    3    3    0    0  0.19439434166E+02 -0.49440374915E+01  0.35493445233E+01  0.20369903141E+02  0.00000000000E+00 0. -1.
         13    1    3    3    0    0 -0.23590197771E+02  0.23659348903E+02 -0.11999047082E+03  0.12455510953E+03  0.00000000000E+00 0.  1.
         -1    1    1    2    0  502 -0.19594417961E+02  0.11622777727E+02  0.21739434745E+02  0.31490208008E+02  0.00000000000E+00 0.  1.
<scales pt_clust_5="13000.00000" pt_clust_6="13000.00000" pt_clust_7="13000.00000" pt_clust_8="13000.00000" pt_clust_9="22.78223"></scales>
<clustering>
<clus scale="   22.782">  1  9  2 -1</clus>
<clus scale="   84.126">  7  8 -1 -1</clus>
<clus scale="   86.657">  2  7  1 -1</clus>
<clus scale="   90.364">  5  6 -1 -1</clus>
<clus scale="   22.782">  1  5  2 -1</clus>
</clustering>
</event>
<event>
 9    1  0.1636528E-005  0.1354756E+03  0.7546771E-02  0.1238157E+00
         21   -1    0    0  501  502  0.00000000000E+00  0.00000000000E+00  0.42125769083E+03  0.42125769083E+03  0.00000000000E+00 0. -1.
          4   -1    0    0  502    0 -0.00000000000E+00 -0.00000000000E+00 -0.80645426523E+02  0.80645426523E+02  0.00000000000E+00 0. -1.
         23    2    1    2    0    0 -0.14748826576E+01 -0.24247534912E+02  0.94288337062E+01  0.92667446257E+02  0.88928254579E+02 0.  0.
         23    2    1    2    0    0  0.87638198497E+02  0.58726400232E+02  0.24619981504E+03  0.28339798173E+03  0.92578740568E+02 0.  0.
        -13    1    4    4    0    0  0.97841828220E+02  0.33536953978E+02  0.14176763111E+03  0.17548735528E+03  0.00000000000E+00 0. -1.
         13    1    4    4    0    0 -0.10203629722E+02  0.25189446254E+02  0.10443218393E+03  0.10791062645E+03  0.00000000000E+00 0.  1.
        -13    1    3    3    0    0 -0.22833463974E+02  0.12595072563E+02 -0.26331228354E+02  0.37058555241E+02  0.00000000000E+00 0.  1.
         13    1    3    3    0    0  0.21358581316E+02 -0.36842607475E+02  0.35760062060E+02  0.55608891015E+02  0.00000000000E+00 0. -1.
          4    1    1    2  501    0 -0.86163315840E+02 -0.34478865320E+02  0.84983615564E+02  0.12583768936E+03  0.00000000000E+00 0. -1.
<scales pt_clust_5="13000.00000" pt_clust_6="13000.00000" pt_clust_7="13000.00000" pt_clust_8="13000.00000" pt_clust_9="98.90810"></scales>
<clustering>
<clus scale="   88.928">  7  8 -1 -1</clus>
<clus scale="   92.187">  2  7  1 -1</clus>
<clus scale="   92.579">  5  6 -1 -1</clus>
<clus scale="   98.908">  1  9  2 -1</clus>
<clus scale="   98.908">  1  5  2 -1</clus>
</clustering>
</event>
<event>
 9    1  0.1636528E-005  0.9953603E+02  0.7546771E-02  0.1281495E+00
         21   -1    0    0  501  502  0.00000000000E+00  0.00000000000E+00  0.92133595839E+02  0.92133595839E+02  0.00000000000E+00 0. -1.
          1   -1    0    0  502    0 -0.00000000000E+00 -0.00000000000E+00 -0.43444445038E+03  0.43444445038E+03  0.00000000000E+00 0. -1.
         23    2    1    2    0    0  0.33932882950E+02  0.18733281311E+02 -0.35501313988E+03  0.36889589283E+03  0.92452549377E+02 0.  0.
         23    2    1    2    0    0 -0.37689856169E+02  0.19612761183E+02 -0.24350943003E+02  0.10422679301E+03  0.92005816650E+02 0.  0.
        -11    1    3    3    0    0  0.64755442514E+02  0.14237178873E+02 -0.19748724133E+03  0.20831988644E+03  0.00000000000E+00 0. -1.
         11    1    3    3    0    0 -0.30822559564E+02  0.44961024385E+01 -0.15752589855E+03  0.16057600639E+03  0.00000000000E+00 0.  1.
        -13    1    4    4    0    0 -0.54514795437E+02  0.37534968420E+02  0.44801486007E+01  0.66338589880E+02  0.00000000000E+00 0. -1.
         13    1    4    4    0    0  0.16824939268E+02 -0.17922207236E+02 -0.28831091604E+02  0.37888203133E+02  0.00000000000E+00 0.  1.
          1    1    1    2  501    0  0.37569732198E+01 -0.38346042494E+02  0.37053228338E+02  0.53455360377E+02  0.00000000000E+00 0. -1.
<scales pt_clust_5="13000.00000" pt_clust_6="13000.00000" pt_clust_7="13000.00000" pt_clust_8="13000.00000" pt_clust_9="38.52965"></scales>
<clustering>
<clus scale="   38.530">  1  9  2 -1</clus>
<clus scale="   92.006">  7  8 -1 -1</clus>
<clus scale="   92.453">  5  6 -1 -1</clus>
<clus scale="   99.121">  1  7  2 -1</clus>
<clus scale="   38.530">  1  5  2 -1</clus>
</clustering>
</event>
<event>
 9    1  0.1636528E-005  0.1127845E+03  0.7546771E-02  0.1258928E+00
          1   -1    0    0  502    0 -0.00000000000E+00  0.00000000000E+00  0.49981526469E+03  0.49981526469E+03  0.00000000000E+00 0. -1.
         21   -1    0    0  501  502  0.00000000000E+00 -0.00000000000E+00 -0.53717314836E+02  0.53717314836E+02  0.00000000000E+00 0. -1.
         23    2    1    2    0    0 -0.37345570875E+02 -0.61713706962E+02  0.23786939465E+03  0.26635224027E+03  0.95699496832E+02 0.  0.
         23    2    1    2    0    0 -0.34951686247E+02  0.57304717978E+02  0.17704631923E+03  0.20832183045E+03  0.86874247142E+02 0.  0.
        -11    1    3    3    0    0  0.24194610926E+02 -0.40197166189E+01  0.11319445344E+03  0.11582107585E+03  0.00000000000E+00 0.  1.
         11    1    3    3    0    0 -0.61540181800E+02 -0.57693990344E+02  0.12467494120E+03  0.15053116442E+03  0.00000000000E+00 0. -1.
        -13    1    4    4    0    0  0.37868315707E+01  0.64584844652E+02  0.14001231489E+03  0.15423680032E+03  0.00000000000E+00 0. -1.
         13    1    4    4    0    0 -0.38738517817E+02 -0.72801266735E+01  0.37034004339E+02  0.54085030133E+02  0.00000000000E+00 0.  1.
          1    1    1    2  501    0  0.72297257121E+02  0.44089889844E+01  0.31182235981E+02  0.78858508811E+02  0.00000000000E+00 0. -1.
<scales pt_clust_5="13000.00000" pt_clust_6="13000.00000" pt_clust_7="13000.00000" pt_clust_8="13000.00000" pt_clust_9="72.43157"></scales>
<clustering>
<clus scale="   72.432">  2  9  1 -1</clus>
<clus scale="   86.874">  7  8 -1 -1</clus>
<clus scale="   95.699">  5  6 -1 -1</clus>
<clus scale="  105.400">  2  7  1 -1</clus>
<clus scale="   72.432">  2  5  1 -1</clus>
</clustering>
</event>
<event>
 9    1  0.1636528E-005  0.9747576E+02  0.7546771E-02  0.1285845E+00
         21   -1    0    0  501  502  0.00000000000E+00  0.00000000000E+00  0.18475099634E+03  0.18475099634E+03  0.00000000000E+00 0. -1.
         -3   -1    0    0    0  501 -0.00000000000E+00 -0.00000000000E+00 -0.25839484106E+03  0.25839484106E+03  0.00000000000E+00 0.  1.
         23    2    1    2    0    0 -0.31344598643E+02  0.15840884137E+02 -0.21511383298E+03  0.23678914680E+03  0.92529570569E+02 0.  0.
         23    2    1    2    0    0 -0.25783331165E+01 -0.63626554236E+01  0.43432893611E+02  0.10218436201E+03  0.92239343048E+02 0.  0.
        -13    1    3    3    0    0 -0.93164737583E+01  0.52270293864E+02 -0.88443071766E+02  0.10315598503E+03  0.00000000000E+00 0.  1.
         13    1    3    3    0    0 -0.22028124885E+02 -0.36429409727E+02 -0.12667076121E+03  0.13363316177E+03  0.00000000000E+00 0. -1.
        -13    1    4    4    0    0  0.59444635534E+01 -0.34433296044E+02  0.59302166461E+02  0.68831210002E+02  0.00000000000E+00 0. -1.
         13    1    4    4    0    0 -0.85227966698E+01  0.28070640620E+02 -0.15869272850E+02  0.33353152006E+02  0.00000000000E+00 0.  1.
         -3    1    1    2    0  502  0.33922931760E+02 -0.94782287132E+01  0.98037094639E+02  0.10417232859E+03  0.00000000000E+00 0.  1.
<scales pt_clust_5="13000.00000" pt_clust_6="13000.00000" pt_clust_7="13000.00000" pt_clust_8="13000.00000" pt_clust_9="35.22218"></scales>
<clustering>
<clus scale="   35.222">  1  9  2 -1</clus>
<clus scale="   92.239">  7  8 -1 -1</clus>
<clus scale="   92.530">  5  6 -1 -1</clus>
<clus scale="   97.200">  1  7  2 -1</clus>
<clus scale="   35.222">  1  5  2 -1</clus>
</clustering>
</event>
<event>
 9    1  0.1636528E-005  0.1319895E+03  0.7546771E-02  0.1225901E+00
         21   -1    0    0  501  502  0.00000000000E+00  0.00000000000E+00  0.21063002432E+03  0.21063002432E+03  0.00000000000E+00 0.  1.
          1   -1    0    0  502    0 -0.00000000000E+00 -0.00000000000E+00 -0.34691632384E+03  0.34691632384E+03  0.00000000000E+00 0. -1.
         23    2    1    2    0    0  0.78883265865E+02 -0.36497470600E+02 -0.24144809896E+03  0.27256220773E+03  0.91860424558E+02 0.  0.
         23    2    1    2    0    0 -0.92052603248E+02  0.86379919759E+02  0.14843485679E+03  0.21764731785E+03  0.96965333780E+02 0.  0.
        -11    1    4    4    0    0 -0.10473371082E+03  0.42040192741E+02  0.10029830443E+03  0.15098436297E+03  0.00000000000E+00 0. -1.
         11    1    4    4    0    0  0.12681107572E+02  0.44339727018E+02  0.48136552360E+02  0.66662954888E+02  0.00000000000E+00 0.  1.
        -13    1    3    3    0    0  0.39033704528E+02 -0.29625114842E+02 -0.30381581104E+02  0.57656898884E+02  0.00000000000E+00 0.  1.
         13    1    3    3    0    0  0.39849561337E+02 -0.68723557582E+01 -0.21106651785E+03  0.21490530885E+03  0.00000000000E+00 0. -1.
          1    1    1    2  501    0  0.13169337383E+02 -0.49882449158E+02 -0.43273057354E+02  0.67336822571E+02  0.00000000000E+00 0. -1.
<scales pt_clust_5="13000.00000" pt_clust_6="13000.00000" pt_clust_7="13000.00000" pt_clust_8="13000.00000" pt_clust_9="51.59160"></scales>
<clustering>
<clus scale="   51.592">  1  9  2 -1</clus>
<clus scale="   91.860">  7  8 -1 -1</clus>
<clus scale="   96.965">  5  6 -1 -1</clus>
<clus scale="  128.286">  2  7  1 -1</clus>
<clus scale="   51.592">  1  5  2 -1</clus>
</clustering>
</event>
<event>
 9    1  0.1636528E-005  0.1691664E+03  0.7546771E-02  0.1205607E+00
          3   -1    0    0  502    0 -0.00000000000E+00  0.00000000000E+00  0.20660857019E+03  0.20660857019E+03  0.00000000000E+00 0. -1.
         21   -1    0    0  501  502  0.00000000000E+00 -0.00000000000E+00 -0.39177683123E+03  0.39177683123E+03  0.00000000000E+00 0.  1.
         23    2    1    2    0    0  0.16921615581E+02 -0.49145868418E+01  0.11740637022E+03  0.15014644329E+03  0.91919554092E+02 0.  0.
         23    2    1    2    0    0 -0.14407542692E+03  0.55819803010E+02 -0.10589417118E+03  0.20856702371E+03  0.91722673521E+02 0.  0.
        -13    1    3    3    0    0  0.31800102067E+02 -0.24888448128E+02  0.11852477633E+03  0.12521503083E+03  0.00000000000E+00 0. -1.
         13    1    3    3    0    0 -0.14878486485E+02  0.19973861286E+02 -0.11184061072E+01  0.24931412455E+02  0.00000000000E+00 0.  1.
        -13    1    4    4    0    0 -0.16550034024E+02 -0.21815797334E+02 -0.31571045666E+02  0.41791907876E+02  0.00000000000E+00 0. -1.
         13    1    4    4    0    0 -0.12752539290E+03  0.77635600344E+02 -0.74323125513E+02  0.16677511583E+03  0.00000000000E+00 0.  1.
          3    1    1    2  501    0  0.12715381134E+03 -0.50905216168E+02 -0.19668046009E+03  0.23967193442E+03  0.00000000000E+00 0. -1.
<scales pt_clust_5="13000.00000" pt_clust_6="13000.00000" pt_clust_7="13000.00000" pt_clust_8="13000.00000" pt_clust_9="142.14159"></scales>
<clustering>
<clus scale="   91.723">  7  8 -1 -1</clus>
<clus scale="   91.920">  5  6 -1 -1</clus>
<clus scale="   93.593">  1  5  2 -1</clus>
<clus scale="  142.142">  2  9  1 -1</clus>
<clus scale="  142.142">  2  5  1 -1</clus>
</clustering>
</event>
<event>
 9    1  0.1636528E-005  0.9307413E+02  0.7546771E-02  0.1296337E+00
          4   -1    0    0  502    0 -0.00000000000E+00  0.00000000000E+00  0.11461764076E+03  0.11461764076E+03  0.00000000000E+00 0. -1.
         21   -1    0    0  501  502  0.00000000000E+00 -0.00000000000E+00 -0.30750802736E+03  0.30750802736E+03  0.00000000000E+00 0. -1.
         23    2    1    2    0    0 -0.19821455092E+02 -0.15374147071E+02  0.33541734745E+02  0.10119624766E+03  0.92121539772E+02 0.  0.
         23    2    1    2    0    0  0.40540424829E+01 -0.18478829180E+02 -0.13379350412E+01  0.92758370561E+02  0.90798804236E+02 0.  0.
        -11    1    4    4    0    0 -0.10919729994E+02 -0.53527432376E+02 -0.12888776105E+01  0.54645107058E+02  0.00000000000E+00 0. -1.
         11    1    4    4    0    0  0.14973772477E+02  0.35048603196E+02 -0.49057430709E-01  0.38113263503E+02  0.00000000000E+00 0.  1.
        -11    1    3    3    0    0 -0.39882137279E+02  0.12572503884E+02  0.48192038806E+02  0.63805370715E+02  0.00000000000E+00 0. -1.
         11    1    3    3    0    0  0.20060682187E+02 -0.27946650954E+02 -0.14650304061E+02  0.37390876942E+02  0.00000000000E+00 0.  1.
          4    1    1    2  501    0  0.15767412609E+02  0.33852976251E+02 -0.22509418631E+03  0.22817104990E+03  0.00000000000E+00 0. -1.
<scales pt_clust_5="13000.00000" pt_clust_6="13000.00000" pt_clust_7="13000.00000" pt_clust_8="13000.00000" pt_clust_9="37.34482"></scales>
<clustering>
<clus scale="   37.345">  2  9  1 -1</clus>
<clus scale="   90.799">  5  6 -1 -1</clus>
<clus scale="   91.765">  2  5  1 -1</clus>
<clus scale="   92.122">  7  8 -1 -1</clus>
<clus scale="   37.345">  2  5  1 -1</clus>
</clustering>
</event>
<event>
 9    1  0.1636528E-005  0.1403932E+03  0.7546771E-02  0.1213255E+00
         21   -1    0    0  501  502  0.00000000000E+00  0.00000000000E+00  0.13805861838E+03  0.13805861838E+03  0.00000000000E+00 0.  1.
         -2   -1    0    0    0  501 -0.00000000000E+00 -0.00000000000E+00 -0.25345075638E+03  0.25345075638E+03  0.00000000000E+00 0.  1.
         23    2    1    2    0    0  0.95049582530E+02  0.26584039343E+02 -0.56235597306E+02  0.14598988906E+03  0.91703167974E+02 0.  0.
         23    2    1    2    0    0 -0.12292002130E+03  0.46386859357E+02 -0.28328647206E+02  0.16154405816E+03  0.89626436481E+02 0.  0.
        -11    1    3    3    0    0  0.16312360410E+02 -0.20820618787E+02 -0.46595854319E+02  0.53579519488E+02  0.00000000000E+00 0.  1.
         11    1    3    3    0    0  0.78737222119E+02  0.47404658130E+02 -0.96397429875E+01  0.92410369572E+02  0.00000000000E+00 0. -1.
        -11    1    4    4    0    0 -0.61838649468E+01 -0.20803578652E+02 -0.14594277834E+02  0.26153814558E+02  0.00000000000E+00 0. -1.
         11    1    4    4    0    0 -0.11673615636E+03  0.67190438010E+02 -0.13734369373E+02  0.13539024360E+03  0.00000000000E+00 0.  1.
         -2    1    1    2    0  502  0.27870438775E+02 -0.72970898700E+02 -0.30827893484E+02  0.83975427545E+02  0.00000000000E+00 0.  1.
<scales pt_clust_5="13000.00000" pt_clust_6="13000.00000" pt_clust_7="13000.00000" pt_clust_8="13000.00000" pt_clust_9="78.11222"></scales>
<clustering>
<clus scale="   78.112">  1  9  2 -1</clus>
<clus scale="   89.626">  7  8 -1 -1</clus>
<clus scale="   91.703">  5  6 -1 -1</clus>
<clus scale="  139.046">  1  7  2 -1</clus>
<clus scale="   78.112">  1  5  2 -1</clus>
</clustering>
</event>
<event>
 9    1  0.1636528E-005  0.1414003E+03  0.7546771E-02  0.1211662E+00
         -1   -1    0    0    0  501 -0.00000000000E+00  0.00000000000E+00  0.29358326391E+03  0.29358326391E+03  0.00000000000E+00 0.  1.
         21   -1    0    0  501  502  0.00000000000E+00 -0.00000000000E+00 -0.13984476544E+03  0.13984476544E+03  0.00000000000E+00 0.  1.
         23    2    1    2    0    0  0.77779507672E+02 -0.68359287647E+02  0.17558470567E+03  0.22350767088E+03  0.91668129984E+02 0.  0.
         23    2    1    2    0    0 -0.11858282641E+03  0.39261898976E+02 -0.63294567880E+00  0.15550003771E+03  0.92609274254E+02 0.  0.
        -11    1    3    3    0    0 -0.12980780279E+02 -0.15318424267E+02  0.14863804183E+01  0.20133656037E+02  0.00000000000E+00 0. -1.
         11    1    3    3    0    0  0.90760287951E+02 -0.53040863380E+02  0.17409832525E+03  0.20337401484E+03  0.00000000000E+00 0.  1.
        -13    1    4    4    0    0 -0.97251312521E+02  0.43912717170E+02  0.36202978229E+02  0.11268007876E+03  0.00000000000E+00 0.  1.
         13    1    4    4    0    0 -0.21331513886E+02 -0.46508181937E+01 -0.36835923908E+02  0.42819958952E+02  0.00000000000E+00 0. -1.
         -1    1    1    2    0  502  0.40803318734E+02  0.29097388670E+02 -0.21213261518E+02  0.54420320758E+02  0.00000000000E+00 0.  1.
<scales pt_clust_5="13000.00000" pt_clust_6="13000.00000" pt_clust_7="13000.00000" pt_clust_8="13000.00000" pt_clust_9="50.11555"></scales>
<clustering>
<clus scale="   50.116">  2  9  1 -1</clus>
<clus scale="   91.668">  5  6 -1 -1</clus>
<clus scale="   92.609">  7  8 -1 -1</clus>
<clus scale="  140.786">  1  5  2 -1</clus>
<clus scale="   50.116">  2  5  1 -1</clus>
</clustering>
</event>
<event>
 9    1  0.1636528E-005  0.1719683E+03  0.7546771E-02  0.1185654E+00
         21   -1    0    0  501  502  0.00000000000E+00  0.00000000000E+00  0.34614285987E+03  0.34614285987E+03  0.00000000000E+00 0. -1.
          2   -1    0    0  502    0 -0.00000000000E+00 -0.00000000000E+00 -0.16468512340E+03  0.16468512340E+03  0.00000000000E+00 0. -1.
         23    2    1    2    0    0  0.86285281348E+02  0.54469972353E+02  0.74215746051E+02  0.15657726692E+03  0.92716427291E+02 0.  0.
         23    2    1    2    0    0  0.14642524129E+02 -0.16141361294E+03  0.33966468002E+02  0.18995626615E+03  0.93063978770E+02 0.  0.
        -11    1    4    4    0    0  0.28211105491E+02 -0.14193686334E+03 -0.44684063480E+01  0.14478227206E+03  0.00000000000E+00 0. -1.
         11    1    4    4    0    0 -0.13568581362E+02 -0.19476749596E+02  0.38434874350E+02  0.45173994082E+02  0.00000000000E+00 0.  1.
        -11    1    3    3    0    0  0.94778157593E+02  0.15330440519E+02  0.63529806820E+02  0.11512583515E+03  0.00000000000E+00 0.  1.
         11    1    3    3    0    0 -0.84928762458E+01  0.39139531834E+02  0.10685939231E+02  0.41451431777E+02  0.00000000000E+00 0. -1.
          2    1    1    2  501    0 -0.10092780548E+03  0.10694364059E+03  0.73275522419E+02  0.16429445020E+03  0.00000000000E+00 0. -1.
<scales pt_clust_5="13000.00000" pt_clust_6="13000.00000" pt_clust_7="13000.00000" pt_clust_8="13000.00000" pt_clust_9="144.61044"></scales>
<clustering>
<clus scale="   92.716">  7  8 -1 -1</clus>
<clus scale="   93.064">  5  6 -1 -1</clus>
<clus scale="  137.871">  2  7  1 -1</clus>
<clus scale="  144.610">  1  9  2 -1</clus>
<clus scale="  144.610">  1  5  2 -1</clus>
</clustering>
</event>
<event>
 9    1  0.1636528E-005  0.1020549E+03  0.7546771E-02  0.1276799E+00
          2   -1    0    0  502    0 -0.00000000000E+00  0.00000000000E+00  0.33766172686E+03  0.33766172686E+03  0.00000000000E+00 0. -1.
         21   -1    0    0  501  502  0.00000000000E+00 -0.00000000000E+00 -0.11998279602E+03  0.11998279602E+03  0.00000000000E+00 0. -1.
         23    2    1    2    0    0  0.34325233094E+02  0.86239887713E+01  0.18756235731E+03  0.21106489250E+03  0.90089711716E+02 0.  0.
         23    2    1    2    0    0 -0.10650027863E+03 -0.42665312357E+02 -0.25787475191E+02  0.14914600388E+03  0.91743655746E+02 0.  0.
        -11    1    3    3    0    0 -0.23872857666E+02  0.23359009332E+02  0.42378438275E+02  0.53958212357E+02  0.00000000000E+00 0. -1.
         11    1    3    3    0    0  0.58198090761E+02 -0.14735020561E+02  0.14518391904E+03  0.15710668015E+03  0.00000000000E+00 0.  1.
        -13    1    4    4    0    0 -0.39473593420E+02  0.25482888438E+02 -0.25711654229E+02  0.53559605523E+02  0.00000000000E+00 0. -1.
         13    1    4    4    0    0 -0.67026685213E+02 -0.68148200795E+02 -0.75820961411E-01  0.95586398358E+02  0.00000000000E+00 0.  1.
          2    1    1    2  501    0  0.72175045539E+02  0.34041323586E+02  0.55904048719E+02  0.97433626501E+02  0.00000000000E+00 0. -1.
<scales pt_clust_5="13000.00000" pt_clust_6="13000.00000" pt_clust_7="13000.00000" pt_clust_8="13000.00000" pt_clust_9="79.80010"></scales>
<clustering>
<clus scale="   79.800">  2  9  1 -1</clus>
<clus scale="   90.090">  5  6 -1 -1</clus>
<clus scale="   91.744">  7  8 -1 -1</clus>
<clus scale="  100.571">  1  5  2 -1</clus>
<clus scale="   79.800">  2  5  1 -1</clus>
</clustering>
</event>
<event>
 9    1  0.1636528E-005  0.1240002E+03  0.7546771E-02  0.1242201E+00
          2   -1    0    0  502    0 -0.00000000000E+00  0.00000000000E+00  0.55907333933E+02  0.55907333933E+02  0.00000000000E+00 0. -1.
         21   -1    0    0  501  502  0.00000000000E+00 -0.00000000000E+00 -0.36486928552E+03  0.36486928552E+03  0.00000000000E+00 0.  1.
         23    2    1    2    0    0  0.34258274949E+02 -0.48408712953E+02 -0.10121205338E+03  0.15942008885E+03  0.10795300871E+03 0.  0.
         23    2    1    2    0    0 -0.13454005644E+02  0.63802448223E+02 -0.10141553927E+03  0.15191805200E+03  0.92424132410E+02 0.  0.
        -11    1    3    3    0    0  0.41778996245E+02 -0.79871804242E+02 -0.81615181374E+02  0.12159781030E+03  0.00000000000E+00 0. -1.
         11    1    3    3    0    0 -0.75207212955E+01  0.31463091289E+02 -0.19596872003E+02  0.37822278548E+02  0.00000000000E+00 0.  1.
        -13    1    4    4    0    0  0.12948514557E+02  0.36180900982E+02 -0.10663947468E+03  0.11335210270E+03  0.00000000000E+00 0.  1.
         13    1    4    4    0    0 -0.26402520201E+02  0.27621547241E+02  0.52239354094E+01  0.38565949309E+02  0.00000000000E+00 0. -1.
          2    1    1    2  501    0 -0.20804269305E+02 -0.15393735270E+02 -0.10633435894E+03  0.10943847860E+03  0.00000000000E+00 0. -1.
<scales pt_clust_5="13000.00000" pt_clust_6="13000.00000" pt_clust_7="13000.00000" pt_clust_8="13000.00000" pt_clust_9="25.88020"></scales>
<clustering>
<clus scale="   25.880">  2  9  1 -1</clus>
<clus scale="   92.424">  7  8 -1 -1</clus>
<clus scale="  107.953">  5  6 -1 -1</clus>
<clus scale="  110.745">  2  7  1 -1</clus>
<clus scale="   25.880">  2  5  1 -1</clus>
</clustering>
</event>
<event>
 9    1  0.1636528E-005  0.1119267E+03  0.7546771E-02  0.1257534E+00
         21   -1    0    0  501  502  0.00000000000E+00  0.00000000000E+00  0.10166113521E+03  0.10166113521E+03  0.00000000000E+00 0.  1.
         -2   -1    0    0    0  501 -0.00000000000E+00 -0.00000000000E+00 -0.26463241415E+03  0.26463241415E+03  0.00000000000E+00 0.  1.
         23    2    1    2    0    0  0.20622093097E+02 -0.66071885345E+02 -0.15931965843E+03  0.19659370643E+03  0.92062843149E+02 0.  0.
         23    2    1    2    0    0 -0.31990114796E+02  0.45305708837E+02 -0.50102351179E+02  0.11756409336E+03  0.90747428371E+02 0.  0.
        -11    1    4    4    0    0  0.60126702069E+01  0.42841271453E+02 -0.63807571670E+02  0.77090420580E+02  0.00000000000E+00 0.  1.
         11    1    4    4    0    0 -0.38002785003E+02  0.24644373839E+01  0.13705220491E+02  0.40473672780E+02  0.00000000000E+00 0. -1.
        -13    1    3    3    0    0 -0.49717934378E+01 -0.78169261680E+02 -0.14515284141E+03  0.16493786579E+03  0.00000000000E+00 0.  1.
         13    1    3    3    0    0  0.25593886534E+02  0.12097376334E+02 -0.14166817016E+02  0.31655840638E+02  0.00000000000E+00 0. -1.
         -2    1    1    2    0  502  0.11368021700E+02  0.20766176509E+02  0.46450730663E+02  0.52135749570E+02  0.00000000000E+00 0.  1.
<scales pt_clust_5="13000.00000" pt_clust_6="13000.00000" pt_clust_7="13000.00000" pt_clust_8="13000.00000" pt_clust_9="23.67416"></scales>
<clustering>
<clus scale="   23.674">  1  9  2 -1</clus>
<clus scale="   90.747">  5  6 -1 -1</clus>
<clus scale="   92.063">  7  8 -1 -1</clus>
<clus scale="  110.847">  1  5  2 -1</clus>
<clus scale="   23.674">  1  5  2 -1</clus>
</clustering>
</event>
<event>
 9    1  0.1636528E-005  0.1131672E+03  0.7546771E-02  0.1255618E+00
          1   -1    0    0  502    0 -0.00000000000E+00  0.00000000000E+00  0.60317858817E+03  0.60317858817E+03  0.00000000000E+00 0. -1.
         21   -1    0    0  501  502  0.00000000000E+00 -0.00000000000E+00 -0.41860488818E+02  0.41860488818E+02  0.00000000000E+00 0. -1.
         23    2    1    2    0    0 -0.12057197928E+02  0.69782851693E+02  0.38548884090E+03  0.40327626914E+03  0.94947777106E+02 0.  0.
         23    2    1    2    0    0 -0.25973885854E+02 -0.36249891381E+02  0.70282318289E+02  0.12466891673E+03  0.92811837405E+02 0.  0.
        -11    1    3    3    0    0  0.32822866591E+02  0.14179439264E+02  0.58421937512E+02  0.68494670244E+02  0.00000000000E+00 0.  1.
         11    1    3    3    0    0 -0.44880064520E+02  0.55603412429E+02  0.32706690339E+03  0.33478159889E+03  0.00000000000E+00 0. -1.
        -13    1    4    4    0    0  0.14358807800E+02 -0.41966918771E+02  0.71242273042E+02  0.83921743909E+02  0.00000000000E+00 0.  1.
         13    1    4    4    0    0 -0.40332693654E+02  0.57170273906E+01 -0.95995475232E+00  0.40747172818E+02  0.00000000000E+00 0. -1.
          1    1    1    2  501    0  0.38031083782E+02 -0.33532960312E+02  0.10554694016E+03  0.11709389112E+03  0.00000000000E+00 0. -1.
<scales pt_clust_5="13000.00000" pt_clust_6="13000.00000" pt_clust_7="13000.00000" pt_clust_8="13000.00000" pt_clust_9="50.70331"></scales>
<clustering>
<clus scale="   50.703">  2  9  1 -1</clus>
<clus scale="   92.812">  7  8 -1 -1</clus>
<clus scale="   94.948">  5  6 -1 -1</clus>
<clus scale="  111.381">  2  7  1 -1</clus>
<clus scale="   50.703">  2  5  1 -1</clus>
</clustering>
</event>
<event>
 9    1  0.1636528E-005  0.1028735E+03  0.7546771E-02  0.1274622E+00
         21   -1    0    0  501  502  0.00000000000E+00  0.00000000000E+00  0.80967951585E+02  0.80967951585E+02  0.00000000000E+00 0.  1.
          1   -1    0    0  502    0 -0.00000000000E+00 -0.00000000000E+00 -0.38504070676E+03  0.38504070676E+03  0.00000000000E+00 0. -1.
         23    2    1    2    0    0 -0.35057667970E+02 -0.11003649173E+02 -0.24243438765E+03  0.26193186277E+03  0.92107263772E+02 0.  0.
         23    2    1    2    0    0  0.91133907877E+02 -0.17887031798E+02 -0.36563669847E+02  0.13619486431E+03  0.92665009791E+02 0.  0.
        -11    1    4    4    0    0  0.71781334908E+02  0.30154452344E+02 -0.11661399728E+02  0.78726356965E+02  0.00000000000E+00 0.  1.
         11    1    4    4    0    0  0.19352572969E+02 -0.48041484142E+02 -0.24902270119E+02  0.57468507343E+02  0.00000000000E+00 0. -1.
        -13    1    3    3    0    0  0.26677126780E+02  0.16350393308E+02 -0.66801902425E+02  0.73766514234E+02  0.00000000000E+00 0.  1.
         13    1    3    3    0    0 -0.61734794751E+02 -0.27354042481E+02 -0.17563248523E+03  0.18816534854E+03  0.00000000000E+00 0. -1.
          1    1    1    2  501    0 -0.56076239907E+02  0.28890680972E+02 -0.25074697680E+02  0.67881931269E+02  0.00000000000E+00 0. -1.
<scales pt_clust_5="13000.00000" pt_clust_6="13000.00000" pt_clust_7="13000.00000" pt_clust_8="13000.00000" pt_clust_9="63.08103"></scales>
<clustering>
<clus scale="   63.081">  1  9  2 -1</clus>
<clus scale="   92.107">  7  8 -1 -1</clus>
<clus scale="   92.665">  5  6 -1 -1</clus>
<clus scale="  102.371">  2  7  1 -1</clus>
<clus scale="   63.081">  1  5  2 -1</clus>
</clustering>
</event>
<event>
 9    1  0.1636528E-005  0.9685201E+02  0.7546771E-02  0.1287561E+00
         21   -1    0    0  501  502  0.00000000000E+00  0.00000000000E+00  0.99937167989E+02  0.99937167989E+02  0.00000000000E+00 0.  1.
          3   -1    0    0  502    0 -0.00000000000E+00 -0.00000000000E+00 -0.31895849273E+03  0.31895849273E+03  0.00000000000E+00 0. -1.
         23    2    1    2    0    0 -0.26708954566E+02  0.51960394006E+00 -0.16078842292E+03  0.18837439290E+03  0.94437051587E+02 0.  0.
         23    2    1    2    0    0 -0.24669818135E+02 -0.55105535433E+02 -0.95636184935E+02  0.14674532981E+03  0.93502363550E+02 0.  0.
        -11    1    3    3    0    0 -0.30969046772E+02  0.43834099618E+02 -0.75630270219E+02  0.92738599950E+02  0.00000000000E+00 0.  1.
         11    1    3    3    0    0  0.42600922056E+01 -0.43314495678E+02 -0.85158152702E+02  0.95635792949E+02  0.00000000000E+00 0. -1.
        -13    1    4    4    0    0 -0.78461676111E+00  0.26354296623E+02 -0.24472229433E+02  0.35972970233E+02  0.00000000000E+00 0. -1.
         13    1    4    4    0    0 -0.23885201374E+02 -0.81459832056E+02 -0.71163955501E+02  0.11077235958E+03  0.00000000000E+00 0.  1.
          3    1    1    2  501    0  0.51378772701E+02  0.54585931493E+02  0.37403283118E+02  0.83775938009E+02  0.00000000000E+00 0. -1.
<scales pt_clust_5="13000.00000" pt_clust_6="13000.00000" pt_clust_7="13000.00000" pt_clust_8="13000.00000" pt_clust_9="74.96267"></scales>
<clustering>
<clus scale="   74.963">  1  9  2 -1</clus>
<clus scale="   93.502">  7  8 -1 -1</clus>
<clus scale="   94.437">  5  6 -1 -1</clus>
<clus scale="   95.941">  1  7  2 -1</clus>
<clus scale="   74.963">  1  5  2 -1</clus>
</clustering>
</event>
<event>
 9    1  0.1636528E-005  0.9096439E+02  0.7546771E-02  0.1300678E+00
         21   -1    0    0  501  502  0.00000000000E+00  0.00000000000E+00  0.57493824341E+02  0.57493824341E+02  0.00000000000E+00 0. -1.
         -1   -1    0    0    0  501 -0.00000000000E+00 -0.00000000000E+00 -0.29330166673E+03  0.29330166673E+03  0.00000000000E+00 0.  1.
         23    2    1    2    0    0  0.76380635073E+01  0.15929046456E+02 -0.20085714058E+03  0.22083937206E+03  0.90079757969E+02 0.  0.
         23    2    1    2    0    0 -0.99154778099E+01  0.76619454143E+01 -0.48291949112E+02  0.10275850160E+03  0.89834153834E+02 0.  0.
        -11    1    4    4    0    0  0.39602591530E+02  0.10409868076E+02 -0.24901346635E+02  0.47925021372E+02  0.00000000000E+00 0.  1.
         11    1    4    4    0    0 -0.49518069340E+02 -0.27479226621E+01 -0.23390602477E+02  0.54833480232E+02  0.00000000000E+00 0. -1.
        -13    1    3    3    0    0 -0.21563736311E+02 -0.30226187198E+02 -0.77780285223E+02  0.86188107564E+02  0.00000000000E+00 0. -1.
         13    1    3    3    0    0  0.29201799818E+02  0.46155233654E+02 -0.12307685535E+03  0.13465126450E+03  0.00000000000E+00 0.  1.
         -1    1    1    2    0  502  0.22774143026E+01 -0.23590991871E+02  0.13341247298E+02  0.27197617410E+02  0.00000000000E+00 0.  1.
<scales pt_clust_5="13000.00000" pt_clust_6="13000.00000" pt_clust_7="13000.00000" pt_clust_8="13000.00000" pt_clust_9="23.70066"></scales>
<clustering>
<clus scale="   23.701">  1  9  2 -1</clus>
<clus scale="   89.834">  5  6 -1 -1</clus>
<clus scale="   90.080">  7  8 -1 -1</clus>
<clus scale="   90.721">  1  5  2 -1</clus>
<clus scale="   23.701">  1  5  2 -1</clus>
</clustering>
</event>
<event>
 9    1  0.1636528E-005  0.9591429E+02  0.7546771E-02  0.1289807E+00
         21   -1    0    0  501  502  0.00000000000E+00  0.00000000000E+00  0.45069016225E+03  0.45069016225E+03  0.00000000000E+00 0.  1.
          1   -1    0    0  502    0 -0.00000000000E+00 -0.00000000000E+00 -0.11702494937E+03  0.11702494937E+03  0.00000000000E+00 0. -1.
         23    2    1    2    0    0  0.15263514308E+02  0.22718236366E+02 -0.82425128969E+02  0.12504614019E+03  0.89964115952E+02 0.  0.
         23    2    1    2    0    0 -0.49677132392E+02 -0.41499200929E+02  0.30623147322E+03  0.32602424263E+03  0.91236453416E+02 0.  0.
        -11    1    3    3    0    0  0.35577830977E+02 -0.60795222902E+01 -0.82231298716E+02  0.89803836983E+02  0.00000000000E+00 0. -1.
         11    1    3    3    0    0 -0.20314316669E+02  0.28797758657E+02 -0.19383025284E+00  0.35242303210E+02  0.00000000000E+00 0.  1.
        -13    1    4    4    0    0 -0.27719530820E+02  0.18510280881E+02  0.19428900844E+03  0.19712742500E+03  0.00000000000E+00 0.  1.
         13    1    4    4    0    0 -0.21957601573E+02 -0.60009481810E+02  0.11194246478E+03  0.12889681763E+03  0.00000000000E+00 0. -1.
          1    1    1    2  501    0  0.34413618085E+02  0.18780964563E+02  0.10985886862E+03  0.11664472879E+03  0.00000000000E+00 0. -1.
<scales pt_clust_5="13000.00000" pt_clust_6="13000.00000" pt_clust_7="13000.00000" pt_clust_8="13000.00000" pt_clust_9="39.20487"></scales>
<clustering>
<clus scale="   39.205">  1  9  2 -1</clus>
<clus scale="   89.964">  5  6 -1 -1</clus>
<clus scale="   91.236">  7  8 -1 -1</clus>
<clus scale="   94.705">  2  5  1 -1</clus>
<clus scale="   39.205">  1  5  2 -1</clus>
</clustering>
</event>
<event>
 9    1  0.1636528E-005  0.1867104E+03  0.7546771E-02  0.1161943E+00
         21   -1    0    0  501  502  0.00000000000E+00  0.00000000000E+00  0.22947594076E+03  0.22947594076E+03  0.00000000000E+00 0. -1.
          3   -1    0    0  502    0 -0.00000000000E+00 -0.00000000000E+00 -0.39824646741E+03  0.39824646741E+03  0.00000000000E+00 0. -1.
         23    2    1    2    0    0 -0.13474495748E+03 -0.56546183784E+02 -0.13046555948E+03  0.21698901547E+03  0.93323609868E+02 0.  0.
         23    2    1    2    0    0  0.14906324223E+03  0.89230873849E+02 -0.17766258529E+03  0.26687982837E+03  0.97359383464E+02 0.  0.
        -11    1    3    3    0    0 -0.13113735482E+03 -0.24010937492E+02 -0.76042123740E+02  0.15347943032E+03  0.00000000000E+00 0.  1.
         11    1    3    3    0    0 -0.36076026555E+01 -0.32535246292E+02 -0.54423435737E+02  0.63509585148E+02  0.00000000000E+00 0. -1.
        -11    1    4    4    0    0  0.20963393801E+02  0.60379160581E+02 -0.34550808519E+02  0.72655800054E+02  0.00000000000E+00 0.  1.
         11    1    4    4    0    0  0.12809984843E+03  0.28851713268E+02 -0.14311177677E+03  0.19422402832E+03  0.00000000000E+00 0. -1.
          3    1    1    2  501    0 -0.14318284751E+02 -0.32684690065E+02  0.13935761811E+03  0.14385356432E+03  0.00000000000E+00 0. -1.
<scales pt_clust_5="13000.00000" pt_clust_6="13000.00000" pt_clust_7="13000.00000" pt_clust_8="13000.00000" pt_clust_9="35.68336"></scales>
<clustering>
<clus scale="   35.683">  1  9  2 -1</clus>
<clus scale="   93.324">  5  6 -1 -1</clus>
<clus scale="   97.359">  7  8 -1 -1</clus>
<clus scale="  184.638">  2  5  1 -1</clus>
<clus scale="   35.683">  1  5  2 -1</clus>
</clustering>
</event>
<event>
 9    1  0.1636528E-005  0.1617726E+03  0.7546771E-02  0.1206483E+00
         21   -1    0    0  501  502  0.00000000000E+00  0.00000000000E+00  0.39555136249E+03  0.39555136249E+03  0.00000000000E+00 0.  1.
          3   -1    0    0  502    0 -0.00000000000E+00 -0.00000000000E+00 -0.16671219182E+03  0.16671219182E+03  0.00000000000E+00 0. -1.
         23    2    1    2    0    0  0.36856485719E+02  0.33577439760E+02 -0.73096307650E+02  0.12795952295E+03  0.92437678032E+02 0.  0.
         23    2    1    2    0    0  0.97963948023E+02 -0.78025343013E+02  0.87212781729E+02  0.17689773407E+03  0.89453058956E+02 0.  0.
        -13    1    4    4    0    0  0.33856943025E+02 -0.78384470808E+02  0.28634904787E+02  0.90057623925E+02  0.00000000000E+00 0.  1.
         13    1    4    4    0    0  0.64107004997E+02  0.35912779424E+00  0.58577876942E+02  0.86840110143E+02  0.00000000000E+00 0. -1.
        -13    1    3    3    0    0  0.55271632348E+02  0.53919527811E+02 -0.49074634934E+02  0.91490920947E+02  0.00000000000E+00 0.  1.
         13    1    3    3    0    0 -0.18415146629E+02 -0.20342088051E+02 -0.24021672716E+02  0.36468601999E+02  0.00000000000E+00 0. -1.
          3    1    1    2  501    0 -0.13482043374E+03  0.44447903253E+02  0.21472269659E+03  0.25740629730E+03  0.00000000000E+00 0. -1.
<scales pt_clust_5="13000.00000" pt_clust_6="13000.00000" pt_clust_7="13000.00000" pt_clust_8="13000.00000" pt_clust_9="134.79073"></scales>
<clustering>
<clus scale="   89.453">  5  6 -1 -1</clus>
<clus scale="   92.438">  7  8 -1 -1</clus>
<clus scale="  105.027">  2  7  1 -1</clus>
<clus scale="  134.791">  1  9  2 -1</clus>
<clus scale="  134.791">  1  5  2 -1</clus>
</clustering>
</event>
<event>
 9    1  0.1636528E-005  0.9634189E+02  0.7546771E-02  0.1292076E+00
         21   -1    0    0  501  502  0.00000000000E+00  0.00000000000E+00  0.49449232431E+02  0.49449232431E+02  0.00000000000E+00 0.  1.
         -2   -1    0    0    0  501 -0.00000000000E+00 -0.00000000000E+00 -0.40521352741E+03  0.40521352741E+03  0.00000000000E+00 0.  1.
         23    2    1    2    0    0  0.33109656603E+02  0.89194978214E+01 -0.29127376770E+03  0.30516744184E+03  0.84326466828E+02 0.  0.
         23    2    1    2    0    0 -0.10954265616E+01 -0.27934445017E+02 -0.34543780477E+02  0.10171156777E+03  0.91490092746E+02 0.  0.
        -11    1    4    4    0    0  0.12436290329E+01  0.31513451633E+02 -0.27422857836E+02  0.41793030267E+02  0.00000000000E+00 0. -1.
         11    1    4    4    0    0 -0.23390555945E+01 -0.59447896650E+02 -0.71209226418E+01  0.59918537502E+02  0.00000000000E+00 0.  1.
        -13    1    3    3    0    0  0.34977444373E+02 -0.31131265499E+02 -0.20113764795E+03  0.20651617547E+03  0.00000000000E+00 0.  1.
         13    1    3    3    0    0 -0.18677877702E+01  0.40050763320E+02 -0.90136119753E+02  0.98651266377E+02  0.00000000000E+00 0. -1.
         -2    1    1    2    0  502 -0.32014230041E+02  0.19014947196E+02 -0.29946746795E+02  0.47783750225E+02  0.00000000000E+00 0.  1.
<scales pt_clust_5="13000.00000" pt_clust_6="13000.00000" pt_clust_7="13000.00000" pt_clust_8="13000.00000" pt_clust_9="37.23546"></scales>
<clustering>
<clus scale="   37.235">  1  9  2 -1</clus>
<clus scale="   84.326">  7  8 -1 -1</clus>
<clus scale="   89.567">  2  7  1 -1</clus>
<clus scale="   91.490">  5  6 -1 -1</clus>
<clus scale="   37.235">  1  5  2 -1</clus>
</clustering>
</event>
<event>
 9    1  0.1636528E-005  0.1050167E+03  0.7546771E-02  0.1270781E+00
         21   -1    0    0  501  502  0.00000000000E+00  0.00000000000E+00  0.11851472438E+03  0.11851472438E+03  0.00000000000E+00 0.  1.
          2   -1    0    0  502    0 -0.00000000000E+00 -0.00000000000E+00 -0.20064048717E+03  0.20064048717E+03  0.00000000000E+00 0. -1.
         23    2    1    2    0    0 -0.35177458270E+02  0.20940451808E+00 -0.45824756668E+02  0.10844235370E+03  0.91773298577E+02 0.  0.
         23    2    1    2    0    0  0.78153309084E+02 -0.50949518684E+02  0.93094342494E+01  0.13007914771E+03  0.90167210943E+02 0.  0.
        -11    1    3    3    0    0 -0.25284722744E+02  0.25924377053E+02 -0.65322634110E+02  0.74688935304E+02  0.00000000000E+00 0. -1.
         11    1    3    3    0    0 -0.98927355266E+01 -0.25714972535E+02  0.19497877441E+02  0.33753418396E+02  0.00000000000E+00 0.  1.
        -13    1    4    4    0    0  0.46286271564E+02 -0.74700588544E+02 -0.45276640525E+01  0.87994866929E+02  0.00000000000E+00 0.  1.
         13    1    4    4    0    0  0.31867037520E+02  0.23751069860E+02  0.13837098302E+02  0.42084280786E+02  0.00000000000E+00 0. -1.
          2    1    1    2  501    0 -0.42975850814E+02  0.50740114166E+02 -0.45610440377E+02  0.80633710135E+02  0.00000000000E+00 0. -1.
<scales pt_clust_5="13000.00000" pt_clust_6="13000.00000" pt_clust_7="13000.00000" pt_clust_8="13000.00000" pt_clust_9="66.49427"></scales>
<clustering>
<clus scale="   66.494">  1  9  2 -1</clus>
<clus scale="   90.167">  7  8 -1 -1</clus>
<clus scale="   91.773">  5  6 -1 -1</clus>
<clus scale="  103.616">  1  7  2 -1</clus>
<clus scale="   66.494">  1  5  2 -1</clus>
</clustering>
</event>
<event>
 9    1  0.2107987E-005  0.9532548E+02  0.7546771E-02  0.1290614E+00
         -1   -1    0    0    0  501 -0.00000000000E+00  0.00000000000E+00  0.39613727875E+03  0.39613727875E+03  0.00000000000E+00 0.  1.
         21   -1    0    0  501  502  0.00000000000E+00 -0.00000000000E+00 -0.13072697429E+03  0.13072697429E+03  0.00000000000E+00 0.  1.
         23    2    1    2    0    0  0.14489791882E+02 -0.18669854086E+02  0.20040475127E+03  0.22146839724E+03  0.91256063487E+02 0.  0.
         23    2    1    2    0    0 -0.38716960546E+02  0.17247079240E+01  0.16981715860E+03  0.19649421988E+03  0.90940274041E+02 0.  0.
        -11    1    4    4    0    0 -0.77179546664E+01 -0.43414649746E+02  0.75883057149E+02  0.87764668284E+02  0.00000000000E+00 0.  1.
         11    1    4    4    0    0 -0.30999005880E+02  0.45139357670E+02  0.93934101448E+02  0.10872955160E+03  0.00000000000E+00 0. -1.
        -11    1    3    3    0    0 -0.11615098317E+02 -0.37003878260E+02  0.17875888939E+03  0.18291784508E+03  0.00000000000E+00 0.  1.
         11    1    3    3    0    0  0.26104890199E+02  0.18334024174E+02  0.21645861884E+02  0.38550552155E+02  0.00000000000E+00 0. -1.
         -1    1    1    2    0  502  0.24227168664E+02  0.16945146162E+02 -0.10481160540E+03  0.10890163592E+03  0.00000000000E+00 0.  1.
<scales pt_clust_5="13000.00000" pt_clust_6="13000.00000" pt_clust_7="13000.00000" pt_clust_8="13000.00000" pt_clust_9="29.56508"></scales>
<clustering>
<clus scale="   29.565">  2  9  1 -1</clus>
<clus scale="   90.940">  5  6 -1 -1</clus>
<clus scale="   91.256">  7  8 -1 -1</clus>
<clus scale="   95.023">  2  5  1 -1</clus>
<clus scale="   29.565">  2  5  1 -1</clus>
</clustering>
</event>
<event>
 9    1  0.1636528E-005  0.1325543E+03  0.7546771E-02  0.1224112E+00
          1   -1    0    0  502    0 -0.00000000000E+00  0.00000000000E+00  0.28240073572E+03  0.28240073572E+03  0.00000000000E+00 0. -1.
         21   -1    0    0  501  502  0.00000000000E+00 -0.00000000000E+00 -0.18533747979E+03  0.18533747979E+03  0.00000000000E+00 0.  1.
         23    2    1    2    0    0  0.82619546295E+02 -0.24565207898E+02  0.13313880749E+03  0.18409689607E+03  0.93468102651E+02 0.  0.
         23    2    1    2    0    0 -0.98623013913E+02  0.11383092204E+03 -0.65640765107E+02  0.18825483953E+03  0.91908633310E+02 0.  0.
        -11    1    4    4    0    0 -0.25709138349E+02  0.36944277741E+02  0.22597596335E+02  0.50363586176E+02  0.00000000000E+00 0.  1.
         11    1    4    4    0    0 -0.72913875565E+02  0.76886644299E+02 -0.88238361442E+02  0.13789125335E+03  0.00000000000E+00 0. -1.
        -11    1    3    3    0    0  0.55948849883E+02 -0.29885661646E+02  0.18207890481E+02  0.65992074154E+02  0.00000000000E+00 0.  1.
         11    1    3    3    0    0  0.26670696412E+02  0.53204537480E+01  0.11493091701E+03  0.11810482192E+03  0.00000000000E+00 0. -1.
          1    1    1    2  501    0  0.16003467618E+02 -0.89265714141E+02  0.29565213551E+02  0.95386479908E+02  0.00000000000E+00 0. -1.
<scales pt_clust_5="13000.00000" pt_clust_6="13000.00000" pt_clust_7="13000.00000" pt_clust_8="13000.00000" pt_clust_9="90.68896"></scales>
<clustering>
<clus scale="   90.689">  2  9  1 -1</clus>
<clus scale="   91.909">  5  6 -1 -1</clus>
<clus scale="   93.468">  7  8 -1 -1</clus>
<clus scale="  131.459">  2  5  1 -1</clus>
<clus scale="   90.689">  2  5  1 -1</clus>
</clustering>
</event>
<event>
 9    1  0.1636528E-005  0.9162866E+02  0.7546771E-02  0.1302902E+00
         21   -1    0    0  501  502  0.00000000000E+00  0.00000000000E+00  0.16431823089E+03  0.16431823089E+03  0.00000000000E+00 0.  1.
          1   -1    0    0  502    0 -0.00000000000E+00 -0.00000000000E+00 -0.15621029482E+03  0.15621029482E+03  0.00000000000E+00 0. -1.
         23    2    1    2    0    0  0.12654172814E+01 -0.41179086240E+01 -0.81449564915E+02  0.11749097317E+03  0.84566770663E+02 0.  0.
         23    2    1    2    0    0  0.42585575440E+02 -0.92482561695E+01 -0.16693869859E+01  0.10094000597E+03  0.91033161401E+02 0.  0.
        -11    1    3    3    0    0 -0.33610230040E+02  0.22755707940E+02 -0.41261958233E+02  0.57879348687E+02  0.00000000000E+00 0.  1.
         11    1    3    3    0    0  0.34875647321E+02 -0.26873616564E+02 -0.40187606682E+02  0.59611624488E+02  0.00000000000E+00 0. -1.
        -13    1    4    4    0    0  0.11990418915E+02 -0.48976632653E+02  0.34179662870E+01  0.50538729558E+02  0.00000000000E+00 0. -1.
         13    1    4    4    0    0  0.30595156524E+02  0.39728376483E+02 -0.50873532729E+01  0.50401276413E+02  0.00000000000E+00 0.  1.
          1    1    1    2  501    0 -0.43850992721E+02  0.13366164793E+02  0.91226887978E+02  0.10209754656E+03  0.00000000000E+00 0. -1.
<scales pt_clust_5="13000.00000" pt_clust_6="13000.00000" pt_clust_7="13000.00000" pt_clust_8="13000.00000" pt_clust_9="45.84282"></scales>
<clustering>
<clus scale="   45.843">  1  9  2 -1</clus>
<clus scale="   84.567">  5  6 -1 -1</clus>
<clus scale="   85.207">  2  5  1 -1</clus>
<clus scale="   91.033">  7  8 -1 -1</clus>
<clus scale="   45.843">  1  5  2 -1</clus>
</clustering>
</event>
<event>
 9    1  0.1636528E-005  0.2284756E+03  0.7546771E-02  0.1161392E+00
         21   -1    0    0  501  502  0.00000000000E+00  0.00000000000E+00  0.11985553054E+03  0.11985553054E+03  0.00000000000E+00 0.  1.
         -2   -1    0    0    0  501 -0.00000000000E+00 -0.00000000000E+00 -0.70815142218E+03  0.70815142218E+03  0.00000000000E+00 0.  1.
         23    2    1    2    0    0 -0.31882167808E+02 -0.29854536353E+02 -0.21001391607E+03  0.23350079010E+03  0.92244284743E+02 0.  0.
         23    2    1    2    0    0  0.21161460043E+03 -0.54981179110E+02 -0.10993721207E+03  0.26057539427E+03  0.89496795056E+02 0.  0.
        -11    1    3    3    0    0 -0.56169919619E+01 -0.60475409559E+02 -0.10993439654E+03  0.12559616755E+03  0.00000000000E+00 0.  1.
         11    1    3    3    0    0 -0.26265175847E+02  0.30620873206E+02 -0.10007951953E+03  0.10790462255E+03  0.00000000000E+00 0. -1.
        -13    1    4    4    0    0  0.11279173636E+03 -0.60842088216E+02 -0.97024196048E+02  0.16074025665E+03  0.00000000000E+00 0.  1.
         13    1    4    4    0    0  0.98822864078E+02  0.58609091063E+01 -0.12913016024E+02  0.99835137617E+02  0.00000000000E+00 0. -1.
         -2    1    1    2    0  502 -0.17973243263E+03  0.84835715463E+02 -0.26834476350E+03  0.33393076835E+03  0.00000000000E+00 0.  1.
<scales pt_clust_5="13000.00000" pt_clust_6="13000.00000" pt_clust_7="13000.00000" pt_clust_8="13000.00000" pt_clust_9="210.21772"></scales>
<clustering>
<clus scale="   89.497">  7  8 -1 -1</clus>
<clus scale="   92.244">  5  6 -1 -1</clus>
<clus scale="  102.063">  2  5  1 -1</clus>
<clus scale="  210.218">  1  9  2 -1</clus>
<clus scale="  210.218">  1  5  2 -1</clus>
</clustering>
</event>
<event>
 9    1  0.1636528E-005  0.1030782E+03  0.7546771E-02  0.1274943E+00
          2   -1    0    0  502    0 -0.00000000000E+00  0.00000000000E+00  0.63822004110E+03  0.63822004110E+03  0.00000000000E+00 0. -1.
         21   -1    0    0  501  502  0.00000000000E+00 -0.00000000000E+00 -0.43160305161E+02  0.43160305161E+02  0.00000000000E+00 0. -1.
         23    2    1    2    0    0 -0.73852676525E+02  0.67155849037E+01  0.31631300884E+03  0.33771572517E+03  0.92188256063E+02 0.  0.
         23    2    1    2    0    0 -0.47464038983E+01  0.50925258960E+02  0.14160497617E+03  0.17541438432E+03  0.90012924629E+02 0.  0.
        -11    1    3    3    0    0 -0.32828245933E+02 -0.42517487632E+02  0.15998467143E+03  0.16876174205E+03  0.00000000000E+00 0.  1.
         11    1    3    3    0    0 -0.41024430592E+02  0.49233072536E+02  0.15632833741E+03  0.16895398313E+03  0.00000000000E+00 0. -1.
        -11    1    4    4    0    0  0.14913118294E+02 -0.18742967940E+02  0.11597285004E+02  0.26611970312E+02  0.00000000000E+00 0.  1.
         11    1    4    4    0    0 -0.19659522192E+02  0.69668226900E+02  0.13000769116E+03  0.14880241401E+03  0.00000000000E+00 0. -1.
          2    1    1    2  501    0  0.78599080423E+02 -0.57640843864E+02  0.13714175093E+03  0.16825023677E+03  0.00000000000E+00 0. -1.
<scales pt_clust_5="13000.00000" pt_clust_6="13000.00000" pt_clust_7="13000.00000" pt_clust_8="13000.00000" pt_clust_9="97.46939"></scales>
<clustering>
<clus scale="   90.013">  7  8 -1 -1</clus>
<clus scale="   92.188">  5  6 -1 -1</clus>
<clus scale="   97.469">  2  9  1 -1</clus>
<clus scale="  101.137">  2  7  1 -1</clus>
<clus scale="   97.469">  2  5  1 -1</clus>
</clustering>
</event>
<event>
 9    1  0.1636528E-005  0.1076368E+03  0.7546771E-02  0.1266521E+00
         21   -1    0    0  501  502  0.00000000000E+00  0.00000000000E+00  0.34336800856E+03  0.34336800856E+03  0.00000000000E+00 0. -1.
          2   -1    0    0  502    0 -0.00000000000E+00 -0.00000000000E+00 -0.50346480211E+03  0.50346480211E+03  0.00000000000E+00 0. -1.
         23    2    1    2    0    0 -0.18049496790E+01 -0.56196548570E+02 -0.46925288302E+03  0.48155121804E+03  0.92368812163E+02 0.  0.
         23    2    1    2    0    0  0.29320200459E+02  0.38993334382E+02  0.68015672537E+02  0.12196751519E+03  0.88711829928E+02 0.  0.
        -11    1    3    3    0    0  0.10059638950E+02  0.21300866529E+02 -0.53291018620E+02  0.58265392097E+02  0.00000000000E+00 0.  1.
         11    1    3    3    0    0 -0.11864588629E+02 -0.77497415099E+02 -0.41596186440E+03  0.42328582594E+03  0.00000000000E+00 0. -1.
        -13    1    4    4    0    0 -0.15152041587E+01  0.45941190049E+02  0.76493326554E+02  0.89241906042E+02  0.00000000000E+00 0.  1.
         13    1    4    4    0    0  0.30835404617E+02 -0.69478556668E+01 -0.84776540175E+01  0.32725609145E+02  0.00000000000E+00 0. -1.
          2    1    1    2  501    0 -0.27515250780E+02  0.17203214188E+02  0.24114041694E+03  0.24331407745E+03  0.00000000000E+00 0. -1.
<scales pt_clust_5="13000.00000" pt_clust_6="13000.00000" pt_clust_7="13000.00000" pt_clust_8="13000.00000" pt_clust_9="32.45057"></scales>
<clustering>
<clus scale="   32.451">  1  9  2 -1</clus>
<clus scale="   88.712">  7  8 -1 -1</clus>
<clus scale="   92.369">  5  6 -1 -1</clus>
<clus scale="  104.515">  1  7  2 -1</clus>
<clus scale="   32.451">  1  5  2 -1</clus>
</clustering>
</event>
<event>
 9    1  0.1636528E-005  0.9575241E+02  0.7546771E-02  0.1290258E+00
         21   -1    0    0  501  502  0.00000000000E+00  0.00000000000E+00  0.95730568301E+02  0.95730568301E+02  0.00000000000E+00 0. -1.
          1   -1    0    0  502    0 -0.00000000000E+00 -0.00000000000E+00 -0.16555527038E+03  0.16555527038E+03  0.00000000000E+00 0. -1.
         23    2    1    2    0    0 -0.39407561250E+01 -0.22757096643E+02 -0.87456471358E+02  0.12954448093E+03  0.92734692266E+02 0.  0.
         23    2    1    2    0    0 -0.25695144952E+02  0.24761151132E+02  0.17589946768E+01  0.98062761578E+02  0.91322812410E+02 0.  0.
        -11    1    4    4    0    0  0.26336283410E+02 -0.13711943819E+02 -0.11793271564E+02  0.31948372124E+02  0.00000000000E+00 0.  1.
         11    1    4    4    0    0 -0.52031428362E+02  0.38473094952E+02  0.13552266241E+02  0.66114389454E+02  0.00000000000E+00 0. -1.
        -13    1    3    3    0    0 -0.40678803277E+02 -0.29604045982E+02 -0.74688346622E+02  0.90052838355E+02  0.00000000000E+00 0. -1.
         13    1    3    3    0    0  0.36738047152E+02  0.68469493389E+01 -0.12768124735E+02  0.39491642572E+02  0.00000000000E+00 0.  1.
          1    1    1    2  501    0  0.29635901077E+02 -0.20040544897E+01  0.15872774601E+02  0.33678596179E+02  0.00000000000E+00 0. -1.
<scales pt_clust_5="13000.00000" pt_clust_6="13000.00000" pt_clust_7="13000.00000" pt_clust_8="13000.00000" pt_clust_9="29.70358"></scales>
<clustering>
<clus scale="   29.704">  1  9  2 -1</clus>
<clus scale="   91.323">  5  6 -1 -1</clus>
<clus scale="   92.735">  7  8 -1 -1</clus>
<clus scale="   94.386">  1  5  2 -1</clus>
<clus scale="   29.704">  1  5  2 -1</clus>
</clustering>
</event>
<event>
 9    1  0.1636528E-005  0.1957179E+03  0.7546771E-02  0.1180806E+00
          2   -1    0    0  502    0 -0.00000000000E+00  0.00000000000E+00  0.14201145297E+04  0.14201145297E+04  0.00000000000E+00 0. -1.
         21   -1    0    0  501  502  0.00000000000E+00 -0.00000000000E+00 -0.45745111957E+02  0.45745111957E+02  0.00000000000E+00 0. -1.
         23    2    1    2    0    0  0.49625660205E+02 -0.11664054966E+02  0.43100188074E+03  0.44342561169E+03  0.90911471059E+02 0.  0.
         23    2    1    2    0    0 -0.84737535666E+02 -0.15507508017E+03  0.32673027332E+03  0.38268697218E+03  0.92021284135E+02 0.  0.
        -11    1    3    3    0    0  0.31977550780E+02 -0.46942627532E+02  0.33254010643E+03  0.33735603806E+03  0.00000000000E+00 0. -1.
         11    1    3    3    0    0  0.17648109425E+02  0.35278572566E+02  0.98461774312E+02  0.10606957363E+03  0.00000000000E+00 0.  1.
        -11    1    4    4    0    0 -0.74624723588E+02 -0.11893429813E+03  0.31242258323E+03  0.34252311915E+03  0.00000000000E+00 0. -1.
         11    1    4    4    0    0 -0.10112812079E+02 -0.36140782035E+02  0.14307690089E+02  0.40163853027E+02  0.00000000000E+00 0.  1.
          2    1    1    2  501    0  0.35111875462E+02  0.16673913513E+03  0.61663726367E+03  0.63974705778E+03  0.00000000000E+00 0. -1.
<scales pt_clust_5="13000.00000" pt_clust_6="13000.00000" pt_clust_7="13000.00000" pt_clust_8="13000.00000" pt_clust_9="172.73569"></scales>
<clustering>
<clus scale="   90.911">  5  6 -1 -1</clus>
<clus scale="   92.021">  7  8 -1 -1</clus>
<clus scale="  104.229">  1  5  2 -1</clus>
<clus scale="  172.736">  2  9  1 -1</clus>
<clus scale="  172.736">  2  5  1 -1</clus>
</clustering>
</event>
<event>
 9    1  0.1636528E-005  0.1053385E+03  0.7546771E-02  0.1271622E+00
         21   -1    0    0  501  502  0.00000000000E+00  0.00000000000E+00  0.67490766644E+02  0.67490766644E+02  0.00000000000E+00 0.  1.
          2   -1    0    0  502    0 -0.00000000000E+00 -0.00000000000E+00 -0.27505547373E+03  0.27505547373E+03  0.00000000000E+00 0. -1.
         23    2    1    2    0    0  0.46664033637E+02 -0.68221304605E+01 -0.16693659401E+03  0.19745401138E+03  0.94319598669E+02 0.  0.
         23    2    1    2    0    0 -0.41579642268E+02  0.26299974803E+02 -0.58927253577E+02  0.11788752353E+03  0.89467824749E+02 0.  0.
        -11    1    3    3    0    0 -0.18780847088E+02  0.11724087846E+02 -0.98519589682E+02  0.10097665079E+03  0.00000000000E+00 0. -1.
         11    1    3    3    0    0  0.65444880724E+02 -0.18546218307E+02 -0.68417004325E+02  0.96477360595E+02  0.00000000000E+00 0.  1.
        -13    1    4    4    0    0 -0.64762942091E+02 -0.20308805800E+01 -0.30914856920E+02  0.71792001801E+02  0.00000000000E+00 0.  1.
         13    1    4    4    0    0  0.23183299823E+02  0.28330855383E+02 -0.28012396657E+02  0.46095521734E+02  0.00000000000E+00 0. -1.
          2    1    1    2  501    0 -0.50843913683E+01 -0.19477844343E+02  0.18299140501E+02  0.27204705455E+02  0.00000000000E+00 0. -1.
<scales pt_clust_5="13000.00000" pt_clust_6="13000.00000" pt_clust_7="13000.00000" pt_clust_8="13000.00000" pt_clust_9="20.13051"></scales>
<clustering>
<clus scale="   20.131">  1  9  2 -1</clus>
<clus scale="   89.468">  7  8 -1 -1</clus>
<clus scale="   94.320">  5  6 -1 -1</clus>
<clus scale="  101.017">  1  7  2 -1</clus>
<clus scale="   20.131">  1  5  2 -1</clus>
</clustering>
</event>
<event>
 9    1  0.1636528E-005  0.1106224E+03  0.7546771E-02  0.1259813E+00
         21   -1    0    0  501  502  0.00000000000E+00  0.00000000000E+00  0.81449505916E+02  0.81449505916E+02  0.00000000000E+00 0.  1.
          1   -1    0    0  502    0 -0.00000000000E+00 -0.00000000000E+00 -0.30160567372E+03  0.30160567372E+03  0.00000000000E+00 0. -1.
         23    2    1    2    0    0 -0.53534144602E+02  0.27201383755E+00 -0.15811395415E+03  0.19028859071E+03  0.91344111070E+02 0.  0.
         23    2    1    2    0    0  0.77865559856E+02 -0.24816128532E+02 -0.87388615900E+02  0.14990785071E+03  0.90314494238E+02 0.  0.
        -11    1    3    3    0    0 -0.69118334798E+02  0.27579107457E+02 -0.10956310536E+03  0.13244631150E+03  0.00000000000E+00 0. -1.
         11    1    3    3    0    0  0.15584190196E+02 -0.27307093619E+02 -0.48550848793E+02  0.57842279213E+02  0.00000000000E+00 0.  1.
        -11    1    4    4    0    0  0.79201784924E+02 -0.51877862997E+02 -0.66618571384E+02  0.11576817118E+03  0.00000000000E+00 0.  1.
         11    1    4    4    0    0 -0.13362250678E+01  0.27061734465E+02 -0.20770044516E+02  0.34139679536E+02  0.00000000000E+00 0. -1.
          1    1    1    2  501    0 -0.24331415254E+02  0.24544114694E+02  0.25346402247E+02  0.42858738214E+02  0.00000000000E+00 0. -1.
<scales pt_clust_5="13000.00000" pt_clust_6="13000.00000" pt_clust_7="13000.00000" pt_clust_8="13000.00000" pt_clust_9="34.56055"></scales>
<clustering>
<clus scale="   34.561">  1  9  2 -1</clus>
<clus scale="   90.314">  7  8 -1 -1</clus>
<clus scale="   91.344">  5  6 -1 -1</clus>
<clus scale="  109.774">  1  7  2 -1</clus>
<clus scale="   34.561">  1  5  2 -1</clus>
</clustering>
</event>
<event>
 9    1  0.1636528E-005  0.1326940E+03  0.7546771E-02  0.1231208E+00
         -3   -1    0    0    0  501 -0.00000000000E+00  0.00000000000E+00  0.10890685825E+03  0.10890685825E+03  0.00000000000E+00 0.  1.
         21   -1    0    0  501  502  0.00000000000E+00 -0.00000000000E+00 -0.24459381579E+03  0.24459381579E+03  0.00000000000E+00 0. -1.
         23    2    1    2    0    0  0.13316013042E+02  0.57413526054E+02  0.78858298423E+01  0.10884644157E+03  0.91168702707E+02 0.  0.
         23    2    1    2    0    0 -0.25078044650E+02 -0.79613041933E+02 -0.54090737796E+02  0.15171230926E+03  0.11455859678E+03 0.  0.
        -11    1    3    3    0    0 -0.10735535164E+02  0.74262499920E+02  0.19074732503E+02  0.77421030926E+02  0.00000000000E+00 0. -1.
         11    1    3    3    0    0  0.24051548207E+02 -0.16848973866E+02 -0.11188902661E+02  0.31425410645E+02  0.00000000000E+00 0.  1.
        -13    1    4    4    0    0 -0.55788228168E+02 -0.15993951156E+02 -0.56543092284E+02  0.81026255996E+02  0.00000000000E+00 0. -1.
         13    1    4    4    0    0  0.30710183518E+02 -0.63619090777E+02  0.24523544877E+01  0.70686053260E+02  0.00000000000E+00 0.  1.
         -3    1    1    2    0  502  0.11762031607E+02  0.22199515879E+02 -0.89482049585E+02  0.92941923214E+02  0.00000000000E+00 0.  1.
<scales pt_clust_5="13000.00000" pt_clust_6="13000.00000" pt_clust_7="13000.00000" pt_clust_8="13000.00000" pt_clust_9="25.12298"></scales>
<clustering>
<clus scale="   25.123">  2  9  1 -1</clus>
<clus scale="   91.169">  5  6 -1 -1</clus>
<clus scale="  113.118">  1  5  2 -1</clus>
<clus scale="  114.559">  7  8 -1 -1</clus>
<clus scale="   25.123">  2  5  1 -1</clus>
</clustering>
</event>
<event>
 9    1  0.1636528E-005  0.9487275E+02  0.7546771E-02  0.1291654E+00
          1   -1    0    0  502    0 -0.00000000000E+00  0.00000000000E+00  0.30719763919E+03  0.30719763919E+03  0.00000000000E+00 0. -1.
         21   -1    0    0  501  502  0.00000000000E+00 -0.00000000000E+00 -0.64571326206E+02  0.64571326206E+02  0.00000000000E+00 0. -1.
         23    2    1    2    0    0 -0.32007213991E+02  0.31601644151E+01  0.22098446220E+03  0.24119270258E+03  0.91133631868E+02 0.  0.
         23    2    1    2    0    0 -0.40549612506E+01  0.69089749179E-01  0.81449440594E+01  0.91935933405E+02  0.91484579319E+02 0.  0.
        -13    1    3    3    0    0  0.17158047516E+02 -0.28546007863E+02  0.11948917320E+03  0.12404408762E+03  0.00000000000E+00 0.  1.
         13    1    3    3    0    0 -0.49165261507E+02  0.31706172278E+02  0.10149528900E+03  0.11714861496E+03  0.00000000000E+00 0. -1.
        -13    1    4    4    0    0  0.50122309952E+01 -0.31618490599E+02  0.36434484920E+02  0.48500753589E+02  0.00000000000E+00 0.  1.
         13    1    4    4    0    0 -0.90671922458E+01  0.31687580349E+02 -0.28289540860E+02  0.43435179816E+02  0.00000000000E+00 0. -1.
          1    1    1    2  501    0  0.36062175242E+02 -0.32292541643E+01  0.13496906722E+02  0.38640329407E+02  0.00000000000E+00 0. -1.
<scales pt_clust_5="13000.00000" pt_clust_6="13000.00000" pt_clust_7="13000.00000" pt_clust_8="13000.00000" pt_clust_9="36.20647"></scales>
<clustering>
<clus scale="   36.206">  2  9  1 -1</clus>
<clus scale="   91.134">  5  6 -1 -1</clus>
<clus scale="   91.485">  7  8 -1 -1</clus>
<clus scale="   94.534">  1  5  2 -1</clus>
<clus scale="   36.206">  2  5  1 -1</clus>
</clustering>
</event>
<event>
 9    1  0.1636528E-005  0.9514189E+02  0.7546771E-02  0.1292479E+00
          1   -1    0    0  502    0 -0.00000000000E+00  0.00000000000E+00  0.33637665848E+03  0.33637665848E+03  0.00000000000E+00 0. -1.
         21   -1    0    0  501  502  0.00000000000E+00 -0.00000000000E+00 -0.43208137627E+02  0.43208137627E+02  0.00000000000E+00 0.  1.
         23    2    1    2    0    0 -0.19665226193E+02 -0.17033376013E+02  0.19993566555E+03  0.22107072433E+03  0.90670490111E+02 0.  0.
         23    2    1    2    0    0  0.43110002527E+00 -0.84828851930E+01  0.55677966766E+02  0.10920483483E+03  0.93560220062E+02 0.  0.
        -11    1    4    4    0    0 -0.39555034610E+02  0.20060456154E+02  0.31851091446E+02  0.54603247984E+02  0.00000000000E+00 0.  1.
         11    1    4    4    0    0  0.39986134635E+02 -0.28543341347E+02  0.23826875320E+02  0.54601586843E+02  0.00000000000E+00 0. -1.
        -13    1    3    3    0    0 -0.12448957097E+02  0.36957155716E+02  0.69020832081E+02  0.79275993545E+02  0.00000000000E+00 0.  1.
         13    1    3    3    0    0 -0.72162690956E+01 -0.53990531729E+02  0.13091483347E+03  0.14179473079E+03  0.00000000000E+00 0. -1.
          1    1    1    2  501    0  0.19234126168E+02  0.25516261206E+02  0.37554888529E+02  0.49309236942E+02  0.00000000000E+00 0. -1.
<scales pt_clust_5="13000.00000" pt_clust_6="13000.00000" pt_clust_7="13000.00000" pt_clust_8="13000.00000" pt_clust_9="31.95358"></scales>
<clustering>
<clus scale="   31.954">  2  9  1 -1</clus>
<clus scale="   90.670">  7  8 -1 -1</clus>
<clus scale="   92.302">  1  7  2 -1</clus>
<clus scale="   93.560">  5  6 -1 -1</clus>
<clus scale="   31.954">  2  5  1 -1</clus>
</clustering>
</event>
<event>
 9    1  0.1636528E-005  0.1066116E+03  0.7546771E-02  0.1267088E+00
          1   -1    0    0  502    0 -0.00000000000E+00  0.00000000000E+00  0.25148787965E+03  0.25148787965E+03  0.00000000000E+00 0. -1.
         21   -1    0    0  501  502  0.00000000000E+00 -0.00000000000E+00 -0.86637357735E+02  0.86637357735E+02  0.00000000000E+00 0.  1.
         23    2    1    2    0    0  0.32296128994E+01 -0.40380352448E+02  0.12168794473E+03  0.15791131121E+03  0.92125040311E+02 0.  0.
         23    2    1    2    0    0 -0.18314367759E+02  0.83885296571E+02  0.46468607943E+02  0.13404943948E+03  0.91857289605E+02 0.  0.
        -11    1    4    4    0    0  0.35168041250E+02  0.14366427232E+02  0.15544644017E+02  0.41046574941E+02  0.00000000000E+00 0. -1.
         11    1    4    4    0    0 -0.53482409009E+02  0.69518869339E+02  0.30923963926E+02  0.93002864539E+02  0.00000000000E+00 0.  1.
        -11    1    3    3    0    0  0.23274880237E+02 -0.32194068900E+02  0.59547918085E+01  0.40170109134E+02  0.00000000000E+00 0.  1.
         11    1    3    3    0    0 -0.20045267338E+02 -0.81862835481E+01  0.11573315293E+03  0.11774120208E+03  0.00000000000E+00 0. -1.
          1    1    1    2  501    0  0.15084754860E+02 -0.43504944123E+02 -0.33060307599E+01  0.46164486694E+02  0.00000000000E+00 0. -1.
<scales pt_clust_5="13000.00000" pt_clust_6="13000.00000" pt_clust_7="13000.00000" pt_clust_8="13000.00000" pt_clust_9="46.04596"></scales>
<clustering>
<clus scale="   46.046">  2  9  1 -1</clus>
<clus scale="   91.857">  5  6 -1 -1</clus>
<clus scale="   92.125">  7  8 -1 -1</clus>
<clus scale="  106.380">  2  5  1 -1</clus>
<clus scale="   46.046">  2  5  1 -1</clus>
</clustering>
</event>
<event>
 9    1  0.1636528E-005  0.1162822E+03  0.7546771E-02  0.1251102E+00
          2   -1    0    0  502    0 -0.00000000000E+00  0.00000000000E+00  0.45361635608E+03  0.45361635608E+03  0.00000000000E+00 0.  1.
         21   -1    0    0  501  502  0.00000000000E+00 -0.00000000000E+00 -0.43641874268E+03  0.43641874268E+03  0.00000000000E+00 0.  1.
         23    2    1    2    0    0  0.59040548722E+02 -0.49640294372E+01  0.39411017317E+03  0.41086319147E+03  0.99876451343E+02 0.  0.
         23    2    1    2    0    0 -0.67083759542E+02  0.73939923616E+02 -0.38527080532E+03  0.40922744728E+03  0.95216422298E+02 0.  0.
        -13    1    3    3    0    0  0.27242055476E+02 -0.45427031308E+02  0.28919624410E+03  0.29400716379E+03  0.00000000000E+00 0. -1.
         13    1    3    3    0    0  0.31798493246E+02  0.40463001871E+02  0.10491392907E+03  0.11685602768E+03  0.00000000000E+00 0.  1.
        -13    1    4    4    0    0  0.21850961102E+02  0.19889028227E+00 -0.76147525256E+02  0.79220891569E+02  0.00000000000E+00 0. -1.
         13    1    4    4    0    0 -0.88934720645E+02  0.73741033334E+02 -0.30912328006E+03  0.33000655571E+03  0.00000000000E+00 0.  1.
          2    1    1    2  501    0  0.80432108199E+01 -0.68975894179E+02  0.83582455550E+01  0.69944460015E+02  0.00000000000E+00 0.  1.
<scales pt_clust_5="13000.00000" pt_clust_6="13000.00000" pt_clust_7="13000.00000" pt_clust_8="13000.00000" pt_clust_9="69.44330"></scales>
<clustering>
<clus scale="   69.443">  2  9  1 -1</clus>
<clus scale="   95.216">  7  8 -1 -1</clus>
<clus scale="   99.876">  5  6 -1 -1</clus>
<clus scale="  112.305">  2  7  1 -1</clus>
<clus scale="   69.443">  2  5  1 -1</clus>
</clustering>
</event>
<event>
 9    1  0.1636528E-005  0.9724968E+02  0.7546771E-02  0.1289225E+00
         21   -1    0    0  501  502  0.00000000000E+00  0.00000000000E+00  0.78251425481E+03  0.78251425481E+03  0.00000000000E+00 0.  1.
         -1   -1    0    0    0  501 -0.00000000000E+00 -0.00000000000E+00 -0.31138995082E+02  0.31138995082E+02  0.00000000000E+00 0.  1.
         23    2    1    2    0    0 -0.18152703472E+02 -0.11358341537E+02  0.14578621809E+03  0.17331003987E+03  0.91237141387E+02 0.  0.
         23    2    1    2    0    0  0.61815152390E+02  0.45069068078E+02  0.55072648975E+03  0.56254396755E+03  0.85461774821E+02 0.  0.
        -11    1    3    3    0    0  0.24253894748E+02  0.24063707055E+02  0.82512974612E+02  0.89306799221E+02  0.00000000000E+00 0. -1.
         11    1    3    3    0    0 -0.42406598221E+02 -0.35422048592E+02  0.63273243475E+02  0.84003240646E+02  0.00000000000E+00 0.  1.
        -11    1    4    4    0    0  0.51371988232E+02  0.70066884639E+02  0.39102125937E+03  0.40055720538E+03  0.00000000000E+00 0.  1.
         11    1    4    4    0    0  0.10443164157E+02 -0.24997816561E+02  0.15970523038E+03  0.16198676218E+03  0.00000000000E+00 0. -1.
         -1    1    1    2    0  502 -0.43662448917E+02 -0.33710726541E+02  0.54862551892E+02  0.77799242474E+02  0.00000000000E+00 0.  1.
<scales pt_clust_5="13000.00000" pt_clust_6="13000.00000" pt_clust_7="13000.00000" pt_clust_8="13000.00000" pt_clust_9="55.16181"></scales>
<clustering>
<clus scale="   55.162">  1  9  2 -1</clus>
<clus scale="   85.462">  7  8 -1 -1</clus>
<clus scale="   91.237">  5  6 -1 -1</clus>
<clus scale="   91.853">  1  7  2 -1</clus>
<clus scale="   55.162">  1  5  2 -1</clus>
</clustering>
</event>
<event>
 9    1  0.1636528E-005  0.8954470E+02  0.7546771E-02  0.1304470E+00
          2   -1    0    0  502    0 -0.00000000000E+00  0.00000000000E+00  0.50473398461E+03  0.50473398461E+03  0.00000000000E+00 0. -1.
         21   -1    0    0  501  502  0.00000000000E+00 -0.00000000000E+00 -0.26843478725E+02  0.26843478725E+02  0.00000000000E+00 0.  1.
         23    2    1    2    0    0  0.73965130790E+01  0.14909387650E+01  0.25374082466E+03  0.26858871655E+03  0.87741445494E+02 0.  0.
         23    2    1    2    0    0 -0.29064700202E+02 -0.10179825172E+02  0.22096961130E+03  0.23942776368E+03  0.86889005416E+02 0.  0.
        -11    1    4    4    0    0 -0.35320409274E+02 -0.43610845628E+02  0.11199535435E+03  0.12526929618E+03  0.00000000000E+00 0.  1.
         11    1    4    4    0    0  0.62557090724E+01  0.33431020456E+02  0.10897425695E+03  0.11415846750E+03  0.00000000000E+00 0. -1.
        -13    1    3    3    0    0 -0.17989118796E+01  0.37928740911E+02  0.58352803340E+02  0.69619502502E+02  0.00000000000E+00 0.  1.
         13    1    3    3    0    0  0.91954249586E+01 -0.36437802146E+02  0.19538802132E+03  0.19896921405E+03  0.00000000000E+00 0. -1.
          2    1    1    2  501    0  0.21668187123E+02  0.86888864070E+01  0.31800699256E+01  0.23560983106E+02  0.00000000000E+00 0. -1.
<scales pt_clust_5="13000.00000" pt_clust_6="13000.00000" pt_clust_7="13000.00000" pt_clust_8="13000.00000" pt_clust_9="23.34539"></scales>
<clustering>
<clus scale="   23.345">  2  9  1 -1</clus>
<clus scale="   86.889">  5  6 -1 -1</clus>
<clus scale="   87.741">  7  8 -1 -1</clus>
<clus scale="   88.710">  2  5  1 -1</clus>
<clus scale="   23.345">  2  5  1 -1</clus>
</clustering>
</event>
<event>
 9    1  0.1636528E-005  0.1036908E+03  0.7546771E-02  0.1274765E+00
         21   -1    0    0  501  502  0.00000000000E+00  0.00000000000E+00  0.10357612444E+03  0.10357612444E+03  0.00000000000E+00 0. -1.
          2   -1    0    0  502    0 -0.00000000000E+00 -0.00000000000E+00 -0.32064979057E+03  0.32064979057E+03  0.00000000000E+00 0. -1.
         23    2    1    2    0    0  0.42627840759E+02  0.26981584517E+01 -0.16826065236E+03  0.19816547637E+03  0.95569325748E+02 0.  0.
         23    2    1    2    0    0 -0.19256107328E+02  0.78423844421E+02  0.11409050895E+02  0.12236032126E+03  0.91218335512E+02 0.  0.
        -11    1    4    4    0    0 -0.22395471572E+02 -0.12856117944E+02 -0.11390386915E+02  0.28223710415E+02  0.00000000000E+00 0.  1.
         11    1    4    4    0    0  0.31393642435E+01  0.91279962365E+02  0.22799437810E+02  0.94136610847E+02  0.00000000000E+00 0. -1.
        -11    1    3    3    0    0  0.60724153378E+02 -0.28143476624E+02 -0.90337750004E+02  0.11242947637E+03  0.00000000000E+00 0. -1.
         11    1    3    3    0    0 -0.18096312619E+02  0.30841635075E+02 -0.77922902356E+02  0.85736000000E+02  0.00000000000E+00 0.  1.
          2    1    1    2  501    0 -0.23371733431E+02 -0.81122002873E+02 -0.60222064661E+02  0.10370011738E+03  0.00000000000E+00 0. -1.
<scales pt_clust_5="13000.00000" pt_clust_6="13000.00000" pt_clust_7="13000.00000" pt_clust_8="13000.00000" pt_clust_9="84.42171"></scales>
<clustering>
<clus scale="   84.422">  1  9  2 -1</clus>
<clus scale="   91.218">  5  6 -1 -1</clus>
<clus scale="   95.569">  7  8 -1 -1</clus>
<clus scale="   99.695">  1  5  2 -1</clus>
<clus scale="   84.422">  1  5  2 -1</clus>
</clustering>
</event>
<event>
 9    1  0.1636528E-005  0.1079511E+03  0.7546771E-02  0.1265690E+00
          1   -1    0    0  502    0 -0.00000000000E+00  0.00000000000E+00  0.81274087413E+03  0.81274087413E+03  0.00000000000E+00 0. -1.
         21   -1    0    0  501  502  0.00000000000E+00 -0.00000000000E+00 -0.10535821374E+03  0.10535821374E+03  0.00000000000E+00 0. -1.
         23    2    1    2    0    0 -0.39296142288E+02 -0.25286699179E+02  0.55435813940E+03  0.56450306563E+03  0.95745289341E+02 0.  0.
         23    2    1    2    0    0  0.64668247708E+02 -0.34994849497E+00  0.23678891822E+03  0.26239593627E+03  0.92739047059E+02 0.  0.
        -11    1    3    3    0    0 -0.57012428473E+02 -0.49987554758E+02  0.37525506796E+03  0.38283878939E+03  0.00000000000E+00 0.  1.
         11    1    3    3    0    0  0.17716286185E+02  0.24700855579E+02  0.17910307144E+03  0.18166427624E+03  0.00000000000E+00 0. -1.
        -13    1    4    4    0    0  0.11561397004E+02 -0.30995238795E+02  0.23789109483E+02  0.40746686475E+02  0.00000000000E+00 0.  1.
         13    1    4    4    0    0  0.53106850704E+02  0.30645290300E+02  0.21299980874E+03  0.22164924979E+03  0.00000000000E+00 0. -1.
          1    1    1    2  501    0 -0.25372105419E+02  0.25636647674E+02 -0.83764397236E+02  0.91200085974E+02  0.00000000000E+00 0. -1.
<scales pt_clust_5="13000.00000" pt_clust_6="13000.00000" pt_clust_7="13000.00000" pt_clust_8="13000.00000" pt_clust_9="36.06912"></scales>
<clustering>
<clus scale="   36.069">  2  9  1 -1</clus>
<clus scale="   92.739">  7  8 -1 -1</clus>
<clus scale="   95.745">  5  6 -1 -1</clus>
<clus scale="  105.294">  2  7  1 -1</clus>
<clus scale="   36.069">  2  5  1 -1</clus>
</clustering>
</event>
<event>
 9    1  0.1636528E-005  0.1239856E+03  0.7546771E-02  0.1236787E+00
          3   -1    0    0  502    0 -0.00000000000E+00  0.00000000000E+00  0.14363510370E+03  0.14363510370E+03  0.00000000000E+00 0. -1.
         21   -1    0    0  501  502  0.00000000000E+00 -0.00000000000E+00 -0.18093054930E+03  0.18093054930E+03  0.00000000000E+00 0. -1.
         23    2    1    2    0    0 -0.64753716917E+00 -0.80217124759E+02  0.32855051754E+02  0.12522160801E+03  0.90364762362E+02 0.  0.
         23    2    1    2    0    0 -0.23295843184E+02  0.89388273950E+02 -0.53260507206E+01  0.12963318271E+03  0.90793366570E+02 0.  0.
        -11    1    3    3    0    0  0.29118247209E+02 -0.42149363427E+02 -0.18722638094E+02  0.54543361971E+02  0.00000000000E+00 0.  1.
         11    1    3    3    0    0 -0.29765784378E+02 -0.38067761331E+02  0.51577689848E+02  0.70678246034E+02  0.00000000000E+00 0. -1.
        -13    1    4    4    0    0  0.30846539517E+02  0.12039109715E+02 -0.11406059622E+02  0.35022098152E+02  0.00000000000E+00 0.  1.
         13    1    4    4    0    0 -0.54142382701E+02  0.77349164235E+02  0.60800089010E+01  0.94611084555E+02  0.00000000000E+00 0. -1.
          3    1    1    2  501    0  0.23943380353E+02 -0.91711491919E+01 -0.64824446628E+02  0.69710862287E+02  0.00000000000E+00 0. -1.
<scales pt_clust_5="13000.00000" pt_clust_6="13000.00000" pt_clust_7="13000.00000" pt_clust_8="13000.00000" pt_clust_9="25.63972"></scales>
<clustering>
<clus scale="   25.640">  2  9  1 -1</clus>
<clus scale="   90.365">  5  6 -1 -1</clus>
<clus scale="   90.793">  7  8 -1 -1</clus>
<clus scale="  123.672">  1  5  2 -1</clus>
<clus scale="   25.640">  2  5  1 -1</clus>
</clustering>
</event>
<event>
 9    1  0.1636528E-005  0.1145769E+03  0.7546771E-02  0.1253566E+00
         21   -1    0    0  501  502  0.00000000000E+00  0.00000000000E+00  0.95495843457E+02  0.95495843457E+02  0.00000000000E+00 0.  1.
         -4   -1    0    0    0  501 -0.00000000000E+00 -0.00000000000E+00 -0.26290064892E+03  0.26290064892E+03  0.00000000000E+00 0.  1.
         23    2    1    2    0    0 -0.62619925204E+02 -0.16094918702E+02 -0.13726810038E+03  0.17629374606E+03  0.89758855137E+02 0.  0.
         23    2    1    2    0    0  0.72934872562E+02  0.45825398448E+02 -0.62532043243E+02  0.13693907176E+03  0.86154455275E+02 0.  0.
        -11    1    3    3    0    0 -0.64253991318E+02  0.56496470331E+01 -0.38437645224E+02  0.75086260276E+02  0.00000000000E+00 0.  1.
         11    1    3    3    0    0  0.16340661137E+01 -0.21744565735E+02 -0.98830455160E+02  0.10120748578E+03  0.00000000000E+00 0. -1.
        -11    1    4    4    0    0  0.23669920118E+02  0.35785039838E+02 -0.73844919741E+02  0.85404369714E+02  0.00000000000E+00 0.  1.
         11    1    4    4    0    0  0.49264952444E+02  0.10040358610E+02  0.11312876499E+02  0.51534702046E+02  0.00000000000E+00 0. -1.
         -4    1    1    2    0  502 -0.10314947358E+02 -0.29730479746E+02  0.32395338164E+02  0.45163674559E+02  0.00000000000E+00 0.  1.
<scales pt_clust_5="13000.00000" pt_clust_6="13000.00000" pt_clust_7="13000.00000" pt_clust_8="13000.00000" pt_clust_9="31.46903"></scales>
<clustering>
<clus scale="   31.469">  1  9  2 -1</clus>
<clus scale="   86.154">  7  8 -1 -1</clus>
<clus scale="   89.759">  5  6 -1 -1</clus>
<clus scale="  111.776">  1  7  2 -1</clus>
<clus scale="   31.469">  1  5  2 -1</clus>
</clustering>
</event>
<event>
 9    1  0.1636528E-005  0.1201950E+03  0.7546771E-02  0.1243392E+00
         21   -1    0    0  501  502  0.00000000000E+00  0.00000000000E+00  0.13245510133E+03  0.13245510133E+03  0.00000000000E+00 0.  1.
         -2   -1    0    0    0  501 -0.00000000000E+00 -0.00000000000E+00 -0.36230273090E+03  0.36230273090E+03  0.00000000000E+00 0.  1.
         23    2    1    2    0    0  0.54037003119E+02 -0.44509127621E+02 -0.17442875430E+03  0.20962576757E+03  0.92825168762E+02 0.  0.
         23    2    1    2    0    0 -0.45523818678E+01  0.10947338280E+03 -0.11584906041E+03  0.18354028611E+03  0.90889416898E+02 0.  0.
        -11    1    4    4    0    0 -0.16813031654E+02 -0.11716230445E+02 -0.14877702560E+02  0.25323785711E+02  0.00000000000E+00 0.  1.
         11    1    4    4    0    0  0.12260649786E+02  0.12118961325E+03 -0.10097135785E+03  0.15821650040E+03  0.00000000000E+00 0. -1.
        -13    1    3    3    0    0  0.12077721244E+02  0.24609163216E+02 -0.83800999639E+02  0.88170799050E+02  0.00000000000E+00 0.  1.
         13    1    3    3    0    0  0.41959281875E+02 -0.69118290837E+02 -0.90627754664E+02  0.12145496852E+03  0.00000000000E+00 0. -1.
         -2    1    1    2    0  502 -0.49484621251E+02 -0.64964255180E+02  0.60430185142E+02  0.10159177854E+03  0.00000000000E+00 0.  1.
<scales pt_clust_5="13000.00000" pt_clust_6="13000.00000" pt_clust_7="13000.00000" pt_clust_8="13000.00000" pt_clust_9="81.66445"></scales>
<clustering>
<clus scale="   81.664">  1  9  2 -1</clus>
<clus scale="   90.889">  5  6 -1 -1</clus>
<clus scale="   92.825">  7  8 -1 -1</clus>
<clus scale="  118.706">  1  5  2 -1</clus>
<clus scale="   81.664">  1  5  2 -1</clus>
</clustering>
</event>
<event>
 9    1  0.1636528E-005  0.1158764E+03  0.7546771E-02  0.1250346E+00
         -3   -1    0    0    0  501 -0.00000000000E+00  0.00000000000E+00  0.12979510861E+03  0.12979510861E+03  0.00000000000E+00 0.  1.
         21   -1    0    0  501  502  0.00000000000E+00 -0.00000000000E+00 -0.16145822853E+03  0.16145822853E+03  0.00000000000E+00 0. -1.
         23    2    1    2    0    0  0.68536579268E+02  0.29859739719E+02  0.56525118009E+02  0.13067554569E+03  0.91061202058E+02 0.  0.
         23    2    1    2    0    0 -0.60628183404E+02 -0.73564842004E+01 -0.72226419311E+02  0.13187728819E+03  0.91897056602E+02 0.  0.
        -11    1    3    3    0    0 -0.27596327414E+01 -0.25435346999E+02  0.29799551381E+01  0.25757573302E+02  0.00000000000E+00 0. -1.
         11    1    3    3    0    0  0.71296212009E+02  0.55295086717E+02  0.53545162871E+02  0.10491797238E+03  0.00000000000E+00 0.  1.
        -13    1    4    4    0    0 -0.51787735306E+01  0.25304324144E+02  0.97946865451E+01  0.27623620331E+02  0.00000000000E+00 0.  1.
         13    1    4    4    0    0 -0.55449409874E+02 -0.32660808344E+02 -0.82021105857E+02  0.10425366786E+03  0.00000000000E+00 0. -1.
         -3    1    1    2    0  502 -0.79083958636E+01 -0.22503255518E+02 -0.15961818612E+02  0.28700503261E+02  0.00000000000E+00 0.  1.
<scales pt_clust_5="13000.00000" pt_clust_6="13000.00000" pt_clust_7="13000.00000" pt_clust_8="13000.00000" pt_clust_9="23.85245"></scales>
<clustering>
<clus scale="   23.852">  2  9  1 -1</clus>
<clus scale="   91.061">  5  6 -1 -1</clus>
<clus scale="   91.897">  7  8 -1 -1</clus>
<clus scale="  115.215">  1  5  2 -1</clus>
<clus scale="   23.852">  2  5  1 -1</clus>
</clustering>
</event>
<event>
 9    1  0.1636528E-005  0.1074670E+03  0.7546771E-02  0.1266833E+00
         21   -1    0    0  501  502  0.00000000000E+00  0.00000000000E+00  0.13805834225E+03  0.13805834225E+03  0.00000000000E+00 0. -1.
         -1   -1    0    0    0  501 -0.00000000000E+00 -0.00000000000E+00 -0.19757799781E+03  0.19757799781E+03  0.00000000000E+00 0.  1.
         23    2    1    2    0    0  0.75731068971E+02 -0.34010671365E+02 -0.85868299829E+02  0.15110206431E+03  0.92555650014E+02 0.  0.
         23    2    1    2    0    0 -0.14918665293E+02  0.25855549411E+02 -0.32718708487E+02  0.99366167762E+02  0.88949679040E+02 0.  0.
        -11    1    3    3    0    0  0.59705365799E+02  0.37847424832E+01 -0.45367518736E+01  0.59996975744E+02  0.00000000000E+00 0. -1.
         11    1    3    3    0    0  0.16025703172E+02 -0.37795413848E+02 -0.81331547955E+02  0.91105088567E+02  0.00000000000E+00 0.  1.
        -11    1    4    4    0    0 -0.10664106566E+02 -0.19492952158E+02 -0.46703805051E+02  0.51719858458E+02  0.00000000000E+00 0.  1.
         11    1    4    4    0    0 -0.42545587263E+01  0.45348501569E+02  0.13985096563E+02  0.47646309305E+02  0.00000000000E+00 0. -1.
         -1    1    1    2    0  502 -0.60812403678E+02  0.81551219541E+01  0.59067352763E+02  0.85168107985E+02  0.00000000000E+00 0.  1.
<scales pt_clust_5="13000.00000" pt_clust_6="13000.00000" pt_clust_7="13000.00000" pt_clust_8="13000.00000" pt_clust_9="61.35678"></scales>
<clustering>
<clus scale="   61.357">  1  9  2 -1</clus>
<clus scale="   88.950">  7  8 -1 -1</clus>
<clus scale="   92.556">  5  6 -1 -1</clus>
<clus scale="  104.377">  1  7  2 -1</clus>
<clus scale="   61.357">  1  5  2 -1</clus>
</clustering>
</event>
<event>
 9    1  0.1636528E-005  0.1550877E+03  0.7546771E-02  0.1195409E+00
          2   -1    0    0  502    0 -0.00000000000E+00  0.00000000000E+00  0.42287167099E+03  0.42287167099E+03  0.00000000000E+00 0. -1.
         21   -1    0    0  501  502  0.00000000000E+00 -0.00000000000E+00 -0.16782597883E+03  0.16782597883E+03  0.00000000000E+00 0.  1.
         23    2    1    2    0    0 -0.11792998257E+03 -0.46043785452E+02  0.35356162746E+03  0.38556503712E+03  0.87333054843E+02 0.  0.
         23    2    1    2    0    0  0.86067297873E+02  0.55336739874E+02 -0.10165285786E+03  0.17179449696E+03  0.93329047635E+02 0.  0.
        -13    1    4    4    0    0  0.55809028251E+02 -0.41750461508E+01 -0.86995245824E+02  0.10344201971E+03  0.00000000000E+00 0.  1.
         13    1    4    4    0    0  0.30258269621E+02  0.59511786025E+02 -0.14657612032E+02  0.68352477255E+02  0.00000000000E+00 0. -1.
        -13    1    3    3    0    0 -0.90198973616E+02  0.36497258511E+01  0.26810031622E+03  0.28289035844E+03  0.00000000000E+00 0. -1.
         13    1    3    3    0    0 -0.27731008953E+02 -0.49693511303E+02  0.85461311243E+02  0.10267467868E+03  0.00000000000E+00 0.  1.
          2    1    1    2  501    0  0.31862684696E+02 -0.92929544225E+01  0.31369225562E+01  0.33338115740E+02  0.00000000000E+00 0. -1.
<scales pt_clust_5="13000.00000" pt_clust_6="13000.00000" pt_clust_7="13000.00000" pt_clust_8="13000.00000" pt_clust_9="33.19020"></scales>
<clustering>
<clus scale="   33.190">  2  9  1 -1</clus>
<clus scale="   87.333">  7  8 -1 -1</clus>
<clus scale="   93.329">  5  6 -1 -1</clus>
<clus scale="  151.555">  1  7  2 -1</clus>
<clus scale="   33.190">  2  5  1 -1</clus>
</clustering>
</event>
<event>
 9    1  0.1636528E-005  0.1008955E+03  0.7546771E-02  0.1278665E+00
         21   -1    0    0  501  502  0.00000000000E+00  0.00000000000E+00  0.24007344376E+03  0.24007344376E+03  0.00000000000E+00 0.  1.
          1   -1    0    0  502    0 -0.00000000000E+00 -0.00000000000E+00 -0.56371172183E+02  0.56371172183E+02  0.00000000000E+00 0. -1.
         23    2    1    2    0    0 -0.30690018516E+02 -0.13640556593E+02  0.51660662713E+02  0.11103037698E+03  0.92363296382E+02 0.  0.
         23    2    1    2    0    0  0.38489907198E+02  0.35881564003E+02  0.99894044785E+02  0.14555239568E+03  0.91857063493E+02 0.  0.
        -11    1    3    3    0    0  0.22509105785E+02 -0.11111454859E+02 -0.12171447575E+02  0.27897462400E+02  0.00000000000E+00 0. -1.
         11    1    3    3    0    0 -0.53199124301E+02 -0.25291017343E+01  0.63832110288E+02  0.83132914575E+02  0.00000000000E+00 0.  1.
        -11    1    4    4    0    0 -0.19477025725E+02  0.15352303129E+02 -0.37063712599E+01  0.25075584347E+02  0.00000000000E+00 0.  1.
         11    1    4    4    0    0  0.57966932923E+02  0.20529260874E+02  0.10360041604E+03  0.12047681133E+03  0.00000000000E+00 0. -1.
          1    1    1    2  501    0 -0.77998886817E+01 -0.22241007409E+02  0.32147564081E+02  0.39861843289E+02  0.00000000000E+00 0. -1.
<scales pt_clust_5="13000.00000" pt_clust_6="13000.00000" pt_clust_7="13000.00000" pt_clust_8="13000.00000" pt_clust_9="23.56906"></scales>
<clustering>
<clus scale="   23.569">  1  9  2 -1</clus>
<clus scale="   91.857">  7  8 -1 -1</clus>
<clus scale="   92.363">  5  6 -1 -1</clus>
<clus scale="  100.432">  1  7  2 -1</clus>
<clus scale="   23.569">  1  5  2 -1</clus>
</clustering>
</event>
<event>
 9    1  0.1636528E-005  0.9798127E+02  0.7546771E-02  0.1285086E+00
         21   -1    0    0  501  502  0.00000000000E+00  0.00000000000E+00  0.20326150036E+03  0.20326150036E+03  0.00000000000E+00 0.  1.
          3   -1    0    0  502    0 -0.00000000000E+00 -0.00000000000E+00 -0.72746211718E+02  0.72746211718E+02  0.00000000000E+00 0. -1.
         23    2    1    2    0    0 -0.24598599256E+02  0.24052234083E+02  0.10391833265E+01  0.97096861269E+02  0.90791626908E+02 0.  0.
         23    2    1    2    0    0  0.15752616239E+02 -0.42536843819E+02  0.92735796156E+02  0.13684206749E+03  0.89823691451E+02 0.  0.
        -11    1    3    3    0    0  0.30864601702E+00  0.54851545446E+02 -0.10482342502E+02  0.55845024886E+02  0.00000000000E+00 0.  1.
         11    1    3    3    0    0 -0.24907245273E+02 -0.30799311364E+02  0.11521525829E+02  0.41251836383E+02  0.00000000000E+00 0. -1.
        -11    1    4    4    0    0  0.30289130064E+02  0.80674383368E+01  0.74996202868E+02  0.81283118826E+02  0.00000000000E+00 0.  1.
         11    1    4    4    0    0 -0.14536513826E+02 -0.50604282156E+02  0.17739593287E+02  0.55558948665E+02  0.00000000000E+00 0. -1.
          3    1    1    2  501    0  0.88459830171E+01  0.18484609736E+02  0.36740309156E+02  0.42068783314E+02  0.00000000000E+00 0. -1.
<scales pt_clust_5="13000.00000" pt_clust_6="13000.00000" pt_clust_7="13000.00000" pt_clust_8="13000.00000" pt_clust_9="20.49225"></scales>
<clustering>
<clus scale="   20.492">  1  9  2 -1</clus>
<clus scale="   89.824">  7  8 -1 -1</clus>
<clus scale="   90.792">  5  6 -1 -1</clus>
<clus scale="   97.085">  1  7  2 -1</clus>
<clus scale="   20.492">  1  5  2 -1</clus>
</clustering>
</event>
<event>
 9    1  0.1636528E-005  0.1004238E+03  0.7546771E-02  0.1279969E+00
          1   -1    0    0  502    0 -0.00000000000E+00  0.00000000000E+00  0.59736017255E+03  0.59736017255E+03  0.00000000000E+00 0. -1.
         21   -1    0    0  501  502  0.00000000000E+00 -0.00000000000E+00 -0.40802345456E+02  0.40802345456E+02  0.00000000000E+00 0. -1.
         23    2    1    2    0    0  0.33912280461E+02  0.16757226600E+02  0.47836801749E+03  0.48898132599E+03  0.93999625572E+02 0.  0.
         23    2    1    2    0    0 -0.29525308186E+02  0.70586357581E+01  0.77922074653E+02  0.12496317171E+03  0.92856752056E+02 0.  0.
        -11    1    3    3    0    0  0.36675749822E+02 -0.33564446633E+02  0.27528964637E+03  0.27974286782E+03  0.00000000000E+00 0. -1.
         11    1    3    3    0    0 -0.27634693606E+01  0.50321673234E+02  0.20307837112E+03  0.20923845817E+03  0.00000000000E+00 0.  1.
        -13    1    4    4    0    0  0.17409361649E+02 -0.30092468981E+02  0.14251638436E+02  0.37573285197E+02  0.00000000000E+00 0. -1.
         13    1    4    4    0    0 -0.46934669835E+02  0.37151104739E+02  0.63670436218E+02  0.87389886509E+02  0.00000000000E+00 0.  1.
          1    1    1    2  501    0 -0.43869722756E+01 -0.23815862359E+02  0.26773495601E+00  0.24218020308E+02  0.00000000000E+00 0. -1.
<scales pt_clust_5="13000.00000" pt_clust_6="13000.00000" pt_clust_7="13000.00000" pt_clust_8="13000.00000" pt_clust_9="24.21654"></scales>
<clustering>
<clus scale="   24.217">  2  9  1 -1</clus>
<clus scale="   92.857">  7  8 -1 -1</clus>
<clus scale="   94.000">  5  6 -1 -1</clus>
<clus scale="   99.355">  2  7  1 -1</clus>
<clus scale="   24.217">  2  5  1 -1</clus>
</clustering>
</event>
<event>
 9    1  0.1636528E-005  0.1082890E+03  0.7546771E-02  0.1263965E+00
         21   -1    0    0  501  502  0.00000000000E+00  0.00000000000E+00  0.22767111146E+03  0.22767111146E+03  0.00000000000E+00 0. -1.
          1   -1    0    0  502    0 -0.00000000000E+00 -0.00000000000E+00 -0.27523538099E+03  0.27523538099E+03  0.00000000000E+00 0. -1.
         23    2    1    2    0    0  0.57097382713E+02  0.77800274011E+01 -0.17655091096E+03  0.20761143963E+03  0.92798953465E+02 0.  0.
         23    2    1    2    0    0 -0.44481871477E+02 -0.36873610814E+02 -0.45439864884E+02  0.11800942501E+03  0.92320869835E+02 0.  0.
        -13    1    3    3    0    0  0.46018588717E+02 -0.29872490104E+02 -0.15130373360E+03  0.16094376649E+03  0.00000000000E+00 0.  1.
         13    1    3    3    0    0  0.11078793996E+02  0.37652517505E+02 -0.25247177361E+02  0.46667673133E+02  0.00000000000E+00 0. -1.
        -13    1    4    4    0    0 -0.94610689239E+01 -0.62374168732E+02 -0.39113059138E+02  0.74228566909E+02  0.00000000000E+00 0. -1.
         13    1    4    4    0    0 -0.35020802553E+02  0.25500557918E+02 -0.63268057458E+01  0.43780858106E+02  0.00000000000E+00 0.  1.
          1    1    1    2  501    0 -0.12615511236E+02  0.29093583413E+02  0.17442650632E+03  0.17728562780E+03  0.00000000000E+00 0. -1.
<scales pt_clust_5="13000.00000" pt_clust_6="13000.00000" pt_clust_7="13000.00000" pt_clust_8="13000.00000" pt_clust_9="31.71100"></scales>
<clustering>
<clus scale="   31.711">  1  9  2 -1</clus>
<clus scale="   92.321">  7  8 -1 -1</clus>
<clus scale="   92.799">  5  6 -1 -1</clus>
<clus scale="  107.880">  1  7  2 -1</clus>
<clus scale="   31.711">  1  5  2 -1</clus>
</clustering>
</event>
<event>
 9    1  0.1636528E-005  0.1150294E+03  0.7546771E-02  0.1252793E+00
         21   -1    0    0  501  502  0.00000000000E+00  0.00000000000E+00  0.26368146756E+03  0.26368146756E+03  0.00000000000E+00 0. -1.
          1   -1    0    0  502    0 -0.00000000000E+00 -0.00000000000E+00 -0.10788328319E+03  0.10788328319E+03  0.00000000000E+00 0. -1.
         23    2    1    2    0    0  0.36186499602E+02 -0.60298128173E+02  0.29128047656E+02  0.11881048357E+03  0.91225878080E+02 0.  0.
         23    2    1    2    0    0  0.28692740003E+02  0.69900012009E+02  0.14070453748E+03  0.18568358573E+03  0.94717169163E+02 0.  0.
        -11    1    4    4    0    0  0.34196706398E+02  0.90938604482E+02  0.99346740315E+02  0.13895689736E+03  0.00000000000E+00 0. -1.
         11    1    4    4    0    0 -0.55039663943E+01 -0.21038592473E+02  0.41357797169E+02  0.46726688369E+02  0.00000000000E+00 0.  1.
        -13    1    3    3    0    0  0.49383646837E+02  0.31725109470E+01  0.54120107161E+01  0.49780510852E+02  0.00000000000E+00 0.  1.
         13    1    3    3    0    0 -0.13197147235E+02 -0.63470639120E+02  0.23716036940E+02  0.69029972719E+02  0.00000000000E+00 0. -1.
          1    1    1    2  501    0 -0.64879239606E+02 -0.96018838360E+01 -0.14034400768E+02  0.67070681448E+02  0.00000000000E+00 0. -1.
<scales pt_clust_5="13000.00000" pt_clust_6="13000.00000" pt_clust_7="13000.00000" pt_clust_8="13000.00000" pt_clust_9="65.58595"></scales>
<clustering>
<clus scale="   65.586">  1  9  2 -1</clus>
<clus scale="   91.226">  7  8 -1 -1</clus>
<clus scale="   94.717">  5  6 -1 -1</clus>
<clus scale="  112.172">  2  7  1 -1</clus>
<clus scale="   65.586">  1  5  2 -1</clus>
</clustering>
</event>
<event>
 9    1  0.1636528E-005  0.1414645E+03  0.7546771E-02  0.1212236E+00
         21   -1    0    0  501  502  0.00000000000E+00  0.00000000000E+00  0.94994375696E+02  0.94994375696E+02  0.00000000000E+00 0. -1.
          1   -1    0    0  502    0 -0.00000000000E+00 -0.00000000000E+00 -0.27982103466E+03  0.27982103466E+03  0.00000000000E+00 0. -1.
         23    2    1    2    0    0 -0.25753011568E+01  0.11561324800E+03 -0.13429642961E+03  0.20097307709E+03  0.94771258419E+02 0.  0.
         23    2    1    2    0    0  0.27089557689E+02 -0.87807900557E+02 -0.37895187640E+02  0.13467946311E+03  0.90875964923E+02 0.  0.
        -11    1    3    3    0    0 -0.46000986818E+02  0.40777307976E+02 -0.70098804820E+02  0.93234768575E+02  0.00000000000E+00 0.  1.
         11    1    3    3    0    0  0.43425685661E+02  0.74835940021E+02 -0.64197624787E+02  0.10773830852E+03  0.00000000000E+00 0. -1.
        -13    1    4    4    0    0  0.17818085009E+02 -0.42862769952E+02 -0.66131901018E+02  0.80796841112E+02  0.00000000000E+00 0. -1.
         13    1    4    4    0    0  0.92714726799E+01 -0.44945130605E+02  0.28236713378E+02  0.53882621996E+02  0.00000000000E+00 0.  1.
          1    1    1    2  501    0 -0.24514256533E+02 -0.27805347439E+02 -0.12635041714E+02  0.39162870154E+02  0.00000000000E+00 0. -1.
<scales pt_clust_5="13000.00000" pt_clust_6="13000.00000" pt_clust_7="13000.00000" pt_clust_8="13000.00000" pt_clust_9="37.06867"></scales>
<clustering>
<clus scale="   37.069">  1  9  2 -1</clus>
<clus scale="   90.876">  7  8 -1 -1</clus>
<clus scale="   94.771">  5  6 -1 -1</clus>
<clus scale="  138.885">  1  7  2 -1</clus>
<clus scale="   37.069">  1  5  2 -1</clus>
</clustering>
</event>
<event>
 9    1  0.1636528E-005  0.1067386E+03  0.7546771E-02  0.1267222E+00
         21   -1    0    0  501  502  0.00000000000E+00  0.00000000000E+00  0.57664808411E+02  0.57664808411E+02  0.00000000000E+00 0.  1.
          1   -1    0    0  502    0 -0.00000000000E+00 -0.00000000000E+00 -0.35801726580E+03  0.35801726580E+03  0.00000000000E+00 0. -1.
         23    2    1    2    0    0 -0.24901533594E+02 -0.69852732312E+02 -0.13995501033E+03  0.18263361560E+03  0.90929324449E+02 0.  0.
         23    2    1    2    0    0 -0.19286962284E+02  0.35732879415E+02 -0.52624615922E+02  0.11167395280E+03  0.89737929253E+02 0.  0.
        -11    1    3    3    0    0 -0.39193829630E+02  0.14016803507E+01 -0.24602100803E+02  0.46296699156E+02  0.00000000000E+00 0.  1.
         11    1    3    3    0    0  0.14292296035E+02 -0.71254412663E+02 -0.11535290952E+03  0.13633691644E+03  0.00000000000E+00 0. -1.
        -11    1    4    4    0    0  0.28767950333E+02  0.20113357013E+02 -0.49980345698E+02  0.61075175422E+02  0.00000000000E+00 0. -1.
         11    1    4    4    0    0 -0.48054912617E+02  0.15619522402E+02 -0.26442702245E+01  0.50598777374E+02  0.00000000000E+00 0.  1.
          1    1    1    2  501    0  0.44188495878E+02  0.34119852897E+02 -0.10777283114E+03  0.12137450581E+03  0.00000000000E+00 0. -1.
<scales pt_clust_5="13000.00000" pt_clust_6="13000.00000" pt_clust_7="13000.00000" pt_clust_8="13000.00000" pt_clust_9="55.82822"></scales>
<clustering>
<clus scale="   55.828">  1  9  2 -1</clus>
<clus scale="   89.738">  7  8 -1 -1</clus>
<clus scale="   90.929">  5  6 -1 -1</clus>
<clus scale="  105.725">  1  7  2 -1</clus>
<clus scale="   55.828">  1  5  2 -1</clus>
</clustering>
</event>
<event>
 9    1  0.1636528E-005  0.9849992E+02  0.7546771E-02  0.1285679E+00
         21   -1    0    0  501  502  0.00000000000E+00  0.00000000000E+00  0.17656664275E+03  0.17656664275E+03  0.00000000000E+00 0.  1.
          1   -1    0    0  502    0 -0.00000000000E+00 -0.00000000000E+00 -0.11357527458E+03  0.11357527458E+03  0.00000000000E+00 0. -1.
         23    2    1    2    0    0  0.32179848895E+02  0.36756039707E+01 -0.59237469896E+02  0.11200671060E+03  0.89372102131E+02 0.  0.
         23    2    1    2    0    0 -0.23507002344E+02  0.23500540779E+02  0.10622552414E+03  0.14542638274E+03  0.93595492635E+02 0.  0.
        -11    1    4    4    0    0  0.15905473769E+02 -0.20194027127E+02  0.20584028223E+01  0.25787978781E+02  0.00000000000E+00 0. -1.
         11    1    4    4    0    0 -0.39412476113E+02  0.43694567906E+02  0.10416712132E+03  0.11963840396E+03  0.00000000000E+00 0.  1.
        -11    1    3    3    0    0  0.61697906576E+02  0.17801392976E+01 -0.53910361613E+02  0.81951983875E+02  0.00000000000E+00 0. -1.
         11    1    3    3    0    0 -0.29518057681E+02  0.18954646730E+01 -0.53271082829E+01  0.30054726721E+02  0.00000000000E+00 0.  1.
          1    1    1    2  501    0 -0.86728465504E+01 -0.27176144750E+02  0.16003313915E+02  0.32708823993E+02  0.00000000000E+00 0. -1.
<scales pt_clust_5="13000.00000" pt_clust_6="13000.00000" pt_clust_7="13000.00000" pt_clust_8="13000.00000" pt_clust_9="28.52650"></scales>
<clustering>
<clus scale="   28.526">  1  9  2 -1</clus>
<clus scale="   89.372">  7  8 -1 -1</clus>
<clus scale="   93.595">  5  6 -1 -1</clus>
<clus scale="   94.496">  2  7  1 -1</clus>
<clus scale="   28.526">  1  5  2 -1</clus>
</clustering>
</event>
<event>
 9    1  0.1636528E-005  0.1069177E+03  0.7546771E-02  0.1266839E+00
         -3   -1    0    0    0  501 -0.00000000000E+00  0.00000000000E+00  0.37875419997E+02  0.37875419997E+02  0.00000000000E+00 0.  1.
         21   -1    0    0  501  502  0.00000000000E+00 -0.00000000000E+00 -0.40756355238E+03  0.40756355238E+03  0.00000000000E+00 0. -1.
         23    2    1    2    0    0  0.11541168362E+02 -0.57203533259E+02 -0.16246008827E+03  0.19517850364E+03  0.91081969770E+02 0.  0.
         23    2    1    2    0    0 -0.37704694126E+02  0.39201927377E+02 -0.17414259741E+03  0.20439943214E+03  0.92168587686E+02 0.  0.
        -13    1    4    4    0    0 -0.41210124935E+02  0.66267175270E+02 -0.11175853727E+03  0.13630694615E+03  0.00000000000E+00 0.  1.
         13    1    4    4    0    0  0.35054308087E+01 -0.27065247893E+02 -0.62384060142E+02  0.68092485992E+02  0.00000000000E+00 0. -1.
        -13    1    3    3    0    0 -0.36906158462E+02 -0.63727726793E+01 -0.47804607003E+02  0.60728553537E+02  0.00000000000E+00 0.  1.
         13    1    3    3    0    0  0.48447326824E+02 -0.50830760580E+02 -0.11465548126E+03  0.13444995010E+03  0.00000000000E+00 0. -1.
         -3    1    1    2    0  502  0.26163525764E+02  0.18001605882E+02 -0.33085446701E+02  0.45861036601E+02  0.00000000000E+00 0.  1.
<scales pt_clust_5="13000.00000" pt_clust_6="13000.00000" pt_clust_7="13000.00000" pt_clust_8="13000.00000" pt_clust_9="31.75829"></scales>
<clustering>
<clus scale="   31.758">  2  9  1 -1</clus>
<clus scale="   91.082">  7  8 -1 -1</clus>
<clus scale="   92.169">  5  6 -1 -1</clus>
<clus scale="  105.982">  1  7  2 -1</clus>
<clus scale="   31.758">  2  5  1 -1</clus>
</clustering>
</event>
<event>
 9    1  0.1636528E-005  0.1472121E+03  0.7546771E-02  0.1216107E+00
         21   -1    0    0  501  502  0.00000000000E+00  0.00000000000E+00  0.16529293948E+03  0.16529293948E+03  0.00000000000E+00 0. -1.
          1   -1    0    0  502    0 -0.00000000000E+00 -0.00000000000E+00 -0.39125203210E+03  0.39125203210E+03  0.00000000000E+00 0. -1.
         23    2    1    2    0    0 -0.31414229902E+01  0.72725798212E+02 -0.57203232905E+02  0.12713060602E+03  0.87126751734E+02 0.  0.
         23    2    1    2    0    0 -0.69973971549E+02  0.25317389393E+02 -0.25437861085E+03  0.28011740287E+03  0.90663966550E+02 0.  0.
        -13    1    4    4    0    0 -0.17184158900E+02  0.36275849057E+02 -0.19831211007E+03  0.20233369849E+03  0.00000000000E+00 0. -1.
         13    1    4    4    0    0 -0.52789812649E+02 -0.10958459664E+02 -0.56066500783E+02  0.77783704384E+02  0.00000000000E+00 0.  1.
        -13    1    3    3    0    0 -0.33794227475E+02  0.26804764044E+01 -0.43411971932E+01  0.34177196454E+02  0.00000000000E+00 0.  1.
         13    1    3    3    0    0  0.30652804485E+02  0.70045321807E+02 -0.52862035712E+02  0.92953409564E+02  0.00000000000E+00 0. -1.
          1    1    1    2  501    0  0.73115394539E+02 -0.98043187605E+02  0.85622751142E+02  0.14929696269E+03  0.00000000000E+00 0. -1.
<scales pt_clust_5="13000.00000" pt_clust_6="13000.00000" pt_clust_7="13000.00000" pt_clust_8="13000.00000" pt_clust_9="115.98043"></scales>
<clustering>
<clus scale="   87.127">  7  8 -1 -1</clus>
<clus scale="   90.664">  5  6 -1 -1</clus>
<clus scale="  113.534">  2  7  1 -1</clus>
<clus scale="  115.980">  1  9  2 -1</clus>
<clus scale="  115.980">  1  5  2 -1</clus>
</clustering>
</event>
<event>
 9    1  0.1636528E-005  0.1657279E+03  0.7546771E-02  0.1182773E+00
         21   -1    0    0  501  502  0.00000000000E+00  0.00000000000E+00  0.14399154228E+03  0.14399154228E+03  0.00000000000E+00 0. -1.
          1   -1    0    0  502    0 -0.00000000000E+00 -0.00000000000E+00 -0.49615150478E+03  0.49615150478E+03  0.00000000000E+00 0. -1.
         23    2    1    2    0    0 -0.43597815368E+02 -0.13159303769E+03 -0.38428369182E+03  0.41901592753E+03  0.93182051125E+02 0.  0.
         23    2    1    2    0    0  0.74367594515E+02  0.10785287697E+03  0.63223658417E+02  0.17135182316E+03  0.90561769702E+02 0.  0.
        -11    1    3    3    0    0  0.27817335788E+02 -0.57650135457E+02 -0.15814227809E+03  0.17060575139E+03  0.00000000000E+00 0.  1.
         11    1    3    3    0    0 -0.71415151155E+02 -0.73942902233E+02 -0.22614141373E+03  0.24841017614E+03  0.00000000000E+00 0. -1.
        -13    1    4    4    0    0  0.21940124400E+02  0.78637743266E+02 -0.33605490910E+01  0.81710201412E+02  0.00000000000E+00 0.  1.
         13    1    4    4    0    0  0.52427470116E+02  0.29215133706E+02  0.66584207508E+02  0.89641621748E+02  0.00000000000E+00 0. -1.
          1    1    1    2  501    0 -0.30769779148E+02  0.23740160718E+02 -0.31099929097E+02  0.49775296378E+02  0.00000000000E+00 0. -1.
<scales pt_clust_5="13000.00000" pt_clust_6="13000.00000" pt_clust_7="13000.00000" pt_clust_8="13000.00000" pt_clust_9="38.86356"></scales>
<clustering>
<clus scale="   38.864">  1  9  2 -1</clus>
<clus scale="   90.562">  7  8 -1 -1</clus>
<clus scale="   93.182">  5  6 -1 -1</clus>
<clus scale="  164.269">  1  7  2 -1</clus>
<clus scale="   38.864">  1  5  2 -1</clus>
</clustering>
</event>
<event>
 9    1  0.1636528E-005  0.9836448E+02  0.7546771E-02  0.1284220E+00
          1   -1    0    0  502    0 -0.00000000000E+00  0.00000000000E+00  0.35498419267E+03  0.35498419267E+03  0.00000000000E+00 0. -1.
         21   -1    0    0  501  502  0.00000000000E+00 -0.00000000000E+00 -0.13782405148E+03  0.13782405148E+03  0.00000000000E+00 0. -1.
         23    2    1    2    0    0  0.25448556731E+02 -0.18775188031E+02  0.27953341738E+03  0.29612344608E+03  0.92466356917E+02 0.  0.
         23    2    1    2    0    0 -0.46630008937E+02  0.70570999013E+01  0.25012385466E+02  0.10600833271E+03  0.91585952983E+02 0.  0.
        -13    1    4    4    0    0 -0.73824433484E+01 -0.38865652799E+02 -0.24782257605E+01  0.39638126093E+02  0.00000000000E+00 0.  1.
         13    1    4    4    0    0 -0.39247565588E+02  0.45922752700E+02  0.27490611226E+02  0.66370206612E+02  0.00000000000E+00 0. -1.
        -13    1    3    3    0    0 -0.25553732857E+02  0.11583789811E+02  0.37009969607E+02  0.46442602206E+02  0.00000000000E+00 0. -1.
         13    1    3    3    0    0  0.51002289588E+02 -0.30358977842E+02  0.24252344777E+03  0.24968084388E+03  0.00000000000E+00 0.  1.
          1    1    1    2  501    0  0.21181452206E+02  0.11718088129E+02 -0.87385661659E+02  0.90676465361E+02  0.00000000000E+00 0. -1.
<scales pt_clust_5="13000.00000" pt_clust_6="13000.00000" pt_clust_7="13000.00000" pt_clust_8="13000.00000" pt_clust_9="24.20677"></scales>
<clustering>
<clus scale="   24.207">  2  9  1 -1</clus>
<clus scale="   91.586">  5  6 -1 -1</clus>
<clus scale="   92.466">  7  8 -1 -1</clus>
<clus scale="   97.537">  2  5  1 -1</clus>
<clus scale="   24.207">  2  5  1 -1</clus>
</clustering>
</event>
<event>
 9    1  0.1636528E-005  0.1047998E+03  0.7546771E-02  0.1273054E+00
         21   -1    0    0  501  502  0.00000000000E+00  0.00000000000E+00  0.48472641940E+02  0.48472641940E+02  0.00000000000E+00 0.  1.
          2   -1    0    0  502    0 -0.00000000000E+00 -0.00000000000E+00 -0.69383477721E+03  0.69383477721E+03  0.00000000000E+00 0. -1.
         23    2    1    2    0    0 -0.43911997547E+02  0.23738060062E+02 -0.55443617456E+03  0.56432685171E+03  0.92593546621E+02 0.  0.
         23    2    1    2    0    0  0.53689216398E+02  0.12884469800E+02 -0.31794343162E+02  0.10774274361E+03  0.86885424698E+02 0.  0.
        -13    1    3    3    0    0  0.25690622515E+02 -0.72043480392E+01 -0.97477097975E+02  0.10106282870E+03  0.00000000000E+00 0.  1.
         13    1    3    3    0    0 -0.69602620063E+02  0.30942408101E+02 -0.45695907659E+03  0.46326402301E+03  0.00000000000E+00 0. -1.
        -13    1    4    4    0    0  0.49523101779E+02  0.43846167955E+02 -0.45655682919E+01  0.66301345899E+02  0.00000000000E+00 0.  1.
         13    1    4    4    0    0  0.41661146190E+01 -0.30961698155E+02 -0.27228774870E+02  0.41441397716E+02  0.00000000000E+00 0. -1.
          2    1    1    2  501    0 -0.97772188508E+01 -0.36622529862E+02 -0.59131617544E+02  0.70237823823E+02  0.00000000000E+00 0. -1.
<scales pt_clust_5="13000.00000" pt_clust_6="13000.00000" pt_clust_7="13000.00000" pt_clust_8="13000.00000" pt_clust_9="37.90519"></scales>
<clustering>
<clus scale="   37.905">  1  9  2 -1</clus>
<clus scale="   86.885">  7  8 -1 -1</clus>
<clus scale="   92.594">  5  6 -1 -1</clus>
<clus scale="   99.792">  1  7  2 -1</clus>
<clus scale="   37.905">  1  5  2 -1</clus>
</clustering>
</event>
<event>
 9    1  0.1636528E-005  0.9319160E+02  0.7546771E-02  0.1296382E+00
          2   -1    0    0  502    0 -0.00000000000E+00  0.00000000000E+00  0.11862979872E+03  0.11862979872E+03  0.00000000000E+00 0. -1.
         21   -1    0    0  501  502  0.00000000000E+00 -0.00000000000E+00 -0.15158070959E+03  0.15158070959E+03  0.00000000000E+00 0.  1.
         23    2    1    2    0    0  0.22149171716E+01  0.19517059552E+02  0.57335379484E+02  0.11016078688E+03  0.91990389460E+02 0.  0.
         23    2    1    2    0    0 -0.20081521410E+02  0.92803940279E+01 -0.84830576050E+02  0.12572372985E+03  0.90115683418E+02 0.  0.
        -11    1    4    4    0    0 -0.35820029886E+02 -0.32166884463E+02 -0.38994720733E+02  0.61954590162E+02  0.00000000000E+00 0. -1.
         11    1    4    4    0    0  0.15738508476E+02  0.41447278491E+02 -0.45835855317E+02  0.63769139684E+02  0.00000000000E+00 0.  1.
        -13    1    3    3    0    0 -0.18074534731E+02  0.45485857965E+02  0.62146724667E+01  0.49338364732E+02  0.00000000000E+00 0.  1.
         13    1    3    3    0    0  0.20289451903E+02 -0.25968798413E+02  0.51120707018E+02  0.60822422144E+02  0.00000000000E+00 0. -1.
          2    1    1    2  501    0  0.17866604239E+02 -0.28797453580E+02 -0.54557143002E+01  0.34325991584E+02  0.00000000000E+00 0. -1.
<scales pt_clust_5="13000.00000" pt_clust_6="13000.00000" pt_clust_7="13000.00000" pt_clust_8="13000.00000" pt_clust_9="33.88966"></scales>
<clustering>
<clus scale="   33.890">  2  9  1 -1</clus>
<clus scale="   90.116">  5  6 -1 -1</clus>
<clus scale="   91.342">  2  5  1 -1</clus>
<clus scale="   91.990">  7  8 -1 -1</clus>
<clus scale="   33.890">  2  5  1 -1</clus>
</clustering>
</event>
<event>
 9    1  0.1636528E-005  0.1040208E+03  0.7546771E-02  0.1272182E+00
         21   -1    0    0  501  502  0.00000000000E+00  0.00000000000E+00  0.10863328280E+03  0.10863328280E+03  0.00000000000E+00 0. -1.
          2   -1    0    0  502    0 -0.00000000000E+00 -0.00000000000E+00 -0.49248859870E+03  0.49248859870E+03  0.00000000000E+00 0. -1.
         23    2    1    2    0    0  0.49524240951E+02 -0.51687322671E+01 -0.32402989988E+03  0.34005097226E+03  0.90332283743E+02 0.  0.
         23    2    1    2    0    0 -0.47561642340E+02  0.36987954479E+02 -0.13852939727E+03  0.17615547271E+03  0.90609812158E+02 0.  0.
        -11    1    4    4    0    0 -0.52261995493E+02  0.58725250923E+02 -0.13080913646E+03  0.15261389665E+03  0.00000000000E+00 0. -1.
         11    1    4    4    0    0  0.47003531527E+01 -0.21737296444E+02 -0.77202608073E+01  0.23541576060E+02  0.00000000000E+00 0.  1.
        -13    1    3    3    0    0  0.69724981490E+02 -0.80099234878E+01 -0.30191118471E+03  0.30996144175E+03  0.00000000000E+00 0. -1.
         13    1    3    3    0    0 -0.20200740539E+02  0.28411912207E+01 -0.22118715173E+02  0.30089530518E+02  0.00000000000E+00 0.  1.
          2    1    1    2  501    0 -0.19625986112E+01 -0.31819222212E+02  0.78703981251E+02  0.84915436525E+02  0.00000000000E+00 0. -1.
<scales pt_clust_5="13000.00000" pt_clust_6="13000.00000" pt_clust_7="13000.00000" pt_clust_8="13000.00000" pt_clust_9="31.87969"></scales>
<clustering>
<clus scale="   31.880">  1  9  2 -1</clus>
<clus scale="   90.332">  7  8 -1 -1</clus>
<clus scale="   90.610">  5  6 -1 -1</clus>
<clus scale="  103.779">  2  7  1 -1</clus>
<clus scale="   31.880">  1  5  2 -1</clus>
</clustering>
</event>
<event>
 9    1  0.1636528E-005  0.1285211E+03  0.7546771E-02  0.1230530E+00
          1   -1    0    0  502    0 -0.00000000000E+00  0.00000000000E+00  0.73211407257E+03  0.73211407257E+03  0.00000000000E+00 0. -1.
         21   -1    0    0  501  502  0.00000000000E+00 -0.00000000000E+00 -0.63623102863E+02  0.63623102863E+02  0.00000000000E+00 0.  1.
         23    2    1    2    0    0  0.56249949381E+02  0.54746571325E+02  0.52294150407E+03  0.53678004711E+03  0.92215825231E+02 0.  0.
         23    2    1    2    0    0 -0.94338784878E+02 -0.86175210051E+02  0.13400540439E+03  0.20824436788E+03  0.95301076525E+02 0.  0.
        -11    1    4    4    0    0 -0.51827313353E+02 -0.19417782126E+02  0.11382626465E+03  0.12656831830E+03  0.00000000000E+00 0. -1.
         11    1    4    4    0    0 -0.42511471525E+02 -0.66757427925E+02  0.20179139739E+02  0.81676049580E+02  0.00000000000E+00 0.  1.
        -13    1    3    3    0    0 -0.25225051919E+02  0.12819836858E+02  0.15781811342E+03  0.16033467618E+03  0.00000000000E+00 0.  1.
         13    1    3    3    0    0  0.81475001299E+02  0.41926734466E+02  0.36512339065E+03  0.37644537093E+03  0.00000000000E+00 0. -1.
          1    1    1    2  501    0  0.38088835498E+02  0.31428638726E+02  0.11544061249E+02  0.50712760444E+02  0.00000000000E+00 0. -1.
<scales pt_clust_5="13000.00000" pt_clust_6="13000.00000" pt_clust_7="13000.00000" pt_clust_8="13000.00000" pt_clust_9="49.38136"></scales>
<clustering>
<clus scale="   49.381">  2  9  1 -1</clus>
<clus scale="   92.216">  7  8 -1 -1</clus>
<clus scale="   95.301">  5  6 -1 -1</clus>
<clus scale="  126.250">  1  7  2 -1</clus>
<clus scale="   49.381">  2  5  1 -1</clus>
</clustering>
</event>
<event>
 9    1  0.1636528E-005  0.1262192E+03  0.7546771E-02  0.1248677E+00
          2   -1    0    0  502    0 -0.00000000000E+00  0.00000000000E+00  0.19587291006E+03  0.19587291006E+03  0.00000000000E+00 0. -1.
         21   -1    0    0  501  502  0.00000000000E+00 -0.00000000000E+00 -0.81970898186E+02  0.81970898186E+02  0.00000000000E+00 0.  1.
         23    2    1    2    0    0 -0.88738705846E+01  0.18864646019E+01  0.84568189027E+02  0.12481336439E+03  0.91347101796E+02 0.  0.
         23    2    1    2    0    0  0.20663104178E+02  0.15333083808E+02  0.18614063810E+02  0.12956958049E+03  0.12561737732E+03 0.  0.
        -11    1    4    4    0    0 -0.35745132373E+02  0.42700463523E+02  0.33691152846E+02  0.65085619407E+02  0.00000000000E+00 0. -1.
         11    1    4    4    0    0  0.56408236551E+02 -0.27367379715E+02 -0.15077089035E+02  0.64483961083E+02  0.00000000000E+00 0.  1.
        -13    1    3    3    0    0 -0.39168113060E+02  0.27185824638E+02  0.65404575625E+02  0.80938054428E+02  0.00000000000E+00 0. -1.
         13    1    3    3    0    0  0.30294242475E+02 -0.25299360036E+02  0.19163613402E+02  0.43875309959E+02  0.00000000000E+00 0.  1.
          2    1    1    2  501    0 -0.11789233593E+02 -0.17219548410E+02  0.10719759036E+02  0.23460863368E+02  0.00000000000E+00 0. -1.
<scales pt_clust_5="13000.00000" pt_clust_6="13000.00000" pt_clust_7="13000.00000" pt_clust_8="13000.00000" pt_clust_9="20.86862"></scales>
<clustering>
<clus scale="   20.869">  2  9  1 -1</clus>
<clus scale="   91.347">  7  8 -1 -1</clus>
<clus scale="   92.173">  1  7  2 -1</clus>
<clus scale="  125.617">  5  6 -1 -1</clus>
<clus scale="   20.869">  2  5  1 -1</clus>
</clustering>
</event>
<event>
 9    1  0.1636528E-005  0.1276113E+03  0.7546771E-02  0.1231191E+00
          1   -1    0    0  502    0 -0.00000000000E+00  0.00000000000E+00  0.48954805974E+03  0.48954805974E+03  0.00000000000E+00 0. -1.
         21   -1    0    0  501  502  0.00000000000E+00 -0.00000000000E+00 -0.70238056154E+02  0.70238056154E+02  0.00000000000E+00 0.  1.
         23    2    1    2    0    0  0.90561778674E+02 -0.17459214665E+01  0.35125482391E+03  0.37482219585E+03  0.94378192283E+02 0.  0.
         23    2    1    2    0    0 -0.60821028363E+02 -0.59984395035E+01  0.28872586558E+01  0.11291292918E+03  0.94898970201E+02 0.  0.
        -11    1    3    3    0    0  0.39145031039E+02  0.43251667279E+02  0.11594455191E+03  0.12979283222E+03  0.00000000000E+00 0.  1.
         11    1    3    3    0    0  0.51416747635E+02 -0.44997588745E+02  0.23531027200E+03  0.24502936363E+03  0.00000000000E+00 0. -1.
        -13    1    4    4    0    0  0.21273856874E+02  0.13379185740E+02 -0.10988246260E+02  0.27428473403E+02  0.00000000000E+00 0.  1.
         13    1    4    4    0    0 -0.82094885237E+02 -0.19377625243E+02  0.13875504916E+02  0.85484455773E+02  0.00000000000E+00 0. -1.
          1    1    1    2  501    0 -0.29740750311E+02  0.77443609700E+01  0.65167921019E+02  0.72050990874E+02  0.00000000000E+00 0. -1.
<scales pt_clust_5="13000.00000" pt_clust_6="13000.00000" pt_clust_7="13000.00000" pt_clust_8="13000.00000" pt_clust_9="30.73253"></scales>
<clustering>
<clus scale="   30.733">  2  9  1 -1</clus>
<clus scale="   94.378">  5  6 -1 -1</clus>
<clus scale="   94.899">  7  8 -1 -1</clus>
<clus scale="  127.224">  1  5  2 -1</clus>
<clus scale="   30.733">  2  5  1 -1</clus>
</clustering>
</event>
<event>
 9    1  0.1636528E-005  0.1113744E+03  0.7546771E-02  0.1258935E+00
         21   -1    0    0  501  502  0.00000000000E+00  0.00000000000E+00  0.24406687535E+03  0.24406687535E+03  0.00000000000E+00 0.  1.
          1   -1    0    0  502    0 -0.00000000000E+00 -0.00000000000E+00 -0.20768293592E+03  0.20768293592E+03  0.00000000000E+00 0. -1.
         23    2    1    2    0    0  0.59448383889E+02 -0.50993379407E+01 -0.14909030374E+03  0.18661036084E+03  0.95054692203E+02 0.  0.
         23    2    1    2    0    0 -0.45731953608E+02 -0.60657871996E+02  0.13836066830E+03  0.18309165915E+03  0.92779804387E+02 0.  0.
        -11    1    3    3    0    0 -0.97674013357E+01 -0.27323102696E+02 -0.84577996746E+02  0.89416953669E+02  0.00000000000E+00 0.  1.
         11    1    3    3    0    0  0.69215785225E+02  0.22223764755E+02 -0.64512306989E+02  0.97193407170E+02  0.00000000000E+00 0. -1.
        -11    1    4    4    0    0 -0.84398452640E+01 -0.50675903427E+02  0.13487710462E+03  0.14432987053E+03  0.00000000000E+00 0.  1.
         11    1    4    4    0    0 -0.37292108344E+02 -0.99819685692E+01  0.34835636808E+01  0.38761788622E+02  0.00000000000E+00 0. -1.
          1    1    1    2  501    0 -0.13716430281E+02  0.65757209937E+02  0.47113574861E+02  0.82047791284E+02  0.00000000000E+00 0. -1.
<scales pt_clust_5="13000.00000" pt_clust_6="13000.00000" pt_clust_7="13000.00000" pt_clust_8="13000.00000" pt_clust_9="67.17255"></scales>
<clustering>
<clus scale="   67.173">  1  9  2 -1</clus>
<clus scale="   92.780">  7  8 -1 -1</clus>
<clus scale="   95.055">  5  6 -1 -1</clus>
<clus scale="  109.439">  1  7  2 -1</clus>
<clus scale="   67.173">  1  5  2 -1</clus>
</clustering>
</event>
<event>
 9    1  0.1636528E-005  0.1290953E+03  0.7546771E-02  0.1228911E+00
         21   -1    0    0  501  502  0.00000000000E+00  0.00000000000E+00  0.11090191217E+04  0.11090191217E+04  0.00000000000E+00 0.  1.
         -3   -1    0    0    0  501 -0.00000000000E+00 -0.00000000000E+00 -0.49230337556E+02  0.49230337556E+02  0.00000000000E+00 0.  1.
         23    2    1    2    0    0  0.73105128833E+02  0.54995989778E+02  0.96189515077E+02  0.16107317190E+03  0.91231711280E+02 0.  0.
         23    2    1    2    0    0 -0.12064373798E+03  0.30195218841E+02  0.49561667250E+03  0.51913322227E+03  0.91633801873E+02 0.  0.
        -13    1    4    4    0    0 -0.17487758365E+02  0.44241360710E+02  0.20452329078E+03  0.20998308542E+03  0.00000000000E+00 0. -1.
         13    1    4    4    0    0 -0.10315597962E+03 -0.14046141869E+02  0.29109338172E+03  0.30915013685E+03  0.00000000000E+00 0.  1.
        -13    1    3    3    0    0  0.18256795282E+02  0.24242407996E+02  0.93314758738E+02  0.98125680216E+02  0.00000000000E+00 0. -1.
         13    1    3    3    0    0  0.54848333552E+02  0.30753581783E+02  0.28747563381E+01  0.62947491688E+02  0.00000000000E+00 0.  1.
         -3    1    1    2    0  502  0.47538609151E+02 -0.85191208620E+02  0.46798259656E+03  0.47804306508E+03  0.00000000000E+00 0.  1.
<scales pt_clust_5="13000.00000" pt_clust_6="13000.00000" pt_clust_7="13000.00000" pt_clust_8="13000.00000" pt_clust_9="97.55748"></scales>
<clustering>
<clus scale="   91.232">  7  8 -1 -1</clus>
<clus scale="   91.634">  5  6 -1 -1</clus>
<clus scale="   97.557">  1  9  2 -1</clus>
<clus scale="  128.810">  2  7  1 -1</clus>
<clus scale="   97.557">  1  5  2 -1</clus>
</clustering>
</event>
<event>
 9    1  0.1636528E-005  0.1055533E+03  0.7546771E-02  0.1269622E+00
         21   -1    0    0  501  502  0.00000000000E+00  0.00000000000E+00  0.66873777073E+02  0.66873777073E+02  0.00000000000E+00 0.  1.
         -1   -1    0    0    0  501 -0.00000000000E+00 -0.00000000000E+00 -0.39308824211E+03  0.39308824211E+03  0.00000000000E+00 0.  1.
         23    2    1    2    0    0 -0.58314372174E+02 -0.14512432720E+02 -0.22175794519E+03  0.24691023146E+03  0.90426209920E+02 0.  0.
         23    2    1    2    0    0  0.37403860996E+02  0.20165045853E+02 -0.13921931664E+03  0.17209261838E+03  0.91805083105E+02 0.  0.
        -11    1    3    3    0    0  0.23737769575E+02 -0.43244872652E+01 -0.33397146410E+02  0.41201362633E+02  0.00000000000E+00 0.  1.
         11    1    3    3    0    0 -0.82052141749E+02 -0.10187945455E+02 -0.18836079878E+03  0.20570886883E+03  0.00000000000E+00 0. -1.
        -13    1    4    4    0    0  0.63848452144E+02  0.32639254914E+02 -0.10387129778E+03  0.12621882706E+03  0.00000000000E+00 0.  1.
         13    1    4    4    0    0 -0.26444591147E+02 -0.12474209061E+02 -0.35348018862E+02  0.45873791320E+02  0.00000000000E+00 0. -1.
         -1    1    1    2    0  502  0.20910511178E+02 -0.56526131330E+01  0.34762796786E+02  0.40959169344E+02  0.00000000000E+00 0.  1.
<scales pt_clust_5="13000.00000" pt_clust_6="13000.00000" pt_clust_7="13000.00000" pt_clust_8="13000.00000" pt_clust_9="21.66106"></scales>
<clustering>
<clus scale="   21.661">  1  9  2 -1</clus>
<clus scale="   90.426">  5  6 -1 -1</clus>
<clus scale="   91.805">  7  8 -1 -1</clus>
<clus scale="  104.356">  2  5  1 -1</clus>
<clus scale="   21.661">  1  5  2 -1</clus>
</clustering>
</event>
<event>
 9    1  0.1636528E-005  0.9350585E+02  0.7546771E-02  0.1294881E+00
         -3   -1    0    0    0  501 -0.00000000000E+00  0.00000000000E+00  0.12396052897E+03  0.12396052897E+03  0.00000000000E+00 0.  1.
         21   -1    0    0  501  502  0.00000000000E+00 -0.00000000000E+00 -0.16998339166E+03  0.16998339166E+03  0.00000000000E+00 0. -1.
         23    2    1    2    0    0 -0.13312790031E+02 -0.10482734597E+02  0.27849571310E+02  0.97468807581E+02  0.91855602584E+02 0.  0.
         23    2    1    2    0    0  0.14305440113E+02 -0.39207476367E+02  0.79742366476E+01  0.10072032249E+03  0.91318799229E+02 0.  0.
        -11    1    4    4    0    0  0.52275412982E+02 -0.15034227306E+02 -0.26957562177E+01  0.54461122782E+02  0.00000000000E+00 0.  1.
         11    1    4    4    0    0 -0.37969972869E+02 -0.24173249061E+02  0.10669992865E+02  0.46259199708E+02  0.00000000000E+00 0. -1.
        -13    1    3    3    0    0  0.53276126258E+01 -0.35023179686E+02 -0.19904121906E+02  0.40634722104E+02  0.00000000000E+00 0. -1.
         13    1    3    3    0    0 -0.18640402657E+02  0.24540445089E+02  0.47753693215E+02  0.56834085477E+02  0.00000000000E+00 0.  1.
         -3    1    1    2    0  502 -0.99265008188E+00  0.49690210965E+02 -0.81846670647E+02  0.95754790564E+02  0.00000000000E+00 0.  1.
<scales pt_clust_5="13000.00000" pt_clust_6="13000.00000" pt_clust_7="13000.00000" pt_clust_8="13000.00000" pt_clust_9="49.70012"></scales>
<clustering>
<clus scale="   49.700">  2  9  1 -1</clus>
<clus scale="   91.319">  5  6 -1 -1</clus>
<clus scale="   91.856">  7  8 -1 -1</clus>
<clus scale="   92.979">  2  5  1 -1</clus>
<clus scale="   49.700">  2  5  1 -1</clus>
</clustering>
</event>
<event>
 9    1  0.1636528E-005  0.9724669E+02  0.7546771E-02  0.1287506E+00
          3   -1    0    0  502    0 -0.00000000000E+00  0.00000000000E+00  0.10373930647E+03  0.10373930647E+03  0.00000000000E+00 0. -1.
         21   -1    0    0  501  502  0.00000000000E+00 -0.00000000000E+00 -0.14393610074E+03  0.14393610074E+03  0.00000000000E+00 0.  1.
         23    2    1    2    0    0 -0.81703978850E+01 -0.23513755397E+02  0.29508655157E+02  0.10073516147E+03  0.93043860263E+02 0.  0.
         23    2    1    2    0    0  0.37131274983E+02  0.21279329379E+02 -0.56873940502E+02  0.11518536133E+03  0.90562028005E+02 0.  0.
        -11    1    4    4    0    0 -0.28590321772E+02 -0.51844976242E+01 -0.20362638374E+02  0.35481298683E+02  0.00000000000E+00 0. -1.
         11    1    4    4    0    0  0.65721596756E+02  0.26463827003E+02 -0.36511302128E+02  0.79704062650E+02  0.00000000000E+00 0.  1.
        -13    1    3    3    0    0 -0.92901385622E+01  0.33390100418E+02  0.26701165209E+02  0.43751088031E+02  0.00000000000E+00 0. -1.
         13    1    3    3    0    0  0.11197406772E+01 -0.56903855815E+02  0.28074899481E+01  0.56984073438E+02  0.00000000000E+00 0.  1.
          3    1    1    2  501    0 -0.28960877098E+02  0.22344260183E+01 -0.12831508925E+02  0.31754884400E+02  0.00000000000E+00 0. -1.
<scales pt_clust_5="13000.00000" pt_clust_6="13000.00000" pt_clust_7="13000.00000" pt_clust_8="13000.00000" pt_clust_9="29.04695"></scales>
<clustering>
<clus scale="   29.047">  2  9  1 -1</clus>
<clus scale="   90.562">  5  6 -1 -1</clus>
<clus scale="   93.044">  7  8 -1 -1</clus>
<clus scale="   94.875">  2  5  1 -1</clus>
<clus scale="   29.047">  2  5  1 -1</clus>
</clustering>
</event>
<event>
 9    1  0.1636528E-005  0.1143386E+03  0.7546771E-02  0.1254570E+00
         -1   -1    0    0    0  501 -0.00000000000E+00  0.00000000000E+00  0.43463004372E+03  0.43463004372E+03  0.00000000000E+00 0.  1.
         21   -1    0    0  501  502  0.00000000000E+00 -0.00000000000E+00 -0.49178081521E+02  0.49178081521E+02  0.00000000000E+00 0.  1.
         23    2    1    2    0    0  0.22559270936E+02  0.49267095365E+02  0.16239407032E+03  0.19160000483E+03  0.86038133308E+02 0.  0.
         23    2    1    2    0    0 -0.17742759123E+01 -0.90955716023E+02  0.20527028745E+03  0.24234474726E+03  0.91208526380E+02 0.  0.
        -11    1    3    3    0    0 -0.17049246753E+02  0.58280028305E+02  0.10482300589E+03  0.12114083159E+03  0.00000000000E+00 0.  1.
         11    1    3    3    0    0  0.39608517689E+02 -0.90129329396E+01  0.57571064431E+02  0.70459173238E+02  0.00000000000E+00 0. -1.
        -11    1    4    4    0    0 -0.29986989519E+02 -0.75284320066E+02  0.83450736592E+02  0.11632271414E+03  0.00000000000E+00 0. -1.
         11    1    4    4    0    0  0.28212713607E+02 -0.15671395957E+02  0.12181955086E+03  0.12602203312E+03  0.00000000000E+00 0.  1.
         -1    1    1    2    0  502 -0.20784995024E+02  0.41688620658E+02  0.17787604426E+02  0.49863373148E+02  0.00000000000E+00 0.  1.
<scales pt_clust_5="13000.00000" pt_clust_6="13000.00000" pt_clust_7="13000.00000" pt_clust_8="13000.00000" pt_clust_9="46.58280"></scales>
<clustering>
<clus scale="   46.583">  2  9  1 -1</clus>
<clus scale="   86.038">  5  6 -1 -1</clus>
<clus scale="   91.209">  7  8 -1 -1</clus>
<clus scale="  110.258">  1  5  2 -1</clus>
<clus scale="   46.583">  2  5  1 -1</clus>
</clustering>
</event>
<event>
 9    1  0.1636528E-005  0.9960308E+02  0.7546771E-02  0.1281451E+00
          1   -1    0    0  502    0 -0.00000000000E+00  0.00000000000E+00  0.27145085232E+03  0.27145085232E+03  0.00000000000E+00 0. -1.
         21   -1    0    0  501  502  0.00000000000E+00 -0.00000000000E+00 -0.96853437494E+02  0.96853437494E+02  0.00000000000E+00 0. -1.
         23    2    1    2    0    0  0.96149415853E+01 -0.11168928575E+02  0.98688393681E+02  0.13594224752E+03  0.92323905605E+02 0.  0.
         23    2    1    2    0    0 -0.41825185275E+02  0.42137496933E+02  0.12450820569E+03  0.16634361484E+03  0.92967683327E+02 0.  0.
        -11    1    3    3    0    0 -0.10514289734E+02  0.31911304466E+02  0.76329136218E+02  0.83396754596E+02  0.00000000000E+00 0. -1.
         11    1    3    3    0    0  0.20129231319E+02 -0.43080233041E+02  0.22359257463E+02  0.52545492924E+02  0.00000000000E+00 0.  1.
        -13    1    4    4    0    0 -0.46960846047E+02 -0.17736875528E+02  0.55294118438E+02  0.74681706922E+02  0.00000000000E+00 0. -1.
         13    1    4    4    0    0  0.51356607723E+01  0.59874372461E+02  0.69214087249E+02  0.91661907917E+02  0.00000000000E+00 0.  1.
          1    1    1    2  501    0  0.32210243689E+02 -0.30968568358E+02 -0.48599184545E+02  0.66018427452E+02  0.00000000000E+00 0. -1.
<scales pt_clust_5="13000.00000" pt_clust_6="13000.00000" pt_clust_7="13000.00000" pt_clust_8="13000.00000" pt_clust_9="44.68279"></scales>
<clustering>
<clus scale="   44.683">  2  9  1 -1</clus>
<clus scale="   92.324">  5  6 -1 -1</clus>
<clus scale="   92.968">  7  8 -1 -1</clus>
<clus scale="   99.002">  1  5  2 -1</clus>
<clus scale="   44.683">  2  5  1 -1</clus>
</clustering>
</event>
<event>
 9    1  0.1636528E-005  0.1231269E+03  0.7546771E-02  0.1249108E+00
         21   -1    0    0  501  502  0.00000000000E+00  0.00000000000E+00  0.11750198204E+03  0.11750198204E+03  0.00000000000E+00 0.  1.
          3   -1    0    0  502    0 -0.00000000000E+00 -0.00000000000E+00 -0.33194119926E+03  0.33194119926E+03  0.00000000000E+00 0. -1.
         23    2    1    2    0    0  0.25038714130E+02  0.38932317669E+02 -0.17198661817E+03  0.21415408937E+03  0.11891137288E+03 0.  0.
         23    2    1    2    0    0 -0.40051210397E+02  0.40708322829E+02 -0.89819245052E+02  0.14141893790E+03  0.93115800026E+02 0.  0.
        -11    1    3    3    0    0  0.78424794510E+01  0.73635716338E+02 -0.15516209956E+03  0.17192731122E+03  0.00000000000E+00 0.  1.
         11    1    3    3    0    0  0.17196234679E+02 -0.34703398669E+02 -0.16824518614E+02  0.42226778150E+02  0.00000000000E+00 0. -1.
        -13    1    4    4    0    0  0.13922179270E+02  0.51709095816E+02 -0.36887027760E+02  0.65025460265E+02  0.00000000000E+00 0.  1.
         13    1    4    4    0    0 -0.53973389667E+02 -0.11000772986E+02 -0.52932217292E+02  0.76393477640E+02  0.00000000000E+00 0. -1.
          3    1    1    2  501    0  0.15012496267E+02 -0.79640640498E+02  0.47366646005E+02  0.93870154026E+02  0.00000000000E+00 0. -1.
<scales pt_clust_5="13000.00000" pt_clust_6="13000.00000" pt_clust_7="13000.00000" pt_clust_8="13000.00000" pt_clust_9="81.04324"></scales>
<clustering>
<clus scale="   81.043">  1  9  2 -1</clus>
<clus scale="   93.116">  7  8 -1 -1</clus>
<clus scale="   98.442">  1  7  2 -1</clus>
<clus scale="  118.911">  5  6 -1 -1</clus>
<clus scale="   81.043">  1  5  2 -1</clus>
</clustering>
</event>
